Cpptraj Generated Restart                                                       
39084  5.0000000E+00
  15.2942348  27.6959988  21.6764592  15.6684784  27.2641669  20.8377145
  15.8440564  28.4427738  21.9942316  14.4280309  28.1343967  21.4785492
  15.2609159  26.7667577  22.7713406  14.9112629  27.2816671  23.7012490
  14.2808662  25.6599021  22.4674384  14.1611807  25.0328570  23.3333280
  13.4285470  26.2635286  22.2021457  14.6588969  24.8448452  21.3241724
  14.7706670  25.4167612  20.2085194  15.0806583  23.6855957  21.4603434
  16.6646224  26.1667922  23.0903145  16.9681044  25.9642523  24.2250865
  17.4478758  25.9198153  21.9897254  16.9936596  26.0128261  21.0937573
  18.6413975  24.9380182  22.1332511  18.1474736  23.9736005  22.4326301
  19.2000817  24.7590040  20.6772879  18.3501955  24.7988272  19.9492212
  19.7123105  25.6971034  20.4826825  20.1085538  23.5152815  20.5130748
  20.7175360  23.3868882  19.4179596  20.0946615  22.5845835  21.3371113
  19.7108780  25.4233749  23.0803531  20.5540667  24.6287954  23.5353635
  19.7061994  26.6547638  23.4329294  18.8932018  27.2635031  23.3126283
  20.7778606  27.2701069  24.2974495  21.7229938  26.9494367  23.9425530
  20.8510908  28.8560998  24.2132711  21.5643865  29.1963762  24.9699686
  21.2672665  29.2141832  22.8212537  20.4058458  29.1342966  22.1606108
  21.5725564  30.2369727  22.7620571  22.1617120  28.6151772  22.5120571
  19.4736393  29.6011743  24.4550777  18.8957349  29.3907115  23.5527012
  19.1112832  29.2429523  25.4055041  19.4903368  31.2136083  24.5338947
  19.7953797  31.6298511  25.4885265  20.0756380  31.6563371  23.6739630
  18.4363021  31.5253161  24.4411252  20.7631310  26.7722157  25.7083899
  21.5885468  27.1016076  26.5462546  19.6890457  26.0183045  26.1270976
  18.9974009  25.7397241  25.4628979  19.6791827  25.3834062  27.5307076
  20.4390392  25.7134367  28.1753904  18.4197561  25.8418704  28.2829067
  17.5522877  25.2842513  27.8130181  18.5385610  25.6791518  29.3422191
  18.1268470  27.3061076  28.2641916  18.8654726  28.1700285  29.0607932
  19.5503549  27.8201717  29.7854468  18.6282240  29.5385017  29.0122517
  19.1951222  30.2294057  29.6408207  17.6183568  30.0481108  28.1741307
  17.3424261  31.0959151  28.0519277  17.0064547  29.1860340  27.2751515
  16.3380274  29.5630244  26.5616779  17.3266721  27.8295278  27.2625894
  16.7963487  27.1290484  26.6786526  19.8488041  23.9100596  27.5091047
  19.7928328  23.2902559  28.5718729  20.0485181  23.2686062  26.3656049
  20.0408825  23.8330494  25.5596668  20.1793129  21.7714381  26.2707410
  19.2536578  21.2510148  26.6852289  20.2887391  21.4358294  24.8069481
  19.3470025  21.6645049  24.3452165  21.0063170  22.0933326  24.3836303
  20.6514517  19.9404932  24.4725474  20.8239685  19.3053758  25.3385313
  19.8020705  19.4790404  23.9740863  21.8473438  19.7839617  23.4875127
  22.6272628  20.2340103  24.0295064  22.0321482  18.6858628  23.3092435
  21.6862779  20.4707176  22.2137745  20.9924372  21.2035132  22.1317553
  22.1426827  20.0062313  21.0128980  21.8469326  20.7593784  20.0094178
  21.3512289  21.5899898  20.2137689  21.9277770  20.3775253  19.1156510
  22.9063352  19.0118405  20.8112301  23.3774261  18.5143981  21.5185763
  23.2030186  18.9447429  19.8657219  21.3870488  21.3718119  27.1119323
  22.4589493  21.9200372  27.0058822  21.2673217  20.2717464  27.9016749
  20.4112769  19.7190606  27.9502685  22.3395703  19.6215364  28.6817689
  22.6197937  20.3803458  29.3845332  21.6648637  18.4679261  29.3925497
  21.0286832  17.9772441  28.6604808  22.4918216  17.8178760  29.7370004
  20.8685528  18.7779895  30.6834824  21.4163127  19.4063259  31.3873778
  19.9541319  19.2596584  30.2649631  20.3496488  17.5480848  31.3547408
  19.6642652  17.1522551  30.6162107  21.2047559  16.9417587  31.5655144
  19.5167292  17.8223540  32.5770708  20.1195292  18.4173920  33.2086469
  18.6512390  18.4170469  32.3419062  19.1754822  16.6146559  33.4043564
  18.8880899  16.8751603  34.4054525  18.4169299  16.1506886  32.9743482
  19.9082014  15.9017198  33.4502160  23.5243499  19.3672901  27.8059891
  23.3226080  18.8492391  26.6746491  24.7913646  19.6204858  28.1672047
  24.9237307  19.9785050  29.1039957  25.9379407  19.4785912  27.2943939
  26.7106412  19.6798257  28.0471082  26.1770544  18.0298091  26.7637408
  26.0364566  17.2551246  27.4948241  25.3986142  17.8099769  25.9655933
  27.6006626  17.8157605  26.0732213  27.5306650  18.2712190  25.0494516
  28.3671314  18.2794855  26.6096690  27.8875497  16.2962398  25.8906198
  27.0017143  15.9916062  25.3688785  28.7225787  16.2747992  25.1618368
  28.0570147  15.6398947  27.2391974  28.7460615  16.1218416  27.8690338
  27.3970884  14.5780450  27.5577450  27.8517395  13.6958592  28.4169492
  28.7916489  13.8881543  28.7757098  27.3789711  12.8432898  28.5189326
  26.3062688  14.1082509  26.9525319  25.7691467  14.6962141  26.3908628
  25.7438940  13.3904213  27.3792197  26.1524412  20.5162978  26.1224597
  27.1762290  20.5268865  25.5155614  25.2387970  21.4529775  25.9451784
  24.3940504  21.3295135  26.4800200  25.4465937  22.7740960  25.3189605
  26.0161330  22.6808198  24.3679259  24.0651828  23.3918226  24.8234298
  23.4789438  22.6367210  24.2815104  23.4534312  23.6539004  25.7097059
  24.0201749  24.5903800  23.8066756  23.1334975  25.2416751  24.1336716
  24.9786894  25.1769952  23.8136278  23.6802076  24.0662085  22.4079622
  22.7495636  23.4462363  22.3690082  23.5485913  24.9095900  21.7398571
  24.8127402  23.2991496  21.9578001  24.6648250  22.3279411  22.0421821
  25.9572633  23.7590276  21.4704171  26.2146694  24.9823556  21.0950080
  25.5547130  25.7666315  21.1249121  27.0338811  25.1499305  20.5162366
  26.9384200  22.9313730  21.2334198  26.6724179  21.9688539  21.2884641
  27.7734952  23.2519958  20.8623792  26.2941590  23.6339052  26.1981896
  25.8753589  23.9104798  27.3096175  27.4407852  24.2102573  25.7150131
  27.7595043  23.7469325  24.9133036  28.0861349  25.4088122  26.2388110
  27.5775526  25.5927240  27.1444268  29.5813085  25.0315506  26.6676844
  29.5261072  24.3684336  27.5575169  30.0684739  24.5278516  25.8380441
  30.4428105  26.2565636  27.1138847  30.6566536  26.8788427  26.2031708
  29.7247386  27.0159681  28.2477254  30.2093609  27.9469777  28.5255782
  28.6717268  27.3215422  28.1302990  29.6944331  26.3952812  29.1737277
  31.8425950  25.8110223  27.5879964  32.4372901  26.5317196  28.2078188
  31.7450286  24.9630004  28.2093625  32.4282075  25.5421643  26.6689456
  28.0444197  26.6124589  25.2539925  28.8695257  26.7879133  24.3240256
  26.9589950  27.4039895  25.2780065  26.3355547  27.1582062  26.0448728
  26.6285161  28.5690068  24.4472127  26.8515722  28.3645485  23.3759994
  25.1456540  29.0654895  24.4965897  24.8143869  29.2289167  25.5360914
  24.7270590  30.2423232  23.6524049  25.2829219  31.1181775  23.9333679
  24.9339704  30.1125375  22.5918678  23.7245440  30.5546456  23.8128755
  24.2943829  28.0036164  24.0201353  24.3483375  27.3426002  24.7473048
  27.4371530  29.7580150  24.8241146  27.1787203  30.4547721  25.8279885
  28.2501810  30.1892708  23.9291371  28.4580749  29.5128494  23.1484077
  28.9803644  31.4858747  23.9958681  29.1459091  31.7819154  25.0346915
  30.3764164  31.3406497  23.3517766  30.2164121  31.1909127  22.2942571
  31.2488474  32.6023152  23.5366640  31.2604980  32.9578799  24.5552025
  32.2843773  32.4313570  23.2736399  30.7537684  33.3657416  22.9431897
  31.2744077  30.2227384  23.8118990  30.7006558  29.2647394  23.5858072
  32.1242380  30.2199807  23.1736955  31.8123944  30.1249060  25.2079482
  32.5323828  29.3173012  25.2647789  32.3417437  30.9569614  25.7013256
  30.9332634  29.9599463  25.8317722  28.1166825  32.6249977  23.3237428
  27.7443653  32.5011273  22.1124637  27.7853000  33.6827655  24.0338328
  28.1187527  33.6888004  25.0264118  27.1231269  34.8555268  23.5529214
  26.5526526  34.7147284  22.6574397  26.1705842  35.2876806  24.6619290
  26.5790026  35.3508413  25.5986380  25.7766894  36.1882744  24.3646686
  25.0391294  34.1975396  24.7010957  24.5215895  34.2133746  23.7506678
  25.4746745  33.2651747  24.8729360  23.7986657  34.3894476  25.9620791
  23.0038657  32.7641842  25.6694489  22.7315236  32.6131630  24.6390093
  23.7444555  31.9603464  25.9165137  22.1923412  32.5540570  26.3161896
  28.1503251  36.0009175  23.4264666  28.1955501  36.9507082  24.2603632
  28.9995095  35.8731136  22.4345966  28.8928047  35.0579555  21.8479554
  30.1103585  36.7781621  22.0649137  30.6991095  37.0759599  22.9276886
  31.3087765  36.0261672  21.2616587  32.1227658  36.7052830  21.2171299
  31.5173166  35.1323109  21.8343719  30.9544313  35.5075338  19.8910656
  29.9870399  34.7058753  19.7780347  31.7548185  35.8317358  18.9811460
  29.5708470  38.0344795  21.3562843  29.5219121  38.0656988  20.1323283
  28.9370131  38.9438883  22.0835892  28.9997608  38.7782182  23.0897070
  28.3469439  40.1530825  21.6976359  28.3196133  40.1384358  20.5953621
  26.9224410  40.2229375  22.2809748  27.1347533  40.2578027  23.3437523
  26.4744253  41.1637282  21.9680480  25.9499772  39.0227188  21.9371608
  26.4024073  38.1410261  22.3750193  24.6279788  39.2985215  22.6578344
  23.8667259  38.5398609  22.4625480  24.7951351  39.2071105  23.6905297
  24.2541815  40.2803169  22.4136075  25.5977496  38.8475042  20.4827905
  26.5158407  38.6324360  19.9969896  24.9115801  37.9547906  20.2788257
  25.2316968  39.7891360  20.1273511  29.1852368  41.2657139  22.2881264
  29.4344798  41.2724808  23.5188937  29.3520515  42.3084313  21.4753403
  28.8222940  42.2883922  20.6370857  30.2924886  43.4165925  21.7285662
  31.3167106  43.0382906  21.7739275  30.3422307  44.3183749  20.4856424
  31.2104336  44.9837169  20.4431632  30.4080911  43.6290046  19.6776140
  29.0548066  45.0833633  20.1983526  27.9117525  44.5476560  19.6541529
  27.0009387  45.5065183  19.8379995  25.9572430  45.4580309  19.5036889
  27.4928098  46.5582125  20.4531630  27.0959360  47.5209429  20.5568911
  28.8274009  46.3226278  20.7316065  29.5999167  46.7836056  21.4090818
  30.0687322  44.2198119  23.0260488  28.9933545  44.1542799  23.6040545
  31.0687414  44.9446372  23.5372309  32.4201887  45.1455091  22.9823888
  32.4830108  45.9434735  22.2386575  32.8100723  44.3048063  22.3760704
  33.2643863  45.4505740  24.2134216  34.1365173  45.9581872  23.8952887
  33.4847986  44.5641966  24.8359401  32.3004999  46.3382470  24.9998231
  32.1582805  47.2569118  24.4371921  32.5428046  46.3384499  26.0898284
  30.9335752  45.7046374  24.8438365  30.7407208  44.9564789  25.5776803
  29.7949653  46.7405043  24.8067287  29.6061017  47.3399704  23.7550813
  28.9724960  46.8027985  25.8730238  29.1309110  46.0786451  26.5868867
  27.7088515  47.5381904  25.8031167  27.2900485  47.6693361  26.8685912
  27.8497002  48.5421769  25.4932063  26.5334102  47.0353266  25.0079618
  25.5398611  47.8171632  24.9067706  26.6034183  45.8674146  24.4537369
  27.3903858  45.2451383  24.6659061  25.4980213  45.3018960  23.6315679
  25.2921794  46.0605304  22.9490732  26.0226751  44.0454888  22.7745145
  25.2241455  43.7415141  22.0944460  26.9402884  44.3490750  22.3421452
  26.3754418  43.1976740  23.4013316  24.1945289  45.0239066  24.4685590
  23.1216032  44.8051715  23.9752761  24.2861221  44.9316556  25.8128278
  25.2414847  44.9415595  26.2191790  23.2053455  44.6489630  26.7083777
  23.2883147  45.2782892  27.5496153  22.2181434  44.7146604  26.2552404
  23.2252871  43.2028365  27.2973435  22.2196889  42.7732629  27.9189373
  24.3003770  42.4165370  27.2027440  25.1254502  42.8291740  26.7410530
  24.4445168  41.1061483  27.8339020  23.8919210  40.3589940  27.3380680
  25.9512525  40.7576464  27.7830538  26.4949198  41.5350616  28.3439896
  26.0496135  39.8122661  28.3174050  26.3878916  40.4979626  26.3082477
  25.7819014  39.7311407  25.8773477  26.4081989  41.4024063  25.7652548
  27.8186834  40.0120642  26.3378758  27.9347724  39.1934327  27.0358559
  28.0814424  39.6700901  25.3345699  28.9224003  40.9671673  26.7988864
  28.8876731  41.1794740  27.8813077  29.8659726  40.4307525  26.5535876
  28.8418272  42.2051887  26.0480101  28.0759764  42.7953466  26.2300754
  29.6747464  42.7455299  26.3929717  28.8516321  42.0587309  25.0232470
  23.9080857  41.1069329  29.3082216  23.0042531  40.3716082  29.6303206
  24.4090044  42.0533047  30.1111748  25.1687993  42.6129179  29.6821498
  24.1349776  42.2487828  31.4941999  24.0300309  41.2549980  31.9263182
  25.2704656  42.9951057  32.1733465  25.3943869  44.0650185  31.8347715
  25.0548716  43.1448142  33.7004842  25.0897248  42.1995216  34.2002663
  25.8851015  43.6793087  34.2117068  24.0572793  43.5182799  33.9127811
  26.5215381  42.3037035  31.9682149  26.6557196  41.5350612  32.5675202
  22.7595131  42.8871554  31.8699698  22.0213980  42.3027045  32.6329641
  22.3546159  44.0190538  31.3011986  23.0335257  44.6100705  30.8118167
  21.2651418  44.8483262  31.8693814  21.2075688  44.5077385  32.9085649
  21.6234920  46.3934538  31.8494464  22.1267213  46.7681464  30.9280446
  20.7786093  47.0752395  32.0372801  22.5859039  46.5186555  33.0437790
  22.1877438  46.1044582  33.9747428  23.5436779  46.0719550  32.8524898
  22.8751640  47.9797528  33.4477578  23.4631708  48.3641785  32.5740774
  21.9614280  48.5411722  33.6078060  23.8047526  48.0334257  34.6854710
  23.2984342  47.4403613  35.5243682  24.7627588  47.5923574  34.4664717
  23.9314467  49.4427271  35.0879896  23.0258775  49.8691156  35.3186884
  24.5915316  49.5052570  35.8825555  24.2323963  50.0874619  34.3570313
  19.9108289  44.5913808  31.0721058  18.8846445  45.1148843  31.5383001
  19.9508185  43.9168380  29.8910623  20.8622848  43.5180054  29.6651004
  18.7332937  43.5145916  29.2061675  17.9129465  43.5357885  29.9039014
  18.3653612  44.7018452  28.1358504  17.4896881  44.3507954  27.5950100
  18.1420664  45.6510332  28.6333807  19.6175822  44.8990378  27.2056895
  20.3782358  45.5265743  27.6362680  19.9164513  43.8958076  26.9018519
  19.1300550  45.6398804  25.9269317  18.1660359  45.2518342  25.6827990
  18.9888298  46.6861674  26.2870696  20.1904817  45.5531589  24.8487778
  20.8532213  44.7507110  24.7844713  20.1363100  46.3547731  23.8194613
  19.1908163  47.2576122  23.5443497  18.3476863  47.2730111  24.0357392
  19.1668181  47.6988263  22.6275319  21.0853102  46.1705702  22.8997594
  21.8687668  45.5061310  23.0809076  21.1567219  46.7954621  22.1524086
  18.6744508  42.0873153  28.5714593  17.5388829  41.6247557  28.3850854
  19.8142092  41.4821530  28.1996532  20.7236610  42.0222491  28.1748074
  19.8161355  40.0659478  27.7448872  18.9742255  39.9551397  27.0643550
  21.0788761  39.8106315  26.9347500  21.4971328  40.6998141  26.4261919
  21.8565210  39.4448618  27.6294684  20.9912639  38.6421981  25.9816178
  22.1744645  38.2307515  25.2282834  23.1702417  38.6681126  25.2671459
  22.1516190  37.1309244  24.2747167  23.0243203  36.8024959  23.7899891
  20.9936487  36.4730207  24.0971077  20.9931424  35.3008697  23.3378622
  20.1420234  34.8203981  23.5251255  19.8498628  36.8703188  24.7903550
  18.9666718  36.3152411  24.6200539  19.7830521  37.9558906  25.6723798
  18.8572426  38.1774139  26.1308565  19.6041321  39.1322100  28.9749726
  18.7682978  38.2277371  28.8669012  20.4462708  39.2606814  30.0266832
  21.1961340  39.9096794  29.9431980  20.3474527  38.4364586  31.2297802
  20.5787936  37.4415410  30.8504671  21.4059995  38.8297980  32.2723113
  22.3707051  39.0645169  31.8228997  21.0542776  39.9108085  32.6210190
  21.3976618  37.9883979  33.5420849  20.4068978  38.1779792  34.0452193
  21.5932235  36.4713601  33.2715690  20.5912749  36.0551605  33.2491051
  22.2999833  36.2248595  32.5201331  22.0314890  36.0341036  34.1047711
  22.5588689  38.5492933  34.3370035  23.4661310  38.0693738  33.9518939
  22.6436180  39.5823546  34.1756139  22.5035390  38.1998455  35.3718251
  18.9577040  38.3398774  31.8480791  18.5121833  37.1683581  31.9962840
  18.1087189  39.3777212  31.8751348  18.5671533  40.8278874  32.0071208
  18.7711217  41.2492669  31.0275098  19.3489994  40.9032345  32.7469075
  17.3382114  41.5379324  32.6397745  17.2016874  42.5032364  32.1539881
  17.4844233  41.6665724  33.7263323  16.1564035  40.6798436  32.3130566
  15.7847920  40.9733833  31.3392734  15.4686065  40.7563811  33.1614615
  16.7728636  39.3239841  32.3046072  16.8200344  38.9368106  33.3527377
  15.9216703  38.3521149  31.4603712  15.2779766  37.4643362  32.0221319
  16.0409549  38.4015485  30.1230990  16.6599305  39.0940801  29.6953606
  15.2340394  37.5500333  29.2123312  14.2114078  37.7265028  29.4902166
  15.4131890  38.1264650  27.7944608  15.0607400  39.1385198  27.7256322
  16.4544966  38.2179509  27.5422658  14.9810358  37.4453753  27.0481301
  15.6304826  36.0912865  29.2474087  14.7221559  35.2347849  29.2951961
  16.9522091  35.7716443  29.2360482  17.5601726  36.5475298  29.5297508
  17.4767969  34.4202380  29.5380848  17.1996043  33.7062834  28.7260264
  19.0766842  34.4786284  29.5372993  19.3770287  35.2506533  30.2070173
  19.7787760  33.2612109  30.1105536  19.7947973  32.5038381  29.3204915
  20.7919166  33.5930283  30.2916941  19.2703370  32.8693034  31.0120906
  19.6202592  34.9245451  28.1428400  19.4958123  34.0540164  27.4705121
  19.1126916  35.8393948  27.7696357  21.1766330  35.2115034  28.1243413
  21.7157242  34.3496676  28.3005026  21.3017556  35.5678878  27.0833268
  21.2788068  36.0263187  28.8320228  16.8947707  33.8260375  30.8041845
  16.2195286  32.8009492  30.8014917  17.0336095  34.5113868  31.9267140
  17.5271304  35.4032496  31.9444929  16.4606552  34.1104570  33.2163313
  17.0185302  33.2402133  33.4626331  16.8778943  35.0686492  34.3313670
  16.8800508  36.0929296  33.8858487  15.8242005  35.1897535  35.4307761
  15.6971079  34.1497876  35.7218669  16.1623236  35.7812134  36.2083656
  14.9282040  35.5683688  35.0470802  18.2398529  34.8362720  34.9258921
  18.3927146  35.7553482  35.4689501  18.1419249  34.0197416  35.5833352
  18.8918100  34.7107056  34.0980158  14.9464526  33.8019481  33.0843069
  14.5493165  32.7193949  33.5412862  14.1091458  34.6319277  32.4887604
  14.3913047  35.5314137  32.2838098  12.6282407  34.3762243  32.3947342
  12.1710683  34.2240583  33.3664363  11.8544828  35.5324228  31.6593738
  12.4016163  35.8047941  30.7679942  10.8190484  35.2091174  31.3982371
  11.7326378  36.7702407  32.6007367  11.3803369  36.5731948  33.6057336
  12.7556643  37.1515580  32.7340953  10.7576617  37.7388299  31.9723283
   9.7699482  37.3483368  31.9956703  10.6810052  38.5407887  32.7110445
  11.1591375  38.1838097  30.6865212  10.7852624  37.7425526  29.8637144
  12.1116953  39.0860409  30.3904751  12.6187589  39.8989901  31.2789512
  12.1944748  39.8581280  32.2301993  13.2673124  40.6193405  31.0171826
  12.4958610  39.2634887  29.1874660  12.1868449  38.6565584  28.3872612
  13.0261580  40.1285919  29.0712374  12.3945501  33.1011115  31.6761090
  11.5209977  32.3427119  31.9474767  13.1164790  32.8465161  30.6401199
  13.8907522  33.5069683  30.4654242  13.0027615  31.6196039  29.8612704
  11.9503980  31.3928442  29.6720875  13.6902942  31.9623568  28.5436917
  13.0090175  32.6080588  27.9102569  14.6070948  32.4635044  28.8267508
  14.0744802  30.7511231  27.6552289  14.8020253  31.1361699  26.9424611
  14.5420070  30.0257101  28.1587330  12.9474845  30.0371064  26.8628061
  11.7497242  30.3820574  26.9387602  13.2047945  29.0567392  26.1272655
  13.5234580  30.3653473  30.5596382  12.8147065  29.3475497  30.5824005
  14.6672773  30.3898324  31.3206697  15.3169905  31.2219259  31.2328190
  15.0279075  29.3270190  32.2999382  15.2125894  28.3963198  31.7309445
  16.4544529  29.7712689  32.6711835  16.4057457  30.7827993  33.0531678
  16.7080278  29.2032772  33.5470459  17.1491699  29.7086659  31.8221192
  14.0029893  29.1034025  33.4944205  13.7083641  27.9119401  33.7574504
  13.4755239  30.1791570  34.1996921  13.8089297  31.1701378  34.1219232
  12.3825758  30.0288460  35.1541518  12.8197310  29.3624168  35.7966701
  12.1144619  31.2171090  36.0931781  11.6418677  31.9876954  35.3884176
  11.0146244  30.8322974  37.1186278  11.1987895  29.8183222  37.4936885
  10.7999847  31.5981094  37.8568787  10.1196453  30.8263363  36.5570802
  13.3456852  31.8236448  36.8356875  13.6344803  31.1089050  37.5896664
  14.1126991  31.7812463  36.0269156  13.2219226  33.2523460  37.3689345
  12.7933514  33.3044225  38.3314868  14.1550788  33.7537849  37.4241981
  12.5865518  33.8323078  36.7852560  11.1275038  29.4054932  34.5310915
  10.5719552  28.4522508  35.1435711  10.8114606  29.7367782  33.2782863
  11.1639457  30.5755889  32.7724983   9.7541998  28.9086858  32.6719280
   9.0232467  28.7821195  33.4391053   9.0684870  29.7180202  31.4906602
   8.6596398  30.6716720  31.8619228   9.7642189  29.6580173  30.6681832
   7.8400030  28.9661407  31.1067995   8.1055844  28.0368695  30.5812792
   7.2869110  28.7056106  32.0192683   6.6432346  29.6408897  30.3222368
   5.8101416  28.9436596  30.3689159   6.3191943  30.4706729  30.8528978
   6.9339425  30.0333381  28.8702937   7.9477493  30.3526412  28.7419596
   6.8424662  29.1082669  28.3182204   6.0181167  31.0471131  28.3832095
   6.0288185  31.2112628  27.4266378   5.0592506  30.7830631  28.6110663
   6.2368923  31.9789710  28.8167985  10.1383673  27.3760304  32.4467507
   9.3728874  26.4711662  32.7887938  11.3687935  27.1538724  32.0200712
  11.9529517  27.8662612  31.7841919  11.9593310  25.7443175  31.8428385
  11.1706975  25.2053296  31.3373384  13.1887352  25.6377223  30.8821100
  13.9875058  26.1740596  31.2982737  13.5439433  24.6137374  30.8190155
  12.8272574  26.0492300  29.4971613  12.1266008  25.2813388  29.1496153
  12.3668127  27.0647823  29.5509949  14.0643034  26.0288061  28.5827290
  14.8236395  26.6928520  28.9353011  14.4403602  25.0740118  28.7449400
  13.6219446  26.4084561  27.2461527  13.7661955  27.4108083  27.0450362
  12.9218823  25.7923270  26.2835778  12.6488752  24.5489333  26.3027972
  12.8831128  23.9162894  27.0135083  12.1588457  24.1569633  25.4670463
  12.5054780  26.4475698  25.2468556  12.7411521  27.3909982  25.3440849
  11.9737019  25.9996038  24.4712179  12.2648256  25.0540658  33.2774911
  12.6875283  23.8801453  33.2598477  11.9496587  25.6209744  34.4606529
  11.5971768  26.6109794  34.3267718  12.0021697  25.0885695  35.7748921
  11.7739952  25.8513038  36.5257212  11.4059926  24.2135274  35.8242095
  13.4279178  24.7236821  36.1899549  13.6480220  23.6809577  36.8299126
  14.4669000  25.4435017  35.7058141  14.2254017  26.3612528  35.3873317
  15.8884722  25.0313335  35.8151548  15.8709548  24.0033405  35.8730044
  16.6935384  25.5649792  34.6006046  16.6498612  26.6448304  34.5029427
  17.7514691  25.2622513  34.7960096  16.2694776  24.8871030  33.2383580
  15.2293590  25.1600624  33.0758365  17.1135625  25.4646649  32.1668828
  18.0484558  24.8767709  32.1983940  16.5684064  25.3435569  31.2090453
  17.1819571  26.5406321  32.4067689  16.2802233  23.3682852  33.2144024
  15.3003161  23.0189504  33.6938421  16.1439814  23.0983376  32.1790921
  17.1013687  22.8328782  33.6281360  16.4496972  25.5837552  37.1236658
  16.2040374  26.7351813  37.5068928  17.2501968  24.7007160  37.7861841
  17.3650013  23.7343337  37.4458327  18.0585674  25.1221482  38.9472162
  17.4206758  25.6412476  39.6129121  18.6912406  23.8513432  39.4904935
  19.2246374  23.4237262  38.6809323  19.4616293  24.1845849  40.2741321
  17.6365264  22.8386701  40.1041535  16.7105921  23.3344135  40.5167167
  17.3062055  22.3120550  39.2186373  18.2679442  21.8499547  41.0507523
  18.7818317  22.3811635  41.7741549  17.4146854  21.3566540  41.6210646
  19.1839556  20.9152967  40.4046284  20.0970160  20.9354997  40.7582538
  18.8906330  19.9664436  39.5412484  17.6360491  19.7453699  39.1483304
  16.9042611  20.4332809  39.3387048  17.3614341  18.8643466  38.6980915
  19.8207576  19.1739171  39.0510641  20.6296488  19.0092390  39.6215454
  19.5707807  18.5031963  38.3115071  19.2064422  26.0864679  38.5918859
  20.3586792  25.6588426  38.4215803  18.8306219  27.3396910  38.4438888
  17.8584496  27.4862004  38.5738355  19.7210479  28.3080745  37.7119586
  20.2990425  27.7134625  36.9901672  18.7311080  29.2486945  36.9458929
  17.9534379  29.5823396  37.5817882  19.4796836  30.3203080  36.2081793
  19.8663513  31.1108416  36.8889216  20.2921204  29.9641137  35.6405369
  18.7619213  30.7218207  35.5162562  18.2211058  28.3343774  35.9684933
  17.6307390  27.7740595  36.5151463  20.5771581  29.0507765  38.6849075
  20.1003949  29.4178012  39.7492976  21.8177009  29.3576122  38.2924270
  22.0937953  28.9625566  37.3853859  22.8272702  30.1344691  39.0086833
  22.3222091  30.6578084  39.8252693  23.8572455  29.1260907  39.5744592
  23.4082139  28.4881168  40.3485907  24.2503401  28.5576351  38.7128582
  25.1941982  29.7056441  40.1050205  25.7718063  30.1043185  39.2768123
  25.0316876  30.7409723  41.2162840  24.4908272  31.6353771  40.8247544
  24.5599509  30.2394148  42.0622222  26.0272314  31.1070216  41.4619364
  26.0205030  28.6323585  40.7436485  26.9503291  29.0299155  41.2246572
  25.4684663  28.2765557  41.6899502  26.2061942  27.7768554  40.1937538
  23.5162540  31.1468647  38.0864764  23.8894504  30.7330114  36.9946918
  23.6034239  32.3953295  38.4860882  23.2327393  32.6340076  39.4020116
  24.3815743  33.4117958  37.8359740  24.6837939  33.0830969  36.8294091
  23.6456688  34.7450654  37.7202579  23.5548853  35.0547933  38.7914401
  24.4397419  35.7969158  36.9213519  24.9854565  35.3651431  36.0136069
  23.8619928  36.6441363  36.6627316  25.2736487  36.2539810  37.4842175
  22.1714678  34.7173345  37.2558727  22.0284420  34.5366354  36.1561963
  21.6440051  33.8494928  37.7330798  21.2725758  35.9736795  37.7244675
  21.6853021  36.9045347  37.4064211  20.3564732  35.7935957  37.2572916
  21.2758226  35.9319025  38.8634045  25.6766937  33.5925723  38.6333420
  25.7426410  33.5800993  39.8091491  26.7226905  33.8178302  37.8890244
  26.5368950  33.8779361  36.8991407  28.0075055  34.2829296  38.3511752
  28.0428868  34.2405221  39.3855017  29.0149496  33.2307665  37.8441138
  29.0568334  33.2166427  36.7612138  30.0387457  33.4503987  38.0629828
  28.8884335  31.7529021  38.2619033  27.9785319  31.3613432  37.9109806
  30.0992161  30.8753493  37.6876317  31.0201771  31.2179142  38.1111695
  29.9646309  29.8627589  38.0483107  30.1880704  31.0240015  36.6334483
  28.7640714  31.6475632  39.7389474  27.9000412  32.1710630  40.1219909
  28.6477009  30.6202406  40.0042981  29.4894730  32.1175813  40.4471258
  28.4261217  35.6802473  37.9380089  28.2689707  35.9474983  36.7259182
  28.9334151  36.5672767  38.8179280  28.9285752  36.2772713  39.7838557
  29.3454453  37.9295873  38.4914578  29.2327285  37.9901822  37.4117556
  28.4779097  38.8985483  39.3318021  27.4470925  38.9067070  38.9195347
  28.4349104  38.6384681  40.4082162  28.8141676  39.9287794  39.3172841
  30.8100088  38.2386818  38.8530196  31.3924938  37.5898261  39.7600501
  31.5166405  39.1825978  38.2989001  31.0319587  39.9818539  37.1783666
  29.9598331  40.1905907  37.4033971  31.1243491  39.4186236  36.2593411
  32.0563266  41.1779154  37.1867696  31.8217465  41.8970936  37.9895338
  31.9488416  41.7213768  36.1751190  33.3358769  40.4527197  37.5157877
  34.0423713  41.1514978  37.8820299  33.8088240  39.9357832  36.6678913
  32.9215768  39.4837623  38.6383163  33.4535120  38.5212084  38.5805949
  33.2037575  40.1394707  40.0292371  34.2189649  39.8404301  40.6574666
  32.3031518  41.0051617  40.5081908  31.4640612  41.1613396  40.0093950
  32.4927943  41.6534890  41.8033850  33.1139030  41.0570240  42.4665706
  33.1750888  43.0020155  41.7496419  33.2515485  43.4798786  42.7771099
  34.6401114  42.9408210  41.3272277  35.1699828  42.2661902  41.9926980
  34.7184303  42.4483264  40.3099287  35.1128762  43.8485970  41.4084530
  32.6050446  43.9131797  40.8321034  33.3150307  43.9758788  40.1227778
  31.2247106  41.8121782  42.5320205  30.1617529  41.6829637  41.9047865
  31.2666499  42.1804089  43.8067528  32.1808967  42.4903153  44.1263144
  30.0736235  42.3309650  44.5855144  29.5566732  41.3988457  44.5702725
  30.3791708  42.5751285  46.0642758  30.7837394  41.5946865  46.3864755
  31.1157210  43.2601508  46.2278680  29.1663115  42.8391719  47.0253917
  29.5903058  43.1057863  47.9829777  28.4954631  43.6105503  46.6334602
  28.1865753  41.6606496  47.2060963  27.9676473  41.1182725  46.3265584
  28.6897462  40.9874854  47.8285535  26.8872363  42.0068452  47.6970447
  26.7234648  42.0366087  48.7104437  25.8185611  42.2672746  46.9833075
  25.8043630  42.6255860  45.7674275  26.6335386  42.5558225  45.1773177
  24.8843457  42.8730051  45.3968450  24.6827084  42.1701447  47.5757260
  24.7396582  41.8642805  48.5160696  23.8181133  42.3771968  47.1239316
  29.2011723  43.4935117  44.0853775  27.9670677  43.3931683  44.1823753
  29.7595920  44.5328700  43.5035946  30.7416091  44.6161489  43.5692375
  29.0210920  45.7457757  43.1557953  28.0959934  45.7185612  43.7924132
  29.6641119  47.0073816  43.7970642  29.0578357  47.8651402  43.4582358
  29.7189062  46.9452596  45.3275906  30.2859385  46.0283097  45.6662449
  30.1025835  47.8599788  45.6871215  28.6807323  46.8013176  45.5893065
  31.0774887  47.1713223  43.1622915  31.7665613  46.4563082  43.5876881
  31.0264088  47.0152313  42.0742847  31.3919624  48.2032753  43.3401867
  28.6243463  45.8444054  41.6685175  27.5963369  46.4479831  41.3148153
  29.2906325  45.0138430  40.8539856  30.1331956  44.5287875  41.2474364
  28.7435644  44.4774912  39.5777420  28.2455978  45.3124128  39.0679645
  29.8246575  43.9110187  38.6258562  30.3123971  43.1876760  39.1978263
  29.1330412  43.2741874  37.4577006  28.4183665  44.1034562  37.0884192
  29.8357562  42.9848484  36.6412218  28.5995477  42.3420714  37.7569067
  30.7217393  45.0382542  38.0899890  31.2147730  45.5502313  38.9373323
  31.4742259  44.5722841  37.5142793  30.1514654  45.5988215  37.3394345
  27.5422875  43.5416657  39.8016761  26.6266526  43.7083598  38.9983967
  27.5647344  42.7006142  40.8670315  28.4179414  42.4134406  41.2941196
  26.3906443  41.9491671  41.2883590  26.0578445  41.4114230  40.3862518
  26.8037808  40.7508625  42.1515277  27.6517239  40.2775076  41.7878572
  27.0632660  41.0461735  43.1834189  26.0979458  39.9179451  42.2546341
  25.1986867  42.7712719  41.8145422  24.0198026  42.3598759  41.7501821
  25.5096514  43.9216935  42.3368719  26.4668814  44.1200180  42.4661996
  24.5534558  44.9257543  42.8433766  23.6799540  44.4101609  43.2798517
  25.3337429  45.6128437  43.9030906  24.6061150  46.1156890  44.5699095
  25.8356192  44.8667005  44.5070825  26.0512684  46.3553295  43.5086827
  23.9090790  45.8640404  41.7819154  22.6519033  45.9214154  41.6903307
  24.6714093  46.1671487  40.7319466  25.6809908  46.0755794  40.8256117
  24.1580734  46.6032122  39.4706129  23.6037769  47.5124860  39.5870972
  25.2826352  46.8038610  38.4492014  25.8988515  45.9023580  38.3892634
  24.8423230  46.9715559  37.4837809  26.1579935  47.9635328  38.9990773
  26.0446234  48.1237854  40.0297567  27.2235573  47.8833371  38.7140052
  25.6374278  49.3457336  38.5620345  25.0473138  49.4523345  37.5545468
  25.8490735  50.3264566  39.2534856  23.2172823  45.6037523  38.8424890
  22.1927866  45.9395405  38.2511142  23.5929565  44.3790925  38.9217650
  24.3963092  44.1894585  39.4869613  22.9001493  43.2000491  38.4243522
  22.6362453  43.5081655  37.4421089  23.8496432  42.0370109  38.4251504
  24.7230938  42.3495817  37.9156567  24.1775792  41.9245449  39.4269567
  23.3379725  40.6443610  37.9762666  22.5727204  40.2353420  38.6211207
  22.8859369  40.7882526  36.9584839  24.6507494  39.4150265  37.8553042
  25.4242033  39.9455628  36.2879429  24.6848840  39.6405333  35.5223470
  25.7154338  41.0438093  36.2495224  26.3247271  39.3853652  36.2184675
  21.6311172  42.7804220  39.1296584  20.6186701  42.3982004  38.5477821
  21.5832163  42.7458387  40.4575210  22.4917912  42.8560861  40.9647006
  20.4235565  42.4534196  41.3516725  19.8711156  41.5701325  40.9592360
  20.8280518  42.0763220  42.7555678  20.2354596  41.2490392  43.1166409
  21.7770406  41.6191135  42.6820622  21.0151248  43.1366005  43.8693152
  21.7354250  43.9337369  43.5074916  20.1160030  43.6551190  44.2336070
  21.5643082  42.4790545  45.1629972  20.8625653  41.6181509  45.7460785
  22.6794707  42.8473657  45.5076230  19.4018163  43.6400072  41.3779578
  18.2526808  43.5270949  41.7869419  19.8660811  44.7970113  40.9041500
  20.8638218  45.0049071  41.0591377  19.0033540  45.9279137  40.4650871
  18.0306456  45.9660143  41.0796644  19.7893615  47.2675006  40.5828232
  20.2651338  47.2170432  41.5623812  20.5416891  47.2673730  39.7716057
  18.9085116  48.4605119  40.4335746  18.3295675  48.3393442  39.5336450
  18.2648647  48.5408601  41.3253009  19.7455117  49.7349841  40.2498076
  20.1862966  50.0121588  39.0912985  20.0311962  50.5261716  41.1953145
  18.4747106  45.7059348  39.0166531  17.3168324  45.9724561  38.7332747
  19.2545973  45.1576504  38.0389852  20.1831114  44.8592368  38.2792005
  18.7794384  44.8834697  36.7120778  18.3231369  45.8372618  36.3325816
  19.9292003  44.4633543  35.8541203  20.2321676  43.3888103  36.1817062
  19.5590316  44.5013822  34.7917987  20.7786251  45.1384755  36.0185696
  17.6637873  43.9010339  36.7342859  16.8464857  43.9603279  35.8511806
  17.6747894  42.9719401  37.6880303  18.5542174  42.9033945  38.2346702
  16.7329642  41.8183183  37.9804727  16.0983928  41.6053522  37.1277456
  17.6006409  40.5256634  38.1940548  18.1901699  40.7122748  39.1017049
  17.0938318  39.6720478  38.3764592  18.5804036  40.1576039  37.0318107
  18.9795391  41.0206267  36.4928507  19.7084775  39.1512984  37.5426635
  20.4318095  39.0616521  36.7579223  20.2500839  39.6043865  38.3877351
  19.3074401  38.2336184  37.8958584  17.8445298  39.4217347  35.9543501
  17.2002325  40.1784217  35.6047443  18.5191672  38.9881721  35.2394702
  17.2858319  38.6166014  36.4303523  15.7163822  42.0438792  39.1503848
  15.2018982  41.1001228  39.7661959  15.5316487  43.2813771  39.5994605
  16.1219571  43.9196112  39.1790079  14.8799999  43.6829875  40.8659809
  15.2980351  43.1811091  41.7422424  15.1025803  45.1456044  41.2570737
  14.6055180  45.3845098  42.2462017  16.1802376  45.3283203  41.5059066
  14.5050138  46.2221118  40.2732987  14.9513819  46.0242668  39.2124878
  13.4284432  45.9447810  40.1185107  14.7722607  47.6027213  40.8303655
  13.8999400  47.6451673  41.5073646  15.6790049  47.6189152  41.4035002
  14.6832181  48.5404919  39.7061547  14.1525092  48.2775868  38.8794164
  15.1567009  49.7690000  39.7100188  15.7921699  50.3855192  40.6719411
  15.8366339  50.0456587  41.6355098  16.2664542  51.2665288  40.5349158
  14.9939398  50.4877134  38.6429392  14.3187077  50.1182497  37.9797566
  15.6089205  51.2148368  38.3654268  13.4140253  43.2113157  41.0247795
  12.8980611  43.2364938  42.1302497  12.7133625  42.7853577  39.9387962
  13.1146146  42.8439867  39.0384111  11.4111532  42.1205415  40.0304132
  10.8409458  42.5470981  40.9019622  10.7490694  42.3719067  39.1625952
  11.4792547  40.5894186  40.0720497  10.5582525  39.9284329  40.4738403
  12.5801965  40.0590455  39.5155450  13.3900380  40.6073215  39.2672768
  12.8660331  38.6596483  39.3875372  11.9164350  38.1679738  39.1650263
  13.8656325  38.4321496  38.1884173  14.5576334  39.2300811  38.2514436
  14.4380918  37.4811707  38.3061616  13.1881718  38.3852809  36.8528572
  12.5347956  39.2135404  36.7720857  14.2444218  38.5052042  35.7432145
  14.7111393  39.4616606  35.7258927  15.0709544  37.7295874  35.9011995
  13.8567251  38.4299957  34.7358068  12.4517595  37.0121144  36.7105925
  13.2085968  36.2769914  36.6175776  11.7955223  36.8683682  37.5778564
  11.8781960  37.1413641  35.8357423  13.3461410  38.1016730  40.7684472
  14.0640603  38.8241466  41.4863920  13.0382387  36.8344262  41.0598672
  12.4089928  35.8884220  40.1603519  12.9353849  35.5642252  39.3288237
  11.4702664  36.1925114  39.7975311  12.1655987  34.6605317  40.9991648
  12.8600509  33.9079844  40.6855495  11.1963626  34.1389932  40.9045006
  12.2429390  35.0493495  42.4698674  12.5866793  34.1488796  42.9682163
  11.2878969  35.4612986  42.7772980  13.2464863  36.2788411  42.3746104
  13.0294648  36.9876801  43.1505569  14.7649008  35.8222188  42.5430662
  15.0884836  34.6275142  42.4374788  15.6495223  36.7927441  42.8395833
  15.3771869  37.7291924  42.9373638  17.0554143  36.4752758  42.9394545
  17.2985372  35.5576511  42.3549742  17.9326581  37.6273746  42.4148711
  17.8326377  38.4570831  43.0875330  19.4239873  37.2065772  42.2716112
  19.9579368  37.2199552  43.2861654  19.4496267  36.1654742  41.8538075
  19.9688099  37.8063716  41.5691917  17.5010298  38.0715494  40.9790709
  16.5782268  38.7195881  40.9952873  18.1683013  38.8542292  40.7005158
  17.3916302  36.9680326  39.8704057  18.3858556  36.5172754  39.7342001
  16.5925546  36.2213838  40.1657404  17.0379746  37.3509856  38.9701303
  17.4913042  36.1460646  44.3969594  17.3904331  36.9609950  45.2865910
  18.0648463  34.9393699  44.5823124  18.1832640  34.3954913  43.7367134
  18.7857289  34.5666817  45.7897536  18.3354281  35.2221589  46.5404643
  18.5990013  33.1234974  46.2538340  17.4910333  32.8857247  46.4288448
  18.8666960  32.5092048  45.3693462  19.3734754  32.6557560  47.4442532
  18.8828705  31.7084389  47.6690305  20.3346019  32.4876888  47.0620042
  19.4800423  33.5257361  48.6790194  20.0395664  33.0328328  49.4488460
  19.8418946  34.4983986  48.3781741  18.1546897  33.7923130  49.2203701
  17.5963571  34.5361326  48.8078358  17.5657380  32.8576487  50.0673192
  18.1995859  31.8598461  50.6403781  19.2161084  31.9274047  50.7120464
  17.6431088  31.3321584  51.2189270  16.3148516  32.9620033  50.2359953
  15.7645604  33.7062498  49.7154693  15.8294885  32.3010543  50.7811288
  20.2675916  34.9527240  45.6910110  21.0660960  34.2225951  45.0609709
  20.6998088  36.0800040  46.2861881  20.0811927  36.7537957  46.6629555
  22.1864868  36.4192659  46.3458827  22.5846307  36.2449775  45.3185806
  22.3434319  37.8793336  46.8075760  21.6532050  38.4089435  46.1528420
  22.0086952  37.9285990  47.8342784  23.7680034  38.2749771  46.6296467
  24.0856543  39.1676210  45.6010364  23.2938976  39.6636038  45.0154694
  25.4349887  39.4867539  45.2696576  25.6627919  40.0784274  44.4631545
  26.4065763  38.8384460  45.8545971  27.6650499  38.9429839  45.3241287
  28.3653999  38.4902298  45.7803253  26.1340426  38.0520939  46.9766565
  26.8722044  37.5712795  47.4549903  24.8120613  37.8153061  47.4336480
  24.6863949  37.1989659  48.3000160  22.9305185  35.5354485  47.3498836
  22.5591464  35.6342642  48.5071306  23.8685340  34.6310375  46.9791739
  24.1238027  34.7643253  45.9703080  24.4342800  33.5508185  47.7192014
  23.7610063  33.4478653  48.5215537  24.5926121  32.2388025  46.9107325
  25.1642207  32.4421923  46.0528759  25.1342966  31.4492949  47.5012080
  23.2224347  31.6976027  46.5271016  22.5505015  32.5635613  46.3643359
  23.3093865  31.2035962  45.5922311  22.5297454  30.8501300  47.6138051
  22.8788347  30.8505889  48.7603271  21.4745887  30.1670324  47.3001657
  21.0339033  29.6272690  48.0202757  21.2820967  29.9365363  46.3220499
  25.7709874  33.9702521  48.4114011  26.5637676  34.7021536  47.7924576
  26.1609747  33.4898843  49.6300934  25.6565082  32.7488682  50.1174451
  27.2291453  33.9879096  50.5329429  27.5434590  34.9054688  50.1639853
  26.6696609  34.4326968  51.9456863  26.0156086  33.6297547  52.3201540
  27.6512780  34.7497685  53.0950676  28.5058848  35.3884225  52.7750835
  27.1527080  35.2810320  53.9084533  27.9965428  33.8248022  53.4998048
  25.9923456  35.6569700  51.7479553  25.1502125  35.5114120  51.2460400
  28.4045675  33.1057575  50.7242852  28.3002180  31.9230169  51.0576352
  29.6589964  33.6766044  50.5764218  29.9964936  35.0936400  50.5222237
  29.2687316  35.7583758  51.0400897  30.0675361  35.4274783  49.4792933
  31.3542939  35.2821908  51.0863268  31.2419026  35.3541320  52.2142871
  31.7614890  36.2167976  50.6111422  32.0856686  33.9585960  50.7249015
  32.9315909  33.8602629  51.3631962  32.4331480  34.0539951  49.7144044
  30.9363346  32.9077970  50.7861061  31.0302362  32.1973168  49.9615241
  31.0120681  32.2322095  52.1312964  31.6319067  31.1419641  52.2846209
  30.3972968  32.8160375  53.1633291  30.0424398  33.7409065  52.9359393
  30.7010999  32.3432035  54.5133321  31.7048135  32.0927922  54.5757781
  30.4835145  33.5130810  55.4200398  29.4258810  33.7486097  55.4450628
  30.8110290  33.3701198  56.3971708  30.9801734  34.4069233  54.9855174
  29.8370795  31.2280041  55.0310692  29.8024903  30.9070668  56.2408272
  29.0790623  30.5977336  54.0783557  29.3867254  30.7865796  53.1613665
  28.1183253  29.5340405  54.2399237  28.2604924  29.0261282  55.1996894
  26.6552965  30.1220702  54.2985215  26.4419658  30.8815895  53.5102911
  25.5793650  29.0042243  54.2748106  25.7098920  28.2285373  55.0854993
  24.5931098  29.4598550  54.2227342  25.7378998  28.5553371  53.3441316
  26.4202003  30.8122962  55.6707729  26.0128627  30.0069332  56.3910913
  27.2990221  31.2782226  56.1530778  25.2559615  31.7884643  55.6091052
  25.0386779  32.1711009  56.6129670  25.4551540  32.6624424  55.0178670
  24.3571210  31.2901963  55.2210343  28.3801352  28.5128460  53.1109021
  28.5267357  28.9811282  51.9573599  28.4146207  27.2353126  53.4750593
  28.1656775  26.9780201  54.4578370  28.4931850  26.0304717  52.5936016
  29.4050614  26.0211284  51.9569396  28.5764396  24.6654711  53.3642072
  27.7595775  24.6685233  54.0623235  28.5263332  23.7241686  52.7579280
  29.8080860  24.7412013  54.1713039  30.7120726  24.8179888  53.5530251
  29.8237802  25.6162564  54.8659646  29.9485740  23.4467979  54.9774170
  29.0714655  23.3200206  55.5948466  30.0528258  22.6232421  54.2764468
  31.1310130  23.5556536  55.8464401  31.9681936  23.8029146  55.4163046
  31.2864340  23.2528860  57.1429956  32.3683528  23.3125555  57.7304629
  33.1988745  23.5430485  57.1354580  32.4146142  23.2491659  58.7222137
  30.2860411  22.8961563  57.9190302  29.4634855  22.6624364  57.4211572
  30.3264825  22.7111576  58.9108124  27.4494048  25.9951471  51.5180257
  27.7762784  25.8919403  50.3586051  26.2087608  26.2521979  51.8320112
  25.9646490  26.1739249  52.7935115  25.0215077  26.0004368  50.9567852
  25.1604838  26.4771868  50.0406566  24.8620238  24.4886288  50.7259033
  23.9309892  24.2816138  50.1395856  25.7739865  24.0432012  50.4317393
  24.5549809  24.0675146  51.6088161  23.7964132  26.6259054  51.7509422
  23.6895607  26.3636843  52.9276092  22.8545570  27.3605265  51.1462633
  22.9056348  27.3583377  50.1623554  21.5758899  27.8817651  51.6997242
  21.4198163  27.4251381  52.6469200  21.8767193  29.3530890  51.9811891
  22.6732692  29.4414493  52.6804313  22.2816133  29.7488412  51.0607202
  20.6988368  30.2837985  52.2459702  20.1909949  30.3469331  51.3465714
  19.9491742  29.8629390  52.9796679  21.2648467  31.7189422  52.5184097
  22.0203690  31.9299137  53.5483804  21.1353088  32.5718307  51.6156810
  20.3399852  27.6880671  50.8045963  20.3385270  28.0919152  49.6284688
  19.2089471  27.1142183  51.3488879  19.1521007  27.1221605  52.3552069
  18.0382671  26.6184247  50.5914141  18.2969087  26.7335173  49.5667364
  17.8612484  25.1459499  50.8865534  18.7560915  24.5877652  50.7464154
  17.5720528  25.0024717  51.9485122  16.8205571  24.4744808  49.9980074
  16.9816966  24.1890768  48.6140651  15.8048006  23.6284713  48.2823829
  15.5328473  23.3710738  47.2895683  14.9989538  23.5437087  49.3309543
  14.1744213  23.0000299  49.4685909  15.6191904  24.0440821  50.4779760
  15.2307299  24.1978523  51.5204608  16.7168106  27.4218553  50.8271247
  16.6110793  28.1165552  51.8041962  15.8259351  27.4084513  49.7943922
  16.0602276  26.8690440  48.9417439  14.5668743  28.0731375  49.9439721
  14.1846158  28.1449670  50.9954398  14.7391360  29.5022337  49.3992574
  15.5395426  30.0327008  49.8587576  15.0679237  29.6221006  47.9045403
  14.4438229  29.0660146  47.2481789  15.0262696  30.7273048  47.6049969
  16.1333429  29.3791650  47.6642109  13.6423173  30.2161707  49.5655924
  13.6325567  30.7342322  50.3702727  13.4536391  27.4362874  49.1022771
  12.3396479  27.4491057  49.5748701  13.7677028  26.8065827  47.9674838
  14.7355304  27.0608908  47.7219011  12.9291520  25.9474395  47.0863568
  13.5718667  25.4787174  46.2949601  12.5214646  25.0809015  47.5983517
  11.6981959  26.5253341  46.3859821  10.8414022  25.8192004  45.9506505
  11.4390814  27.8667820  46.4624335  12.1389446  28.3727306  46.9599687
  10.5588791  28.6160660  45.5429652   9.5753791  28.2496896  45.5584821
  10.5081217  30.0978658  46.0698723  11.5018509  30.3939385  46.2899000
   9.9610645  30.7023950  45.3370682   9.7641455  30.1150252  47.4017811
   8.7782595  29.7875980  47.1438369  10.3416620  29.4574447  48.0090130
   9.5804357  31.5408568  47.9244039   9.1808748  32.1145222  47.0385544
   8.8247514  31.5265159  48.7003162  10.8498377  32.0589055  48.4360106
  11.2077260  31.6743249  49.2981888  11.6661047  32.8807355  47.8774369
  11.5258221  33.4117082  46.6873914  10.8391688  33.0469260  46.0557506
  11.9730338  34.2828791  46.4974272  12.6410071  33.3188065  48.6434636
  12.6586199  33.0304770  49.6314621  13.0856548  34.1973883  48.4348510
  11.2537070  28.5834721  44.1651053  12.4246419  28.2040157  43.9940590
  10.5616888  29.0096783  43.1443802   9.5630364  29.2053908  43.3444135
  11.1795864  29.4694296  41.8657984  11.7198290  28.5655146  41.5737995
  10.0245904  29.7324230  40.8778980  10.5458762  29.8032585  39.9332730
   9.2903371  28.7916043  40.8701810   9.0219085  30.8960059  41.0373716
   9.4762575  31.9044985  40.9035033   8.2395415  30.8786122  40.2378632
   8.2493528  30.8416452  42.4089819   7.8850607  29.7451973  42.8913237
   8.0059360  31.8614855  43.0907093  12.1560608  30.5122174  42.2623179
  11.7782347  31.4921293  42.9896817  13.3704096  30.4829466  41.7719362
  13.5692584  29.6786961  41.1668925  14.5487302  31.1575857  42.3272905
  14.2998893  32.1471434  42.4367117  14.7836708  30.5384199  43.6489247
  13.8860994  30.2610925  44.1602555  15.6038991  29.2141133  43.5983375
  15.5619479  28.7556748  44.5765101  15.0696458  28.4457929  42.9857315
  16.6851203  29.4506331  43.3165864  15.5633146  31.5516238  44.5849238
  16.0672053  31.0750338  45.4262801  16.2879970  32.1291177  44.0925369
  14.6268349  32.4979654  45.2935453  14.0013146  31.9895833  46.0841756
  15.3080209  33.1548185  45.9200187  14.0167721  33.1203337  44.6748739
  15.6632181  31.1222724  41.3300552  15.8938703  30.0457891  40.6769639
  16.4385775  32.1735116  41.2455065  16.1732703  33.0097425  41.7809617
  17.7791538  32.2410772  40.5538316  18.1981391  31.2745386  40.2328785
  17.7465335  33.1637188  39.3052105  17.3540448  34.1253313  39.4373122
  19.1328301  33.5017903  38.6316006  19.8388196  34.0457992  39.2067491
  19.6925556  32.6175013  38.2368297  18.8714078  34.1708876  37.8136806
  16.8544372  32.5878702  38.2334567  17.1949190  31.5993330  37.9747762
  15.8405496  32.4287735  38.5778656  16.8746947  33.1957255  37.3238934
  18.8972675  32.7318678  41.4294990  18.7661421  33.8147113  42.0135001
  19.9702319  31.9323551  41.6023921  20.1827500  31.2396726  40.9157900
  21.0465977  32.2365501  42.5773655  20.5505924  32.8499178  43.3697778
  21.7049281  30.9703592  43.0705834  22.1098300  30.4323573  42.2161532
  22.4820232  31.3087926  43.7334906  20.9642024  29.9750872  43.8379802
  21.4976242  29.3022139  44.7223513  19.7741725  29.6454669  43.5427777
  22.0462963  33.2849959  41.9110684  22.3460116  33.2966382  40.7113305
  22.7277303  34.1266062  42.7809710  22.4071275  34.1662365  43.7178407
  23.7235536  35.1178207  42.3319370  24.1277123  34.7570018  41.4271995
  22.9375632  36.4276997  42.0984937  22.2807275  36.3458761  41.2542705
  22.3772340  36.6246803  43.0418217  23.7979375  37.5817441  41.7606207
  24.4564181  37.7572817  42.5776607  24.6134475  37.3819031  40.5407164
  25.2526971  36.5064767  40.7215171  23.9646775  37.4108200  39.6940814
  25.3032178  38.2062028  40.5124137  23.0177761  38.8696595  41.6327729
  23.7758732  39.6155412  41.7130935  22.5579349  38.7780355  40.6272504
  22.2175187  39.0095418  42.3965597  24.9031888  35.2331937  43.3053727
  24.6662860  35.5013249  44.4430665  26.1328575  35.0003673  42.8815185
  26.2344786  34.5307254  41.9235477  27.3011465  35.1617782  43.6731904
  27.1819786  35.9637522  44.3769855  27.6376549  33.8976040  44.4024926
  28.6509024  33.9797126  44.8477369  26.9100407  33.9485135  45.2147491
  27.4263249  32.4989055  43.8433619  26.3843214  32.3463633  43.5532951
  27.9941384  32.2334215  42.9471916  27.5615498  31.1854896  45.1252290
  26.2727288  30.0143516  44.6082328  26.5715181  29.0040102  44.7394946
  25.3954915  30.1021951  45.1968844  26.1091716  30.2035953  43.5482830
  28.4195589  35.5277900  42.8330369  28.3149796  35.3802668  41.6287829
  29.4952091  36.0868295  43.3500195  29.6470975  36.2149687  44.3617577
  30.6713303  36.4487095  42.5748391  30.3047789  36.8816568  41.7164542
  31.5736606  37.4309107  43.3436304  32.2787167  37.8202055  42.6288274
  30.9877926  38.2237924  43.7728830  32.5871480  36.7016288  44.5977230
  33.7682851  37.2500491  44.3425372  31.4089026  35.1563755  42.1548691
  31.1715901  34.0848074  42.6124275  32.3379998  35.2666176  41.2336703
  32.5876246  36.2136647  40.8824358  33.1367879  34.1507026  40.6128002
  32.4281106  33.4755681  40.0306856  34.1677384  34.7279852  39.5731175
  34.7157225  35.6258646  39.9611366  34.8385860  33.9159575  39.2867502
  33.5566661  35.1661065  38.2507272  34.3340262  35.6252909  37.2303719
  33.4880627  35.9755696  36.2656771  33.8706570  36.4778568  35.3559511
  32.2229396  35.7703216  36.5584951  31.4066421  36.0945731  35.9460553
  32.2287580  35.2103638  37.8666491  31.3690431  34.9261152  38.3936063
  33.9671088  33.4319787  41.7641583  33.9167846  32.2169983  41.9395813
  34.6374849  34.2475199  42.6188623  34.7153139  35.2498505  42.5327724
  35.1917521  33.6710302  43.8402555  35.8109851  32.8657754  43.4677833
  36.1074473  34.7741010  44.5179215  35.6715535  35.7506072  44.4038838
  36.1895656  34.5575602  45.5822507  37.0496906  34.7388706  43.9877641
  34.2989699  33.0610847  44.9713777  34.5788314  32.0494239  45.6014267
  33.0759070  33.6304716  45.2730033  32.8981323  34.6039362  44.9079007
  32.1214633  32.9958529  46.1966987  32.6955249  32.8546121  47.1635832
  31.0113612  33.9522882  46.4314403  30.5324339  34.2099300  45.5121385
  29.8745474  33.3213921  47.3044935  30.3724587  32.8417273  48.1373039
  29.2606254  34.1440949  47.5924942  29.3000247  32.5011404  46.8257168
  31.5575080  35.0917413  47.1236872  30.9400351  35.8384114  46.9099343
  31.5637276  31.6753903  45.6944764  31.4347898  30.8051834  46.5771265
  31.4258224  31.4956634  44.3782835  31.5903570  32.3208323  43.7530792
  30.9963355  30.2188320  43.8723400  30.2153314  29.8554122  44.4423448
  30.5085289  30.3546676  42.4513246  29.5099548  30.8560917  42.3438542
  31.2143358  30.9018496  41.8782519  30.2855437  28.9776958  41.7493992
  29.2290808  28.2008140  42.2752203  28.6483879  28.5226700  43.1265864
  28.9616655  26.8991237  41.7042559  28.3360478  26.1992963  42.2984246
  29.6946420  26.5350583  40.5988462  29.5833187  25.5167807  40.1438890
  30.7705196  27.2715497  40.1019668  31.4002125  26.8533216  39.3128418
  31.0586884  28.5332989  40.6478140  31.8375840  29.0903033  40.1741485
  32.1173169  29.2012909  43.9521340  31.9176754  28.1448225  44.5338465
  33.3228445  29.6168448  43.5142516  33.5474691  30.5000461  43.0047520
  34.4784939  28.8602141  43.8471244  34.3505782  27.9331560  43.3228164
  35.7452251  29.5366123  43.3264518  35.9418986  30.5283573  43.8033890
  36.9052212  28.6605864  43.5090519  37.7774544  29.1498936  42.9903368
  37.1654492  28.4167004  44.5859428  36.6809121  27.7861224  42.9483488
  35.5248659  29.7907842  41.9434522  34.9602335  30.5396184  41.7553817
  34.5636018  28.4307299  45.3519226  34.7573314  27.2508501  45.6141103
  34.3850797  29.3589732  46.3169848  34.2397130  30.3358790  46.0925510
  34.3625387  28.9472792  47.6847274  35.3865271  28.6140063  47.8875147
  34.3193676  30.1741158  48.5958681  33.5307718  30.7978664  48.2395325
  34.0996987  29.8946004  49.6647421  35.5797359  31.0063717  48.6087206
  35.9375193  31.1898664  47.6217896  35.4214757  31.9972117  49.0469813
  37.0660034  30.0971302  49.2302879  38.4644109  30.8586420  48.3648122
  38.4891788  31.9604335  48.5353810  39.3527395  30.5645619  48.9244220
  38.5239182  30.5611207  47.2572715  33.3373954  27.8459665  48.0663077
  33.6060606  27.0172596  48.9470925  32.1595885  27.7460419  47.4514755
  32.0313717  28.4447911  46.7547916  31.2023741  26.6490034  47.6366708
  31.3100891  26.2894765  48.7094542  29.7736719  27.0318489  47.3231772
  29.6646388  27.3382547  46.2996147  29.1621665  26.1286959  47.3884587
  29.3197834  28.0809315  48.3182421  29.6068817  27.7681616  49.3706414
  29.8404179  29.0180388  48.1325415  27.8182138  28.3023843  48.1270852
  27.7338580  28.9447683  47.2809564  27.2734439  27.3858539  47.9739101
  27.2852137  29.1168111  49.2730004  27.8902383  29.3139296  50.0954808
  26.0972803  29.5394487  49.5221435  24.9862921  29.2017735  48.9526158
  25.0200357  28.4878971  48.2658492  24.2048310  29.7663253  49.1272207
  26.0914273  30.4149664  50.4644305  26.9973850  30.5984076  50.9234080
  25.2884264  30.8397475  50.7742731  31.5412189  25.4183271  46.7008481
  31.0532719  24.3003016  46.9729770  32.3909618  25.5176207  45.7114260
  32.7356971  26.4666007  45.4968310  33.1914268  24.4099735  45.1758591
  32.4644556  23.5666690  45.0276168  33.8213217  24.7353750  43.8325660
  34.5993091  25.4505763  44.0846204  34.2520056  23.7976110  43.4154997
  32.8215685  25.3185618  42.8079393  32.5317803  26.2541357  43.1285600
  33.4991313  25.5153249  41.4716603  32.7921491  25.9695040  40.7502238
  34.2215808  26.2457805  41.6298346  33.8935421  24.5870976  41.0372817
  31.6262803  24.3841636  42.6138366  30.9647730  24.4460774  43.4519799
  31.0945581  24.5927517  41.6840289  31.8328231  23.3908075  42.3884615
  34.2267792  23.8830301  46.2519642  34.5825012  22.6632656  46.1605606
  34.7172234  24.6499431  47.2526789  34.4858183  25.6392209  47.2252093
  35.8373716  24.3255993  48.1359472  36.3371051  23.4771072  47.6542245
  36.8617927  25.5310476  48.1895085  36.3899051  26.3688836  48.7123130
  37.6290292  25.2696944  48.8678652  37.5696085  25.8333007  46.8320364
  36.8591116  26.1483387  46.1013932  38.5648713  26.9930237  47.0947435
  38.7813772  27.5224270  46.0853561  38.0096074  27.6701364  47.7969167
  39.4379115  26.6533935  47.5967567  38.4853281  24.6491969  46.3850740
  37.8750751  23.8470229  45.9413109  39.2569897  25.0679724  45.7195937
  39.0252825  24.2522494  47.2397025  35.5283709  23.7648332  49.5810085
  36.3950867  23.4206079  50.3422063  34.2615378  23.7832051  50.0425279
  33.5338741  24.1653352  49.4045417  33.8024784  23.8978988  51.4549433
  34.5807738  23.5741790  52.1704462  33.5189523  25.3284115  51.9082195
  33.3347970  25.2661282  52.9893077  34.4755619  25.8844705  51.7576525
  32.4420501  26.0104610  51.2359002  32.9655838  26.5239943  50.5849260
  32.6175649  22.9619565  51.8812350  32.5359027  22.4513707  53.0043215
  31.5633904  22.6967054  51.1198480  31.3582684  23.3241841  49.8141506
  32.1246679  23.0875149  49.0625653  31.1515578  24.4077895  49.9267497
  30.1547953  22.6140226  49.2820322  30.4942025  21.9061898  48.4370983
  29.5628621  23.4070144  48.8756911  29.4763410  21.8963748  50.4223959
  28.9829168  20.9652696  50.1840340  28.7719773  22.6598646  50.8920765
  30.6256705  21.6160097  51.3864713  30.2497472  21.7047353  52.4061750
  31.2138839  20.2335286  51.2130987  32.0602713  19.9792124  50.3576787
  30.7513286  19.1992340  51.9976443  30.1543053  19.4284082  52.8220925
  31.0833062  17.7316222  51.7313798  32.1894797  17.7230466  51.5705753
  30.8680496  16.9099349  53.0029811  31.2735083  15.9088811  52.8898145
  31.6701420  17.4476450  54.1811324  31.6914483  16.7563622  54.9844351
  32.6778469  17.6182913  53.8372062  31.2182980  18.2966323  54.5212794
  29.4090926  16.7383396  53.3899056  28.9857740  17.6449088  53.9351200
  28.7007867  16.6492723  52.6096192  29.3778905  15.8171915  53.9854109
  30.3163831  17.1412463  50.5473884  30.6282665  16.0794305  49.9535707
  29.2377308  17.8044174  50.1164369  28.9568144  18.6394290  50.6535939
  28.6508713  17.6360845  48.7960506  29.4275785  17.1680780  48.1363084
  27.4913457  16.6138812  48.9682792  27.8482934  15.7637079  49.5529839
  26.7509213  17.1158813  49.4918630  26.8218393  15.8873039  47.7953996
  27.5964113  15.4813596  47.1771706  26.2997524  14.9952497  48.1272794
  25.8882779  16.8154914  47.0338533  26.4086717  17.7157096  46.8478453
  25.6732166  16.4449391  46.0244008  24.6439272  17.0064730  47.7893008
  24.5099760  16.4457650  48.5463077  23.7109438  17.8730984  47.5599804
  23.7304136  18.7243729  46.5791690  24.3898752  18.5469989  45.8399448
  22.9095517  19.3128630  46.4916166  22.6886117  17.9557846  48.3555433
  22.6971714  17.2610873  49.1358570  21.9721364  18.6693656  48.2860481
  28.2064566  18.9387098  48.1439407  27.3920142  19.6176466  48.7481422
  28.8145552  19.2982419  47.0309307  29.4506436  18.6867665  46.5721921
  28.6374212  20.5929931  46.2485364  29.0315227  21.3331321  46.9166249
  29.4597648  20.6362205  44.9418271  29.2473400  19.8081549  44.2849184
  29.2352295  21.7656959  44.0279714  29.2597915  22.6693578  44.6585018
  29.9586922  21.7246931  43.2410068  28.2202882  21.8446816  43.6936656
  30.9736458  20.6747076  45.2592726  31.2096468  21.6488602  45.6458475
  31.1437691  19.8610752  45.9386616  31.4915502  20.5912968  44.3091068
  27.1933996  20.8814557  45.9791839  26.5371032  19.9433087  45.4203501
  26.6135359  22.0885974  46.2194738  27.0100857  23.1660158  47.1033379
  27.6548222  23.9247768  46.5674196  27.5586653  22.7096515  47.9310010
  25.6168121  23.8054522  47.4531142  25.7693191  24.8090145  47.8866013
  24.9608939  23.1317768  48.1047172  24.9311775  23.7919712  46.1619046
  25.3056149  24.4813572  45.4317272  23.8755584  23.7673789  46.2799144
  25.2290686  22.3112956  45.7596664  24.5065700  21.6992022  46.3347470
  24.8675662  22.0221370  44.2589616  25.7517650  22.0766897  43.4127073
  23.5685496  21.7053077  44.0184691  22.9319744  21.7957058  44.7772944
  23.0893405  21.0285809  42.8443871  23.9741205  20.6144566  42.4280103
  22.1276506  19.8929222  43.1604164  22.5980294  19.3078280  43.8890367
  21.2157470  20.2048614  43.6633746  21.7864576  19.0891491  41.9962640
  21.8710923  19.4013321  40.8273695  21.3165921  17.8788645  42.2793274
  20.8600136  17.3214434  41.5999781  21.1520713  17.6756231  43.2500859
  22.4561877  21.9928440  41.8100519  21.3675092  22.4300788  42.0053968
  23.1219548  22.2601625  40.6864258  24.0077018  21.8321361  40.5816618
  22.5127287  23.1167982  39.6209908  21.4598463  23.2908631  39.7398986
  23.1816604  24.5108249  39.7237797  24.2121644  24.4674197  39.4311305
  22.7087321  25.1880897  38.9749396  23.0429544  25.2596691  41.0564142
  24.1528941  25.1923776  41.9029555  25.0767675  24.6480403  41.6603977
  24.0371652  25.7444066  43.1802606  24.8331850  25.6627776  43.8575076
  22.9487421  26.5878944  43.5155985  22.9782421  27.1988245  44.7898694
  22.3465408  27.9945021  44.8177829  21.8794902  26.7409820  42.5893866
  20.9505503  27.2903214  42.8212858  21.9054665  26.0042237  41.3578428
  21.1354775  26.1277348  40.6557067  22.7654493  22.5072472  38.1995266
  23.8822212  22.1739400  37.8736902  21.7293473  22.5209064  37.3691895
  20.8341013  22.8068257  37.7611508  21.7723923  22.1498711  35.9329779
  22.7203138  21.5953211  35.7395472  20.6856628  21.0411779  35.7809506
  20.8034702  20.4747377  34.8433242  20.8226490  20.2867198  36.5323494
  19.2224625  21.5937277  35.8813060  18.9775281  22.7349431  36.2489467
  18.2630326  20.8310147  35.5472347  17.3424893  21.1703319  35.8744763
  18.4333079  19.8648702  35.2020144  21.7720922  23.2519013  34.8901385
  21.7006225  22.9107969  33.6816177  21.7450228  24.4955664  35.3448198
  21.7151070  24.5938772  36.3719382  22.1456528  25.6655235  34.5151821
  22.8300948  25.2985703  33.7791670  20.9661228  26.3154757  33.7799529
  20.5541737  25.6484595  33.0036922  20.2292573  26.5490500  34.5450394
  21.2302106  27.6671926  33.0707974  21.9228927  28.2431753  33.8024716
  22.0031633  27.5946066  31.6994773  21.4308873  27.1764704  30.8423742
  22.3694507  28.5674074  31.4278050  22.8184840  26.9057510  31.8591683
  19.9453572  28.4763677  32.8623294  19.4999312  28.6917797  33.8631727
  20.1831340  29.4247067  32.4592803  19.3137846  27.9675959  32.0964547
  23.0148864  26.6638958  35.3767099  22.6181258  27.2238383  36.4124853
  24.1670278  27.0252040  34.8146884  24.2945532  26.6084599  33.9065193
  25.1032810  28.0817897  35.2612989  24.6535958  28.5932088  36.1868295
  26.3372778  27.3552087  35.8452402  27.0214599  27.1049659  35.0208344
  26.9604655  28.3642833  36.8959619  26.2336805  28.7426951  37.5562684
  27.8267741  27.9242108  37.4593136  27.4520420  29.2286022  36.4867559
  26.0795722  26.0293328  36.6277307  26.8034434  25.9002865  37.4053933
  25.0992606  25.9413525  37.0539118  26.2436560  24.6513685  35.9098462
  27.2004168  24.6529005  35.4116566  26.1153644  23.8410024  36.6287963
  25.4228224  24.5016089  35.1971333  25.3469194  29.1926582  34.1871625
  25.6131406  28.8353357  33.0333876  25.1105447  30.4851659  34.5282953
  24.9350107  30.6686649  35.5128079  25.2319886  31.7066360  33.6657989
  25.6540774  31.3794887  32.7011336  23.8849524  32.4090404  33.5058746
  23.6861363  32.8865249  34.5109773  24.0477832  33.4341013  32.3213685
  24.0190711  32.9414671  31.2931910  23.0781255  33.9262388  32.2302564
  24.9404792  34.0804401  32.4639837  22.7184715  31.4726195  33.1517842
  22.6882086  31.2120358  32.0701435  22.7404922  30.6116169  33.7659304
  21.4304749  32.0972941  33.5217160  20.4950505  31.5376704  33.4458370
  21.3731560  32.2382410  34.6069386  21.3687057  33.0519872  32.9977714
  26.3527440  32.6117967  34.1902359  26.2613617  33.3673764  35.2004699
  27.4715785  32.5808632  33.4340096  27.4318587  31.9472977  32.6689476
  28.6351798  33.4147959  33.7599613  28.5638647  33.6530460  34.8274822
  29.9444872  32.5420469  33.7230525  29.9068282  31.6424477  34.4159075
  30.1472037  32.3242268  32.6135845  31.2426294  33.2616691  34.1379200
  31.2324909  34.1266076  33.5491805  31.2507806  33.6610867  35.1125526
  32.9052692  32.6100612  33.9841401  33.0276607  31.6292996  35.5530059
  33.3121632  32.2932318  36.3579979  32.0299131  31.2478227  35.7890242
  33.7123239  30.7901605  35.3866061  28.6812005  34.7456718  33.0625963
  29.0647195  34.8209945  31.8947586  28.2879917  35.8690795  33.7461089
  28.0878697  35.7344965  34.7119740  28.5113235  37.2094185  33.2604353
  28.3136938  37.2287193  32.1874711  27.4465908  38.1527169  33.8415985
  26.4238350  37.6827379  33.8115782  27.6153456  38.2252493  34.9428424
  27.3693982  39.4467643  33.1146571  27.8232090  39.5600869  31.9366038
  26.8287809  40.4385433  33.6588377  29.9366868  37.6955139  33.4408720
  30.5711310  37.3618596  34.4422704  30.4560162  38.5864203  32.5998682
  29.9257801  38.9563846  31.8667244  31.8639474  38.8827558  32.4854015
  31.9828140  39.3440887  31.4916516  32.2071979  39.9121902  33.5853327
  32.2460657  39.4419163  34.5333061  33.2633216  40.1689281  33.4307332
  31.3474362  41.2097900  33.6216818  30.4623855  41.2126230  34.2823954
  31.8225098  42.0431249  34.0360129  30.7547237  41.7890236  32.2237164
  31.2868648  41.5772612  31.0578716  29.6173145  42.3652251  32.4482205
  32.8307406  37.6903808  32.4432181  33.8866181  37.7145712  32.9703157
  32.4702293  36.7156935  31.6287755  31.4897099  36.7432756  31.4121002
  33.2728281  35.5001078  31.5552353  33.4164406  35.2379629  32.5618552
  32.4808351  34.3147709  30.9194981  31.6625673  33.9152662  31.5148218
  32.1709790  34.6276799  29.8859941  33.2296658  33.5109507  30.7221454
  34.7112862  35.5898666  31.0222113  35.3642803  34.5827493  30.8797424
  35.1914684  36.7792573  30.6706594  34.5835466  37.5535906  30.9220871
  36.6041717  37.0956119  30.2226194  37.0136222  36.2290492  29.7761356
  36.5670495  38.2489970  29.2870960  37.5153761  38.2807628  28.7581317
  35.8408006  38.0447401  28.5487591  36.0817271  39.6095362  29.9030056
  34.7210340  39.9092745  30.1781144  34.6963481  41.1768846  30.5540585
  33.7832958  41.7441926  30.7563903  35.9437382  41.7021252  30.7278514
  36.1489501  42.6314903  31.0985207  36.7942737  40.7510544  30.2022479
  37.8250052  40.8959323  30.1108383  37.4787492  37.4322018  31.3396572
  38.6761022  37.4799207  31.1994612  36.9249690  37.5018434  32.6175161
  35.8983913  37.2766771  32.6912526  37.7470958  37.7658115  33.7810255
  38.2057431  38.7789974  33.5407167  36.9048895  37.8390469  35.0230545
  36.0687538  38.4802078  34.7177380  36.5324746  36.8385760  35.2426091
  37.4580461  38.4445548  36.2794168  36.7009089  38.5115588  37.4702685
  35.7437846  38.0167831  37.5699831  37.0950113  39.2175202  38.6148695
  36.3772989  39.3203729  39.4066241  38.4271643  39.7327108  38.6910341
  38.7923154  40.1816577  39.5738567  39.1731271  39.6836827  37.5147766
  40.1721761  40.0652828  37.6396728  38.7793430  39.0470013  36.3080185
  39.5106933  39.1307381  35.5058487  38.9476273  36.7701401  34.0064285
  38.6322502  35.5989047  33.9979015  40.1847645  37.2110125  33.9208731
  40.2648588  38.1990222  33.7041026  41.4497286  36.3753169  33.9418415
  41.1466517  35.4372736  33.4612668  42.7095644  37.0484884  33.2292249
  43.5842345  36.4508854  33.4026091  42.3692939  37.1595746  31.7062084
  41.6938020  36.3697024  31.4249856  42.0816090  38.1222049  31.4515990
  43.2202870  37.1195716  31.0408935  42.8832125  38.3398004  33.7735501
  42.1047941  38.8701609  33.5848203  41.9517253  35.8479306  35.3646581
  43.0776441  35.3617434  35.4894251  41.0761033  36.0539338  36.4217067
  40.1673461  36.3409631  36.1792374  41.4451918  35.6103737  37.7774213
  42.5201938  35.8329273  37.8232454  40.7058737  36.4196230  38.8563768
  39.6984485  36.6099439  38.5482070  40.7179022  35.8552836  39.7912516
  41.3951146  37.7820406  39.1411841  42.2667205  38.2591067  38.3442575
  41.2251715  38.3269559  40.2628083  41.2849210  34.0867199  38.0245904
  40.4376892  33.4611949  37.3882548  42.1653621  33.4959551  38.8344291
  43.1168903  34.0515892  39.7672198  42.5977385  34.7509572  40.4221648
  44.0220313  34.5858242  39.4064149  43.6103121  32.9249829  40.6893982
  43.0417489  32.9394579  41.6352015  44.6559270  32.9917757  40.7694372
  43.3394762  31.6611990  39.9239573  43.1115225  30.8046684  40.5610360
  44.2015257  31.4791542  39.2757707  42.1848009  32.0125582  38.9868665
  42.4411792  31.6406585  38.0461001  40.9277080  31.2547866  39.4401916
  40.6107439  30.1202501  39.0057763  40.1193185  31.9200667  40.2061845
  40.3723548  32.9057780  40.4303624  38.7556543  31.4510693  40.5528487
  38.7783797  30.4492733  40.8849734  38.2952827  32.3359410  41.6799997
  37.2324436  32.1889444  41.8902739  38.7891784  32.1459074  42.7323709
  38.3896129  33.4128639  41.3024767  37.8053718  31.5354466  39.3509829
  36.9312438  30.6302427  39.2041645  37.9062170  32.5637950  38.5046732
  38.7133497  33.1406562  38.5527391  37.0886349  32.6665881  37.2656791
  36.0394351  32.5689937  37.5179258  37.3772836  34.0598784  36.6839961
  38.3868246  34.1909800  36.3511432  36.8673576  34.2031428  35.7324414
  37.1906417  35.1608134  37.5282551  36.2773231  35.5537105  37.5053841
  37.4745686  31.6007621  36.2458228  36.5866189  30.8721514  35.8304995
  38.8114556  31.4268227  36.0147384  39.3976295  32.1388986  36.4967753
  39.3613149  30.2824803  35.2936948  39.1509388  30.2830996  34.2321470
  40.9278660  30.3618015  35.3320880  41.2014954  30.4199340  36.4061514
  41.5638358  29.0562358  34.6074435  41.6023382  29.1345906  33.5295218
  42.5822623  29.0381210  35.0144088  41.0573150  28.1884276  34.9272092
  41.4852276  31.6074674  34.5835390  41.5227079  31.4373421  33.4832774
  40.8208072  32.4980722  34.8568974  42.9100545  31.9215382  34.9995126
  42.9298072  32.1940979  36.0241560  43.5386869  31.1256284  34.6937816
  43.3177559  32.7484560  34.4426827  38.7653600  28.9639374  35.8180610
  38.3443489  28.1261419  35.0007837  38.8115324  28.7305456  37.1491361
  39.4035317  29.3007826  37.8331709  38.4385309  27.4563968  37.7185990
  38.8649686  26.6687533  37.1384250  38.9260813  27.3043783  39.1696868
  38.4057394  28.0150897  39.7981715  38.6576073  26.2983814  39.4961006
  40.0250272  27.4010893  39.1135850  36.8989320  27.3150293  37.5402519
  36.4423493  26.2311464  37.2544333  36.0751244  28.3374305  37.6453942
  36.4926918  29.2308955  37.7926745  34.6496359  28.2248779  37.3602924
  34.2175247  27.3590287  37.8434349  33.9155363  29.4219138  38.0936127
  33.9614426  29.2863077  39.1286217  34.3756924  30.3249333  37.7490414
  32.9119062  29.4408985  37.8283803  34.2432291  27.9786353  35.8685471
  33.3100777  27.1974045  35.6711243  35.0421684  28.4699712  34.8565729
  35.7635939  29.1145177  35.1161916  34.9840371  28.0563232  33.4715052
  33.9700140  28.1362069  33.1472326  35.8198237  28.9620082  32.5535019
  36.9287781  29.0269410  32.8493804  35.7427510  28.6579635  31.5372806
  35.2833942  30.4126168  32.5903170  34.1954025  30.3482668  32.3632260
  35.3948141  30.8429716  33.6155567  36.0673992  31.2893842  31.6256866
  35.9806164  30.8829144  30.6293722  35.6107925  32.2815932  31.5990107
  37.4694815  31.4898676  32.0163016  38.2309762  30.7355953  31.7873060
  37.9267269  32.5155060  32.6416211  37.3042589  33.6128015  32.8473000
  36.4343561  33.7197390  32.3414483  37.8014652  34.3702468  33.1619857
  39.2553508  32.6387963  32.7805869  39.8075134  31.9569517  32.2185185
  39.7048877  33.5010694  33.0621419  35.3768854  26.6104745  33.2617802
  34.6630452  25.8578654  32.5383453  36.3462688  26.0795562  34.0236277
  36.8904879  26.6814598  34.6161937  36.7013311  24.6625365  34.1355885
  36.8006996  24.2676589  33.1106394  37.6532399  24.5515924  34.6359314
  35.5745260  23.7536449  34.7488186  35.0848143  22.8454092  34.1107575
  34.9528436  24.1487345  35.8588931  35.4373822  24.8591472  36.3753442
  33.7920049  23.4330439  36.5098264  34.0441158  22.3748951  36.7375119
  33.4525412  24.0860550  37.8466381  34.3792365  24.0022697  38.4735649
  33.2569819  25.1180732  37.6673940  32.2649905  23.4062632  38.5220866
  32.4203422  22.3712761  39.4348945  33.4881578  22.0029223  39.6154536
  31.3423738  21.7312164  40.0795421  31.4888367  20.9805457  40.8036172
  30.0658247  22.1576831  39.7084739  29.0178667  21.4769752  40.3026045
  29.2378381  20.5773692  40.6102489  29.8622680  23.2152984  38.7665086
  28.8966155  23.4694681  38.4676251  30.9617685  23.8570312  38.2264452
  30.8129998  24.7095390  37.5756125  32.6170319  23.3514364  35.5937040
  32.1144770  22.2273928  35.3462665  32.1578854  24.4744858  35.0174915
  32.4491548  25.4185291  35.4036159  31.0423079  24.5327911  34.0243685
  30.1527078  24.0727266  34.5152214  30.7360088  26.0573130  33.6637689
  31.6531693  26.5383887  33.3257026  29.6717413  26.0681585  32.5736493
  29.1604584  27.0612638  32.5091198  30.1475246  25.9302688  31.5546064
  28.9452800  25.2520899  32.7697204  30.0876948  26.7647544  34.8716548
  29.0618937  26.3470314  35.0674208  30.6510793  26.5922553  35.7628136
  29.9428961  28.2477151  34.7233859  29.7224863  28.7142364  35.6381033
  30.8696208  28.7402763  34.3560882  29.0845461  28.4224720  34.0303211
  31.4809892  23.6059344  32.9127478  30.6853944  22.7222070  32.6124329
  32.6674181  23.7979384  32.3535589  33.2697069  24.4889931  32.6441398
  33.1798291  22.8861169  31.3106808  32.4373992  23.1664171  30.5200781
  34.5195434  23.4074754  30.7498523  34.4039307  24.3784061  30.3869462
  35.1991328  23.5558790  31.5452007  35.0611443  22.5333957  29.7878807
  35.7057978  21.8715156  30.1027377  33.1329446  21.4021071  31.5585093
  32.8272520  20.6398987  30.6294168  33.4883568  20.9579791  32.7600780
  33.9658710  21.6449712  33.3918307  33.4878206  19.5332661  33.1840445
  33.9045881  18.8746491  32.3723084  34.3674668  19.2830708  34.4599368
  33.9893831  19.9425223  35.2851515  34.4738433  17.7909408  34.9618269
  34.9718479  17.2549655  34.1548855  35.1354188  17.6290136  35.8209779
  33.5517015  17.3433338  35.2865334  35.7341389  19.6923985  34.2848487
  35.9835563  19.0960326  33.5456220  32.1157240  18.9714527  33.4228818
  31.7882908  17.9274297  32.9833268  31.2188132  19.8028752  33.9712681
  31.5727822  20.6353507  34.4135393  29.8039902  19.3451170  34.1527749
  29.8963906  18.3494845  34.5391984  29.0784297  20.2748911  35.2010396
  28.9075230  21.2533916  34.7486093  28.0542732  19.7340864  35.2425628
  29.8719678  20.2258897  36.5558318  30.8812018  20.4746395  36.3880216
  29.4501342  21.0707059  37.2199220  29.6001321  18.8999559  37.3385983
  29.8138481  18.0398143  36.6481864  30.2076921  18.7482007  38.1974041
  28.2825149  18.9685013  37.9633856  27.7576832  19.8121254  38.0221160
  27.6440189  17.9969218  38.5478805  28.0949855  16.7707950  38.7108937
  29.1121702  16.5948632  38.5668591  27.5558210  16.0480096  39.1280174
  26.4391811  18.2342034  38.9936391  26.0905643  19.1682577  39.0364947
  25.9500529  17.4697399  39.4600794  29.0345986  19.2543661  32.8275455
  28.1608646  18.4319047  32.6047265  29.3999977  20.1068429  31.8437409
  30.1360498  20.7657546  32.0808074  29.0331185  19.9743773  30.4110724
  28.0329130  19.7852194  30.3905201  29.4510007  21.2786249  29.6886829
  30.3619342  21.7283695  30.2254264  29.6546874  21.1684935  28.1506645
  30.0764680  22.1382310  27.7908019  30.3963812  20.4330505  27.9372019
  28.7655314  20.7928259  27.6445010  28.2343541  22.2267758  29.8823738
  28.4199366  23.2340127  29.4517810  27.3752441  21.7982176  29.4379108
  28.0671769  22.4428664  30.9051720  29.6005082  18.7112837  29.7190812
  28.8700669  17.9991302  29.0521597  30.9003536  18.4207848  29.9797299
  31.4925598  18.9980005  30.4868913  31.4373742  17.1606146  29.4478244
  31.2906186  17.1287115  28.4388852  32.9069342  17.0815339  29.7543233
  33.4471592  17.8990913  29.4049397  32.8813318  16.9801339  30.8219463
  33.7299328  15.8692573  29.2464894  33.3206038  14.9652393  29.7183844
  33.5598538  15.7106163  28.1848556  35.2387236  15.8757932  29.5933194
  35.6116092  16.0691493  30.7291434  36.0771063  15.4918480  28.7365219
  30.6621484  15.9626564  30.0208655  30.1718959  15.1112487  29.2450632
  30.4365874  15.8775987  31.3205919  30.8900925  16.5270661  31.9223678
  29.5489749  14.8473975  31.8424587  29.9018860  13.8801029  31.6152894
  29.6263900  14.8891678  33.3918275  29.2087391  15.8278282  33.7313292
  28.9791979  14.0639687  33.8039204  30.9860355  14.8777041  33.9886421
  31.1993648  13.8414194  34.2005835  31.7258305  15.3040681  33.3658762
  31.0605309  15.6670316  35.6541248  30.3832322  14.1979552  36.5594315
  31.1771558  13.4323798  36.6899215  30.0146703  14.5308325  37.4889487
  29.6007099  13.6004325  35.9897687  28.0618169  14.9690828  31.5157737
  27.3439344  14.0547561  31.8376864  27.5795058  15.9612310  30.8108879
  28.2227967  16.7002210  30.4669174  26.1427647  16.1301630  30.5113612
  26.0947828  17.1571714  29.9810088  25.7731308  15.2951714  29.9173293
  25.2934649  16.3975722  31.8055673  24.0855876  16.5536831  31.7238410
  25.9649262  16.7077718  32.9784417  26.9459910  16.6360532  33.0295927
  25.2421397  16.9811315  34.2341755  24.4333717  16.1974427  34.3073335
  26.1053489  16.8944563  35.4777511  26.9633131  17.4507957  35.3030391
  25.6326113  17.4085105  36.3113023  26.5649264  15.4175293  35.7206047
  26.9474606  14.9537433  34.8008145  27.3607233  15.4797687  36.4327737
  25.5086586  14.4455328  36.2292080  25.9446032  13.3037885  36.5922729
  24.3355952  14.8238825  36.4825758  24.6181120  18.4019599  34.2119121
  23.7135472  18.6535108  35.0306107  24.9443303  19.2997216  33.3028516
  25.7295245  19.0321875  32.6589421  24.4136659  20.5982710  33.1536910
  23.3536025  20.5156221  33.3699207  25.1757004  21.4245976  34.1702199
  26.1652453  21.0040291  34.2535216  25.2182096  22.4547655  33.9487792
  24.7548185  21.3113562  35.1484266  24.6421123  21.2099143  31.7887613
  25.3438164  20.6206556  30.9490930  23.9675260  22.2998500  31.5112979
  23.2555940  22.6315890  32.1709586  24.1411367  23.2202208  30.4314703
  24.7336171  22.7544385  29.5808316  22.7870577  23.3804775  29.8288699
  22.1304030  24.0983250  30.4514009  22.8685887  23.8629361  28.8860044
  22.3213052  22.4379669  29.6821244  24.7713606  24.5746224  31.0082260
  24.5684721  24.9529644  32.1395302  25.4836043  25.2940781  30.1483286
  25.5279300  24.8656343  29.2518706  26.1796240  26.4948708  30.4806045
  25.8189093  26.7680595  31.4629021  27.2414921  26.2927356  30.7020462
  25.9907998  27.5712577  29.4238777  25.9343019  27.2255204  28.2251904
  26.2240567  28.7950592  29.8792388  26.4238523  28.8756121  30.8741784
  26.2423888  29.9500221  29.0402264  26.5149509  29.7483851  28.0522400
  24.9019803  30.6882650  29.0899364  24.5338899  30.5862050  30.0957808
  24.9384655  32.1473339  28.6131157  25.7222492  32.6881369  29.0989911
  25.0885387  32.1028179  27.5479032  23.9194717  32.6378869  28.7823606
  23.7516803  30.0094902  28.2250167  24.0553719  30.0606214  27.1832089
  23.6361819  29.0097756  28.5694521  22.2587844  30.5247162  28.3607574
  22.2426633  31.6125333  28.4597622  21.6807011  30.1346727  27.4516876
  21.8457328  30.1166081  29.3293790  27.3747069  30.8466753  29.5708757
  27.4132065  31.1953337  30.7467325  28.2679898  31.3227507  28.6968368
  28.2321369  31.1251269  27.7158795  29.1827868  32.4317908  29.0419724
  29.1879617  32.6732212  30.0961065  30.5484969  32.0090985  28.4863798
  30.4993554  31.6057583  27.4649845  31.1890500  32.8951566  28.5435605
  31.3470637  30.9557214  29.2807958  30.9145197  30.3598427  30.5035821
  29.8858459  30.3893330  30.9257649  31.7780916  29.4783885  31.1105311
  31.4576934  29.0971142  32.0106566  32.8782892  28.9650435  30.4560893
  33.4736931  28.1388663  30.8912532  33.3005468  29.5652293  29.2791822
  34.2545228  29.2713561  28.8541430  32.6211781  30.6595458  28.8165699
  33.0950642  31.1733662  28.0296669  28.7064441  33.7032904  28.2534994
  28.6598261  33.6117906  27.0091365  28.5567440  34.8472880  29.0129260
  28.6305411  34.9003205  30.0174413  28.4402379  36.1828332  28.3690235
  28.2018283  36.1041518  27.3183553  27.2108556  36.8592200  28.9995078
  27.3996950  37.0356884  30.0399204  27.0951283  37.9129135  28.5869071
  25.9705330  35.9924586  29.0279927  25.7921858  35.5956753  28.0386581
  26.2677796  35.2240046  29.7248139  24.4322203  36.7465473  29.7417990
  25.0614258  37.8956877  31.0512744  25.6935771  37.3197679  31.6614781
  25.6474957  38.7178882  30.6143413  24.2349465  38.3531225  31.5688012
  29.6952483  37.0210906  28.5063182  30.0490714  37.4402314  29.5711073
  30.3278215  37.3114629  27.4148641  29.8347449  37.1713306  26.5393279
  31.4571846  38.2962070  27.3856596  31.0760709  39.1301209  27.9589763
  32.6742927  37.7774917  28.0914954  32.4973408  37.8657379  29.1522690
  33.1641092  36.4251608  27.6482838  33.5102359  36.5043179  26.5926118
  33.9875108  36.1034601  28.2935799  32.4618626  35.5962412  27.7517752
  33.6595294  38.7542071  27.8491021  33.9311447  39.1355551  28.6927506
  31.7442031  38.6661416  25.9247253  31.5740441  37.8009415  25.0390951
  32.1819639  39.8861922  25.6147745  32.1893062  40.4966523  26.3990330
  32.5331637  40.3542716  24.2937894  31.8525769  39.9663223  23.5325350
  32.4703634  41.8561886  24.3634029  32.4088506  42.2520393  23.3789571
  31.5562742  42.1190708  24.8959413  33.3216189  42.2801687  24.8630577
  33.9710858  39.9112708  23.8007884  34.3025046  40.1183621  22.6186441
  34.6888835  39.2280875  24.6761578  34.1610021  39.1533636  25.5820017
  36.1373049  38.9363044  24.6461601  36.4783035  38.7657258  23.6400435
  36.9461670  40.0447031  25.3107963  37.9539079  39.6404715  25.3882237
  37.0867588  41.2344592  24.4421609  37.3021025  40.9358348  23.4230870
  36.1844217  41.8119572  24.5357300  37.9270091  41.9588997  24.7614773
  36.3564295  40.3887910  26.4804891  36.4939005  39.6672017  27.0969894
  36.3176747  37.5500566  25.3531105  36.8889230  37.6374482  26.4335536
  35.8042788  36.4089117  24.8569974  34.9208289  36.3475973  23.7677172
  35.2975377  36.7319397  22.7447888  33.9811407  36.7600007  24.0036825
  34.6818798  34.8532399  23.4763386  35.4049234  34.3834291  22.7980762
  33.6757896  34.6824054  23.1866366  34.9159547  34.1764920  24.8685319
  35.3791224  33.2206622  24.6830551  34.0090340  34.0370474  25.3461554
  35.8389232  35.1789887  25.6052529  35.3932419  35.2568825  26.5946898
  37.3223510  34.6835954  25.6196958  38.0717646  35.0194733  24.7629222
  37.7820008  33.9104730  26.6242454  36.9801248  33.2769957  27.7144532
  36.4174289  32.3971539  27.3850406  36.2885541  34.0050144  28.1896661
  37.9877740  32.9432330  28.7848653  37.5533686  32.2722382  29.4831011
  38.3866076  33.7828404  29.3243783  39.0686084  32.3023848  27.9462887
  38.7717060  31.2383269  27.7240925  39.9882827  32.2765029  28.4148300
  39.0881557  33.3057126  26.7449568  39.7848339  34.1053688  27.0480254
  39.5139912  32.7797234  25.4112690  38.7272871  32.3078486  24.6180024
  40.7298057  33.0223717  25.0572881  41.2653170  33.6166158  25.6088655
  41.3723442  32.7332531  23.7601153  42.4097361  32.7957582  23.8923384
  41.1572812  31.7728268  23.3406508  41.1746168  33.8777112  22.6908932
  41.8679967  33.8390999  21.6844147  40.2561415  34.7840912  22.8809712
  39.6478736  34.7995118  23.7140882  40.1248275  35.9165167  21.9736359
  39.8144133  35.4239518  21.0025999  38.9721626  36.9020608  22.4476505
  38.0562220  36.3903109  22.3723773  39.1458250  37.2436582  23.4966550
  38.7644819  38.0118326  21.5558747  39.3217007  38.7830286  21.8155099
  41.3747143  36.7290394  21.8230828  42.0986555  36.9570709  22.7868581
  41.5980502  37.2377086  20.5664667  40.9077063  37.0607737  19.8495684
  42.8391988  37.9190673  20.1024891  43.4136754  38.2105508  20.9932371
  43.6403538  36.8886513  19.3816035  43.3799087  35.9357334  19.8769241
  43.3200472  36.9054887  18.3317380  45.1111545  37.2523190  19.4389931
  45.3232663  38.2160248  18.9791091  45.4956416  37.3812659  20.4754883
  45.8153468  36.1521555  18.6219284  45.4934742  36.1146471  17.5619364
  46.8889002  36.4564468  18.5461987  45.8362379  34.8469721  19.2485389
  45.8635065  34.7477640  20.2657352  45.9850433  33.6929867  18.6339802
  46.1724239  32.6142362  19.2694066  46.2641716  32.6965787  20.3108520
  46.5134889  31.8147191  18.7195841  45.8615702  33.5678602  17.3321251
  45.9052482  34.3371287  16.6949171  45.9934799  32.7074990  16.9138403
  42.6564486  39.1012634  19.1514231  43.1362156  39.2587478  18.0242486
  41.8678280  40.0720492  19.7027519  41.3278605  39.9516240  20.6055588
  41.4059549  41.2768763  19.0389631  42.1340138  41.4289597  18.2863584
  40.0286916  40.9752643  18.3998451  40.1719493  40.2748777  17.5691634
  39.4732162  40.3995473  19.1449139  39.3721020  42.2446609  17.9044012
  40.0056757  43.0693420  17.1655077  38.2645727  42.4527329  18.3356358
  41.5185376  42.5405651  19.9891755  40.7283354  42.6093872  20.9380366
  42.3878583  43.5012398  19.7515731  43.5681537  43.4624665  18.8838786
  43.4525929  43.9247784  17.9277501  44.0353134  42.4991992  18.7751989
  44.5070838  44.3663714  19.6151111  45.2957827  44.8496534  19.0529110
  44.9980089  43.8799722  20.4020994  43.6109102  45.4509534  20.2545600
  43.4172172  46.2818716  19.5305721  44.0459187  45.8593023  21.0661274
  42.3358306  44.7357264  20.5966853  42.3814610  44.4208660  21.6397268
  41.1207853  45.6072342  20.3681254  40.9960374  46.5624294  21.1145819
  40.3653908  45.3981694  19.2455378  40.5516570  44.6600111  18.6591296
  39.4017348  46.3142011  18.7093892  39.1080268  47.0406362  19.5031156
  40.0233928  47.1293015  17.5826140  40.2110185  46.5815879  16.6862172
  39.3216655  47.9524316  17.3057209  41.3038395  47.7702578  17.8969491
  41.2737559  48.9029768  18.7360030  40.3295772  49.2285101  19.1198145
  42.4463644  49.6507989  18.8701760  42.4238553  50.5641924  19.5049096
  43.6569743  49.1843239  18.2753126  44.4621186  49.8778267  18.4626537
  43.6681997  47.9890515  17.5363567  44.5700978  47.6205236  17.0847663
  42.4688595  47.2688083  17.3244591  42.4572943  46.3364229  16.7825169
  38.0496448  45.7085909  18.2375171  37.6859515  45.6912225  17.0354617
  37.2073927  45.3727890  19.2656726  37.4642832  45.2674339  20.7087361
  37.7954751  46.2954985  20.9885744  38.2722491  44.5913753  20.9260824
  36.0720275  44.8864991  21.3575367  35.5194779  45.7224373  21.7707586
  36.2397722  44.2599711  22.1801009  35.3252196  44.1943559  20.2191341
  34.2724615  44.3705929  20.4306704  35.6325364  43.1295563  20.1754782
  35.8594208  44.9575338  19.0156803  36.0011534  44.1723138  18.2792479
  34.9983695  46.0898230  18.4534541  35.3755743  47.3019632  18.5285437
  33.7985510  45.7742311  17.9553959  33.5345926  44.7933458  17.8985349
  32.6741950  46.7154210  17.7794826  32.9320287  47.4310880  17.0139037
  31.5274094  45.8421401  17.1405370  31.8761780  45.1744468  16.3396011
  31.1322842  45.2148466  17.9132426  30.2424755  46.4720868  16.5923667
  29.5087023  45.6493535  16.5222148  29.9537217  47.2822108  17.2237432
  30.4086994  46.9791241  15.2121370  31.4539323  46.9465994  14.5479525
  29.3368846  47.5330848  14.7379797  29.3994266  48.0406841  13.8877348
  28.4130702  47.7500075  15.2736146  32.2443477  47.5329633  18.9536656
  32.4912702  47.0666100  20.0851269  31.6107682  48.6774493  18.7974634
  31.4560896  49.0670297  17.8686343  31.0853927  49.5449165  19.8664454
  31.0493199  48.9789350  20.7313230  32.1368998  50.6513994  20.2685579
  31.6045324  51.2695059  20.9390061  33.0025857  50.2035703  20.5761731
  32.4463220  51.3727007  19.1160457  32.1680241  52.2618768  19.3088951
  29.6220530  49.9599076  19.5815055  29.3139874  49.8037692  18.3970510
  28.8008873  50.4710440  20.4911132  29.2218577  50.6657349  21.3770841
  27.5664030  51.1050994  20.1348214  26.9886973  50.3999032  19.4681379
  26.7080976  51.2177683  21.3652330  27.2333908  51.8539721  22.0784511
  25.7539807  51.7261523  21.1466220  26.3053785  49.9006151  21.9675912
  26.3823584  48.7864183  21.4860652  25.7518586  49.9900589  23.1554610
  25.4394043  49.1982513  23.6303383  25.7851234  50.9478257  23.5992576
  27.7367665  52.4381272  19.3987255  26.7131234  52.9205039  18.7744399
  28.9729603  52.9997538  19.3160275  29.6470928  52.5728424  19.9573423
  29.3905401  54.3045644  18.6900104  28.8889414  54.3555132  17.6969864
  28.9315479  55.4030147  19.7749598  29.0819464  56.3803330  19.3170704
  27.8381402  55.3647149  19.9353618  29.3463516  55.2541831  20.7499373
  30.9055547  54.4279815  18.4272269  31.6536227  53.8080479  19.1843732
  31.3682147  55.1650719  17.4149950  30.6130269  56.1661712  16.6308854
  30.0576755  56.8667556  17.2655494  29.9354956  55.5075548  16.1008828
  31.6054078  56.8077220  15.6858562  31.9433340  57.7496847  16.1634715
  31.1212653  57.1016236  14.8089773  32.8212694  55.8332900  15.6490310
  33.7401064  56.3532936  15.3718882  32.6045845  55.0836223  14.9539385
  32.8014292  55.1383868  17.0554854  33.3033681  54.1175638  16.9549074
  33.7668932  55.9474082  17.9976559  33.4111798  57.0133720  18.5688798
  35.0070997  55.6069057  18.0909753  35.3723975  54.8800403  17.5378780
  35.8903164  56.1890758  19.1078030  35.3963323  56.9483307  19.7731146
  36.2600127  54.9419073  20.0437545  36.7749467  54.1491147  19.4393983
  37.3386667  55.3421430  21.0510413  37.7285674  54.4501206  21.4960061
  38.2352239  55.7473944  20.5397652  37.0619638  56.0173589  21.8127401
  35.0915586  54.4203007  20.9038223  34.8805474  55.0932839  21.7503330
  34.2547844  54.3157386  20.1860530  35.3342356  53.0285344  21.5134154
  35.9606651  53.1144802  22.4338613  34.3604653  52.5828298  21.5849082
  35.9162267  52.3633671  20.8042566  37.2218744  56.6963242  18.4981124
  37.8269837  56.1475225  17.5840866  37.6291857  57.9361557  18.8057911
  37.0064027  58.5185713  19.3381569  38.8217647  58.5827110  18.2353433
  38.8571769  58.3243275  17.1927768  38.7756055  60.1000832  18.2104417
  38.4903847  60.4091738  19.2502907  40.0828768  60.8143985  17.8793308
  40.4097457  60.5269464  16.9207548  39.8395796  61.8731022  17.6893603
  40.8504519  60.6066093  18.5366176  37.5371970  60.5796042  17.3751819
  37.9704204  60.7828219  16.4295298  36.8228640  59.7813508  17.1097140
  37.0167598  61.9558678  17.8763649  37.7626786  62.7236244  18.0514630
  36.2085945  62.3139179  17.2326593  36.4758163  61.7957014  18.8054921
  40.0366928  58.0373718  19.0377469  40.4859445  58.5457156  20.0787166
  40.6347662  56.9380491  18.5118602  40.1953193  56.3770850  17.8599028
  41.9357720  56.4435485  18.9768034  41.9398788  56.2707790  19.9963656
  42.2797123  55.2176764  18.1898294  42.4030118  55.5184524  17.1606654
  43.1304440  54.7352671  18.7040380  41.1454338  54.1817632  18.0885983
  40.6783344  53.7638663  19.1667571  40.6313620  53.9031706  16.9862142
  43.1288210  57.4468558  18.8035365  43.1469480  58.2942951  17.8893319
  44.1238607  57.3469070  19.7144407  44.1477021  56.5863485  20.3502822
  45.2614915  58.2789553  19.7547801  45.5026357  58.4697156  18.7230854
  44.8568134  59.5588370  20.4759184  44.0847924  60.0240001  19.8306059
  44.4538438  59.3208108  21.4775391  45.9464816  60.6129976  20.6127208
  46.5453094  60.2960308  21.4881980  46.6081267  60.6718765  19.7574230
  45.4125032  61.9765580  21.0765048  44.2526196  62.2688600  20.7206539
  46.1578674  62.7897237  21.6631019  46.5555898  57.6588791  20.4139715
  46.6494571  57.5785662  21.6412635  47.5523412  57.2911868  19.6071430
  47.5218442  57.6993847  18.6699131  48.7502168  56.7750911  20.2041018
  48.5925552  56.1022527  21.0472282  49.5384624  55.9356076  19.2077099
  48.8917265  55.0458107  18.9417548  49.7067442  56.3877160  18.2612059
  50.8741707  55.4880064  19.7775150  51.4960582  56.3810966  19.8785193
  50.6590266  55.1776835  20.7559734  51.5669534  54.4017292  18.9012629
  52.6807770  53.9693444  19.1983742  51.1006505  54.0255926  17.7945173
  49.6361603  57.9559871  20.6876962  50.0156258  58.7922782  19.8786151
  50.0474502  57.8787636  21.9539148  49.7342851  57.1392831  22.6117836
  51.1326909  58.6844294  22.4934533  51.9183156  58.7266779  21.7611886
  50.5978511  60.0771091  22.7758225  51.4126102  60.6482748  23.1149176
  50.2465909  60.5119233  21.8413134  49.4075789  60.2518721  23.8026377
  48.6904486  59.4278388  23.6035321  49.7592798  60.0650586  24.8089170
  48.6425273  61.5932959  23.8028241  48.0597465  61.6277234  22.8977011
  48.0170782  61.6270622  24.6037091  49.6120238  62.7397650  23.8466553
  50.4362488  62.6369095  24.4757210  49.3902027  63.8869818  23.3054666
  48.4483441  64.0914288  22.4392574  47.7569053  63.3363073  22.2531051
  48.3108079  65.0004542  21.9921397  50.1661919  64.8995344  23.4682602
  50.9781704  64.8716861  24.0197811  49.7669707  65.7990750  23.1828422
  51.8462029  57.9442835  23.6210387  51.5910933  56.8312096  23.9354127
  52.8375218  58.5349174  24.1570913  53.0167790  59.4720762  23.7928304
  53.3854342  58.1547230  25.5319082  53.4183399  57.0379374  25.5943942
  54.8134697  58.6478166  25.7040891  55.4197829  58.2276899  24.8861812
  54.8010310  59.7347499  25.4627411  55.5868520  58.4598749  26.9838913
  55.1020662  58.9972695  27.8202954  55.6097729  57.4004778  27.2512544
  57.0322246  58.9218776  26.8994517  57.6029826  59.1981446  25.8114640
  57.6596896  59.0940602  27.9920127  52.4846260  58.6674140  26.7017120
  51.8473517  59.6814866  26.5224938  52.3745369  57.9493070  27.8205587
  53.0206343  57.1973110  27.9037559  51.5782270  58.2416701  28.9981254
  51.2244437  59.1945963  28.9217480  50.4072352  57.2259462  29.0954183
  50.9048572  56.2146352  29.0220490  49.5719080  57.4204700  30.3886941
  49.3584609  58.4518769  30.6338514  48.6510196  56.8843601  30.3595064
  50.1424615  57.0641906  31.2795725  49.4831196  57.4865656  27.8571741
  48.9081136  58.3571714  28.0686529  50.0531965  57.6550849  26.9311383
  48.6101731  56.3089494  27.5486660  49.1985710  55.4031584  27.4402918
  47.9282664  56.2403401  28.3716113  48.0300017  56.4231382  26.6540429
  52.4913174  58.2598599  30.2668346  53.4630542  57.4994470  30.3254809
  52.2253039  59.1865325  31.2227047  51.2528475  60.3540342  31.2549069
  50.3076740  59.9787234  31.6694328  50.9977177  60.6666219  30.1906219
  51.7856816  61.4167321  32.1998918  50.9216200  61.8832565  32.7108633
  52.4371755  62.1989761  31.7312000  52.5863556  60.6171481  33.2292792
  51.9640378  60.3563068  34.1460209  53.4230742  61.3627422  33.3813163
  53.0304781  59.3610156  32.4837167  54.0495475  59.4442101  32.0779550
  52.8787087  58.0796559  33.3630719  51.7858719  57.6061826  33.6386483
  54.0192407  57.6277816  33.8499076  54.8487361  58.0484559  33.4630587
  54.1065736  56.5005843  34.8137450  53.2245328  55.9061001  34.6595831
  55.4645033  55.7890939  34.4125313  55.6185983  55.8937208  33.2900621
  56.2217405  56.3863231  34.8702340  55.4885662  54.2784032  34.7735225
  54.4862787  53.9675392  35.0232835  55.8562790  53.7159661  33.9459170
  56.4557032  53.9421065  35.9120809  56.1167257  53.1983168  36.8572156
  57.5941796  54.4670919  35.9593275  54.0482746  56.9490194  36.3252181
  53.6044254  56.2129784  37.1955141  54.4422399  58.1898900  36.5711558
  54.7496940  58.7353684  35.8160809  54.4318948  58.8603436  37.8916802
  53.7569032  58.3132708  38.5382280  55.8480247  58.8134756  38.5603535
  55.7905633  59.3415343  39.5286700  56.0680143  57.8102118  38.8080619
  57.0152816  59.4014841  37.7160666  57.0418033  58.8625310  36.8474491
  56.8229827  60.4295324  37.4061024  58.3458938  59.2142455  38.5263451
  58.3678866  59.7925309  39.4675216  58.4268048  58.2121004  38.8840441
  59.4950034  59.4063988  37.7192707  59.8973966  60.3575068  37.7795656
  60.0797902  58.5011735  36.9496009  59.6556437  57.2940833  36.7137077
  58.8476685  56.8799101  37.2273575  60.2150399  56.6554507  36.1641285
  61.1684041  58.9070349  36.3025397  61.6130771  59.7933913  36.5835773
  61.6466860  58.2935297  35.6745079  53.8796274  60.2896329  37.8589793
  53.6591629  60.8104875  36.7719268  53.7789853  60.9713522  38.9920811
  53.9685652  60.5037211  39.9062129  53.6949657  62.4361662  38.9715733
  52.6886068  62.6756837  38.6827664  53.8361324  63.1389174  40.2915933
  54.8246414  63.0314562  40.7464213  53.5771920  64.2241321  40.0093487
  52.8726690  62.6798075  41.2414484  53.1688540  61.7685232  41.5557096
  54.6801295  63.0382005  37.8790588  55.8623748  62.8466358  37.9273015
  54.0764695  63.9571235  37.0989755  53.2129971  64.2849214  37.3835218
  54.6768718  64.5291526  35.9395333  55.6795167  64.0969489  35.8003700
  53.8187092  64.3164952  34.7186797  54.4122930  64.6134776  33.8455159
  53.5757249  63.2601807  34.6658037  52.5300159  65.0676090  34.6706242
  52.3962910  66.2341337  33.9879617  53.1289798  66.7728701  33.4682325
  51.1303353  66.7617792  34.3800122  50.7930683  67.6571389  33.9968631
  50.4045202  65.9570447  35.2165795  49.1589984  66.1183219  35.8265626
  48.5320178  67.0236569  35.7487844  48.6608632  65.0208151  36.5108420
  47.7577144  65.0354778  37.0673732  49.4071924  63.8189471  36.5923162
  48.8941609  63.0684452  37.1588779  50.6554944  63.7141468  35.9969617
  51.2363414  62.8738929  36.1125041  51.2306754  64.8408610  35.3010761
  55.0673681  66.0087758  36.2567306  54.2904123  66.7253522  36.8766426
  56.1650097  66.4690996  35.7154826  56.7943762  65.8233527  35.2095388
  56.7201775  67.7796601  35.8540958  56.0365982  68.3701569  36.4352240
  58.0995136  67.6827862  36.5869201  58.6470206  66.9444759  36.0046193
  58.6432169  68.5765758  36.5523304  57.7842011  67.2385204  38.0607099
  57.7637172  66.0452379  38.3374714  57.4149775  68.0783570  39.0097681
  57.3878676  67.6749347  39.9161454  57.2275489  69.0618052  38.8881277
  56.7343887  68.4147912  34.3900572  57.1244427  69.5967308  34.2948732
  56.4443316  67.6115369  33.3388545  56.4413693  66.5836075  33.4958617
  56.5029538  68.0839586  31.9078831  55.9556016  69.0631405  31.9136608
  57.9473388  68.2850603  31.3874887  57.9601380  68.6357629  30.3400704
  58.3111497  69.1971804  31.8077242  58.7718357  67.1660304  31.5411148
  59.2870449  67.2463943  32.4018832  55.8126518  67.1818377  30.9662854
  55.7992868  65.9694332  31.1531589  55.4607802  67.7639104  29.7848954
  55.4970357  68.8113412  29.7418761  55.4696691  67.0236617  28.4748015
  55.7857685  67.6374058  27.6358301  56.2377289  66.2739734  28.4372163
  54.1727505  66.2442344  28.0857568  54.0915074  65.5798880  27.0301059
  53.0615397  66.4270300  28.8056730  53.0077810  67.1553835  29.5278508
  51.7747678  65.6982452  28.6115239  51.6516269  65.2966122  27.6412569
  51.9572101  64.5062150  29.5326233  52.1188491  64.8145792  30.5674650
  51.0342546  63.9728251  29.5849803  53.0552024  63.5311103  29.1438964
  52.8560889  62.5229917  28.2641554  53.9144066  61.7044636  28.4152916
  54.0746735  60.9289637  27.7049024  54.7209060  62.0469580  29.4493736
  55.4731799  61.4957434  29.8299295  54.1907307  63.2150649  29.9149804
  54.4967064  63.7684960  30.8945431  50.5002702  66.5373206  29.0920933
  49.6588523  66.0056277  29.8294673  50.3546747  67.8073695  28.6985690
  51.1596696  68.1387911  28.2607757  49.3647251  68.7788203  29.3006679
  49.3964020  68.7570613  30.3808823  49.5867694  70.2089994  28.7997149
  49.5572089  70.2028864  27.7407675  48.8890284  70.9318005  29.2120464
  50.9857939  70.5732020  29.2606520  51.0267633  70.6945119  30.3532474
  51.6984645  69.8774745  28.8071554  51.3702127  71.8574865  28.6093427
  50.8868091  72.9144846  29.0836669  52.2251271  71.8643289  27.6626898
  47.9508343  68.4003777  28.8755230  47.0886937  68.7226685  29.5567741
  47.9060655  67.5833950  27.8222515  48.8366936  67.4608934  27.3177506
  46.7395618  66.9536999  27.4424427  45.9937197  67.6359169  27.1094217
  47.0452715  66.0315252  26.2517814  46.0665615  65.7119485  25.9123103
  47.5863955  66.5982033  25.5323834  47.8495803  64.8582834  26.5581713
  49.2266639  64.7849149  26.4974572  49.8986095  65.6470268  26.2416803
  49.6951780  63.5807196  26.9549292  50.6511612  63.3678937  27.1551276
  48.6144135  62.7070058  27.1892289  48.5856336  61.3135411  27.5581559
  49.5272662  60.6993155  27.5123261  47.3971793  60.7841389  27.9236352
  47.2830429  59.8243739  28.3567233  46.2633387  61.5431035  27.8499553
  45.2832638  61.1707936  28.0872049  46.2831764  62.8796275  27.4120530
  45.3880409  63.3731436  27.2014564  47.4548074  63.5101016  27.1248482
  46.0512384  66.1135760  28.5370341  44.8293090  65.8834630  28.4726080
  46.7688464  65.6643245  29.5829276  47.6916844  65.9575238  29.5952741
  46.1191302  64.9937732  30.7028596  45.5884436  64.1170118  30.3660362
  47.0945622  64.6821921  31.7935715  47.6690742  65.6137205  32.0716229
  46.4281004  64.0148503  33.0294578  45.8486712  63.1539981  32.7356160
  47.2003283  63.7469034  33.7090402  45.8200170  64.6468048  33.5235554
  47.9918265  63.5480758  31.2565733  48.6586892  63.7936947  30.4810457
  48.6666466  63.2985449  32.0120545  47.4235631  62.6218590  31.0226096
  45.0279950  65.9165441  31.3365387  43.9158578  65.4845478  31.5518766
  45.4858321  67.1826459  31.5281221  46.4108905  67.4161051  31.2698833
  44.7539536  68.2712739  32.2300073  43.9190389  67.8508189  32.7811871
  45.6832477  68.8545701  33.2757924  45.2441460  69.6588713  33.8099930
  46.0580902  67.8905501  34.3545753  45.2785795  67.1662580  34.6488105
  46.9016570  67.2416730  34.1032116  46.3499839  68.5374228  35.2043808
  46.8111208  69.3062831  32.6043535  46.5128685  70.0189560  31.9820689
  44.0572494  69.3227338  31.3984309  43.0421849  69.9109240  31.8348213
  44.4810541  69.4653996  30.1066998  45.3870596  69.0550626  29.7727664
  43.7497966  70.3674737  29.1698818  43.6173662  71.3377394  29.6408838
  44.5096937  70.5567401  27.8183371  44.4916439  69.5625903  27.3803066
  43.9988410  71.2036071  27.1141693  45.8897882  71.1801062  27.8747177
  46.0982116  72.0534106  28.7622583  46.6653990  71.1501157  26.8262692
  42.2779311  69.9348069  28.8837794  41.3985951  70.6657633  28.5297282
  41.9892620  68.6671384  29.0921953  42.6445367  68.1694178  29.6275128
  40.7425308  68.0289310  28.8232989  40.4076394  68.3618213  27.8592647
  40.8956009  66.4855477  28.7242201  41.7924603  66.2180305  28.2018225
  41.1131738  66.2475941  29.7445954  39.7790295  65.6458313  28.0946319
  38.8440712  64.8591051  28.7795772  38.9590709  64.7838182  29.8496599
  37.8250064  64.2041623  28.0812135  37.0513410  63.6473439  28.6308656
  37.7640258  64.2000840  26.6905972  37.0294564  63.6381864  26.2166810
  38.7584108  64.8867002  26.0241664  38.8117618  65.0549301  24.8967228
  39.7587769  65.6714603  26.6595550  40.4284971  66.3873188  26.1808726
  39.6403927  68.3791104  29.8215489  39.6537552  68.1973472  31.0602843
  38.4902521  68.8071121  29.3461167  38.3120159  68.9715340  28.3554500
  37.3939356  69.2258971  30.2023812  37.7887797  69.8023694  31.1038345
  36.5453325  70.3139997  29.4857202  36.1644149  69.9473629  28.5546636
  35.7353755  70.5405328  30.1450171  37.2722471  71.6437914  29.2842510
  37.5529803  72.1377305  30.2267421  38.0767862  71.5169605  28.5559791
  36.2236428  72.6928630  28.6889596  35.8878614  72.2872978  27.7595500
  35.4188682  73.0306529  29.3673555  36.8643785  74.0792701  28.5220184
  36.1541889  74.7569742  28.0577286  37.0601229  74.4436906  29.4943297
  38.2128240  74.0305536  27.8163017  38.1779847  73.4240822  26.9914833
  38.4018124  74.9257042  27.4278497  39.0079082  73.6386090  28.3685563
  36.5698102  68.0971053  30.6707214  36.0387343  68.1505506  31.7756206
  36.4613832  67.0587261  29.8769874  36.9767030  67.1221354  29.0649358
  35.5331270  65.9112223  30.0685149  34.4873887  66.2703518  30.2784339
  35.5345936  65.3130736  29.1501104  36.0175154  64.8501741  31.1434416
  37.0623400  64.9315759  31.6949953  35.1484312  63.8273730  31.4771949
  34.2530830  63.7352214  30.9422865  35.3410007  62.6850575  32.4405859
  35.8968754  63.1078672  33.2340970  34.0340610  62.1137971  33.0348242
  33.3957110  61.6507087  32.2762034  34.1880670  61.3663219  33.7512331
  33.1766828  63.1934970  33.6663686  33.8850825  63.8272693  34.3029432
  32.6995030  63.7815112  32.8554800  32.1915366  62.7101291  34.7550098
  31.6537087  61.8403816  34.5034092  32.7423858  62.3139507  35.6460346
  31.2188796  63.7377650  35.2450384  30.7041591  63.2964591  36.1161214
  31.7394939  64.7184703  35.5031738  30.1390633  63.9402435  34.2156476
  29.7187257  63.0755419  33.9966650  29.3963494  64.5782939  34.5009552
  30.4993435  64.2437083  33.3219913  36.2700710  61.5905230  31.7856823
  36.0523203  61.1147777  30.6653894  37.2226635  61.0636939  32.5340132
  37.3256972  61.4064554  33.4849355  38.2911915  60.1094085  32.1389345
  38.2556823  59.8697716  31.0686596  39.6818079  60.7990837  32.3625798
  39.8330864  61.0203995  33.4070901  40.8828478  60.1123494  31.8656412
  41.8266310  60.6029361  32.0488771  40.9894885  59.0931917  32.2460851
  40.8777035  60.0497544  30.8213768  39.7316270  62.0015930  31.7546652
  39.4694454  62.7456451  32.3610324  38.2629924  58.8180766  32.9484203
  38.0469108  58.9033996  34.1816336  38.7433931  57.6867454  32.4080440
  38.7795852  57.7427811  31.3552822  39.2103504  56.4753173  33.1179667
  39.0318656  56.5825388  34.1328136  38.3449956  55.2933101  32.6587608
  38.3941078  55.2242824  31.5503926  38.7206485  53.9282271  33.2616749
  38.8146691  53.9593522  34.2979744  38.0871617  53.1706248  32.7735989
  39.7181835  53.7843441  32.9049354  36.9192989  55.5627468  33.0573474
  36.2147863  54.7116206  32.8529925  36.8658561  55.6057896  34.2130333
  36.6048860  56.5060231  32.7053794  40.6505664  56.1870173  32.7684590
  40.9774217  56.4693126  31.5749888  41.5198446  55.8551291  33.7672812
  41.1447305  55.9005813  34.6776556  42.9357419  55.6373313  33.4771524
  43.2618935  55.6084574  32.4116946  43.7729783  56.7531548  34.0370823
  43.4081026  57.7280947  33.6954113  43.6241501  56.7240013  35.1351174
  45.2704147  56.8622502  33.8208050  46.1617407  55.9764324  33.3872566
  46.0858882  54.9055907  33.1869217  47.4317876  56.4355665  33.4726120
  48.2774554  55.8762684  33.3061240  47.4382936  57.7467505  33.8592900
  48.4523806  58.7440679  33.8997074  49.5307732  58.4570952  33.7852197
  48.1177977  60.1144611  34.1136992  48.8583473  60.8775347  34.1128906
  46.7717136  60.4533799  34.2668560  46.5130261  61.5014713  34.3077370
  45.7719401  59.4874756  34.3316771  44.7597908  59.7988536  34.5371599
  46.0458750  58.0726927  34.0594471  43.3969907  54.3063759  34.0905377
  43.3594176  54.2120550  35.2905763  43.8273811  53.3798325  33.2517429
  43.6857411  53.5381537  32.3140031  44.2480448  52.0582165  33.6836961
  43.6780502  51.8388158  34.5482323  43.9039602  50.9440825  32.6513515
  44.2758110  51.1389728  31.6362145  44.2529589  49.9205624  32.9479045
  42.3732744  50.7829692  32.5478506  41.6351137  51.6787872  31.7303423
  42.1416872  52.4932712  31.2944989  40.2823435  51.4377682  31.4108318
  39.6878224  52.0078413  30.6436667  39.5983164  50.3784998  32.0767602
  38.5832366  50.1749161  31.7786446  40.3779910  49.5634917  32.9354131
  39.9517143  48.7016495  33.3898397  41.7214242  49.7528223  33.2505686
  42.3250614  49.0341137  33.8478174  45.7155018  52.2207692  34.0246340
  46.6370692  52.0879067  33.2542449  45.9207182  52.6705305  35.2621664
  45.1485507  52.6970519  35.9168010  47.3013129  52.6683155  35.7303115
  47.9514680  53.2082196  35.1345370  47.4395643  53.3738538  36.9964669
  48.4044739  53.2075998  37.4583425  47.2163665  54.9034722  36.7214724
  47.8532433  55.2275248  35.8855822  46.2360576  55.1302385  36.2919446
  47.4460297  55.5295054  37.5874266  46.4832969  52.8980030  38.0972682
  46.7789200  51.9258809  38.4910069  46.5231160  53.5783128  38.8959799
  45.4409453  52.8051501  37.6897806  47.8569692  51.2448461  35.8533589
  47.1388835  50.2124485  36.0035079  49.2112133  51.1346115  35.7648593
  50.1694686  51.9812639  35.1319581  50.6284442  52.6949651  35.8411682
  49.7397649  52.5803571  34.3833085  51.2540759  51.1098437  34.5295683
  52.2174116  51.6332390  34.6734131  51.0257433  50.9841466  33.4760124
  51.1803405  49.8775138  35.3366202  51.8931160  49.9114018  36.1630929
  51.5022856  49.0337616  34.6879963  49.7227561  49.7253173  35.8862381
  49.1084857  49.1026904  35.2347550  49.7781752  49.1827413  37.3496036
  49.6934138  47.9185593  37.5697970  49.9301346  50.0430916  38.2969078
  49.7951690  51.0042653  38.0250458  50.1547212  49.7910828  39.7126399
  49.9155873  48.7274942  39.9850369  51.5960972  50.1423480  40.0030093
  52.2735879  49.3361434  39.7759057  51.9259814  50.9871238  39.3739177
  51.9379352  50.5514561  41.3139287  52.8971571  50.6743510  41.4107387
  49.1199106  50.5731064  40.5502438  48.7235874  51.6267876  40.1580949
  48.8614571  50.0427730  41.7601203  49.3949335  49.2324214  42.1304392
  47.8881336  50.6473134  42.6294231  47.0985893  51.0231851  41.9952482
  47.4096541  49.6568630  43.7008374  48.2058359  49.4356030  44.3367417
  46.2278721  50.2377067  44.4385264  45.3746021  50.1324791  43.8064426
  46.0756259  49.7549940  45.3956468  46.4647479  51.2859479  44.6128317
  46.9360108  48.2607455  43.2503203  46.5121664  47.8354487  44.1925541
  46.0128283  48.2273809  42.7095363  47.9744653  47.2597918  42.7846160
  48.7237573  47.0175567  43.5586743  47.3816741  46.3577638  42.6154234
  48.5127965  47.5505167  41.9052441  48.5342644  51.9185834  43.2335446
  47.9359525  52.9659289  43.4060589  49.8173777  51.7651178  43.5973338
  50.2427475  50.8485113  43.5173578  50.7187818  52.8867197  44.0636396
  50.1770797  53.2988508  44.8896064  52.1102532  52.4240430  44.6267820
  52.7969145  52.0947929  43.7832227  52.6655181  53.3101850  45.0353259
  51.8913724  51.4172394  45.7704412  51.3196532  51.8928197  46.5675022
  51.3796681  50.5787249  45.3990808  53.1886899  50.9344948  46.4304864
  53.0831735  50.0341995  47.0188582  53.7838458  50.5784108  45.5229644
  54.0186508  52.0578537  47.0906561  54.9552261  51.6862423  47.4041182
  54.2281537  52.8878584  46.3735664  53.2717347  52.6173185  48.2726167
  53.7374545  53.4365592  48.7234797  52.3224793  52.9046508  48.1002429
  53.2901865  51.9465660  49.0104801  50.8620738  54.0101723  43.0278411
  50.4509272  55.1571613  43.3138944  51.2954437  53.6439402  41.8248982
  51.6220304  52.6687280  41.7648021  51.4260286  54.5971897  40.6391207
  52.2279254  55.2321829  40.6548832  51.7363249  53.6885600  39.3873328
  52.0496114  54.3460077  38.5546094  52.6425654  53.0516791  39.5801408
  50.8608188  53.0222542  39.1545849  50.1119826  55.3784626  40.3931946
  50.1011230  56.6233171  40.2802221  49.0070000  54.6577487  40.6044050
  49.0395373  53.6720099  40.7803618  47.6424977  55.2301474  40.6570368
  47.3965385  55.6348060  39.7006740  46.9406098  54.4005824  40.8742719
  47.4372916  56.3166137  41.7109914  47.0141658  57.4050871  41.4133393
  47.5706221  55.9457188  42.9713807  47.9065200  55.0601583  43.1934969
  47.4098713  56.9303660  44.0271497  46.4344236  57.3789350  44.0280878
  47.3761155  56.1741243  45.3699362  48.2092447  55.5158809  45.4483386
  47.5230653  56.8655043  46.2517471  46.0726330  55.4739542  45.6124847
  45.0498417  56.0974576  45.9709265  46.0248169  54.1728077  45.5821232
  45.2339953  53.5539911  45.7782899  46.8660188  53.7312303  45.2082924
  48.3701981  58.0665182  43.8813847  48.0215278  59.1910969  44.1904686
  49.5935552  57.9366077  43.2832184  49.8918845  57.0710413  42.9152745
  50.4991343  59.0755244  43.0263723  50.5416613  59.7422047  43.9043136
  51.8899696  58.5738506  42.5862520  52.2210331  57.8003470  43.2935421
  51.8657800  58.1580328  41.5710786  52.9494379  59.7020730  42.6428100
  52.8940568  60.3319838  43.7348018  53.8210088  59.8150559  41.7174179
  49.9276682  59.9651200  41.8425592  49.8527655  61.1449789  42.0074269
  49.4428282  59.3595499  40.7378801  49.5902666  58.4096908  40.6170974
  48.7108372  60.1136655  39.7262403  49.3865011  60.8919421  39.3740110
  48.4873496  59.1325025  38.5624537  48.0648041  58.1810941  38.9379879
  47.4892750  59.6514661  37.5575046  46.5574591  59.8709153  37.9857416
  48.0147492  60.5608036  37.2322559  47.3409072  58.9279111  36.8116326
  49.7550355  58.7221788  37.7764754  50.3636820  58.0319232  38.3864741
  49.3616415  58.1135933  36.9671999  50.6498328  59.7025250  36.9926634
  50.9406543  60.6248476  37.5975900  51.5896157  59.2145767  36.8301189
  50.1142808  59.9520439  36.0342150  47.4704009  60.8166090  40.2069121
  47.1757675  61.9220448  39.7391667  46.8030659  60.2863472  41.2851166
  47.0266166  59.3726725  41.6027321  45.6631224  60.8180191  41.9417249
  44.9557754  61.3095277  41.1906399  44.8642915  59.7565519  42.7292749
  44.4723763  59.0068564  42.0884163  45.5890817  59.3714473  43.4514263
  44.0811853  60.2918044  43.2135722  45.9884481  61.9975149  42.8916552
  45.2168412  62.9529912  43.1026507  47.2353317  62.0540857  43.3546013
  47.9175602  61.3591422  43.0902045  47.7482480  63.1491170  44.1378119
  47.0299067  63.5203127  44.9027212  48.9138109  62.6634331  44.9807620
  49.7874731  62.2865861  44.3545776  49.3448873  63.4577134  45.5724836
  48.7148739  61.8545822  45.6154884  48.1204866  64.3610151  43.2515147
  47.4807695  65.4045462  43.4851053  48.8772734  64.0908852  42.1726941
  49.3508994  63.1871079  42.0975987  49.1596619  65.0560544  41.1242599
  49.7064212  65.8721163  41.5478562  50.0637051  64.2887047  40.1695480
  50.7984619  63.7729233  40.7660663  49.4326593  63.5269978  39.7834297
  50.7937932  65.3556165  38.9831866  50.2058322  65.1455474  37.8415223
  47.9789679  65.6528474  40.3933309  48.0687613  66.8931364  40.1756663
  46.9576675  64.8054830  40.1430256  47.0299811  63.7832073  40.2815009
  45.6291622  65.3284392  39.6331910  45.8794750  65.8615626  38.7240460
  44.7493092  64.1526744  39.2204307  44.7610724  63.4477982  40.0342666
  43.7097902  64.5284203  39.0957943  45.0837705  63.5676304  37.8662286
  46.1696238  63.3863907  37.7583490  44.3011151  62.2827173  37.7851928
  43.2514747  62.4375029  38.0453778  44.4604164  61.8378148  36.8298268
  44.7119215  61.6716687  38.5698739  44.5831680  64.3652634  36.6279911
  44.9247954  65.4347432  36.6145940  44.9270789  63.7752645  35.7572691
  43.4983083  64.4318193  36.7300522  44.8727920  66.2951086  40.5999246
  44.4284408  67.3602091  40.1889784  44.8064325  66.0216577  41.9412734
  45.0304684  65.1051016  42.3215143  44.4031756  66.9992109  42.9771051
  43.3583867  67.2162562  42.7103827  44.3758041  66.3189858  44.3769104
  45.3377544  65.8813668  44.6488830  44.2627388  67.0789336  45.0858023
  43.1905058  65.3623135  44.4753758  42.2259259  65.9177603  44.6222554
  43.0195757  64.7653556  43.5691462  43.4646776  64.3676554  45.6109293
  44.1602764  63.6280842  45.2324921  43.8919616  64.8621345  46.4581236
  42.3070501  63.5764891  46.0484340  41.5540343  64.1123985  46.5076152
  41.9056515  62.4108925  45.6153593  42.6923033  61.5597443  45.0593544
  43.6566789  61.7075328  45.0419053  42.4061493  60.6873643  44.6626921
  40.6592182  62.0005497  45.6850116  40.0745091  62.7760301  45.7673601
  40.2628191  61.0901115  45.3526600  45.2489708  68.2628469  43.0003946
  44.6883554  69.3610016  43.1799398  46.5566663  68.1221269  42.9897177
  46.9227076  67.1813390  42.9845688  47.4913738  69.2508864  42.9168457
  47.2654042  69.9358857  43.6615793  48.9055044  68.7907983  43.2109785
  49.2919012  67.8974870  42.6178442  49.5966028  69.5866813  42.8421257
  49.1624136  68.6872888  44.7438007  48.8512922  69.6144548  45.2180063
  48.5123152  67.9239145  45.0724439  50.6125265  68.4309757  45.2169518
  51.3064117  69.2567425  44.9441141  50.6546713  68.2616557  46.2970106
  51.1384303  67.1598640  44.6083576  50.7261426  67.0556843  43.6010165
  52.1985628  67.1903449  44.6487392  50.6957144  65.9840296  45.3566340
  50.8521053  65.1285704  44.7821800  51.2046876  65.8330285  46.2394276
  49.7121679  66.0945845  45.6007134  47.5192969  70.0403622  41.5356631
  48.1333359  71.0733664  41.3018642  46.7208627  69.5932672  40.5978868
  46.3608861  68.6741859  40.8317261  46.3710938  70.1863278  39.2917693
  46.8510629  71.1569819  39.1522708  46.9341766  69.3286202  38.1375405
  46.6244669  68.2590418  38.3499177  46.3347051  69.4917336  37.2995780
  48.3328545  69.4778074  37.6574759  48.6836295  70.4010062  37.0141761
  49.1350835  68.6171244  38.1982205  50.1233203  68.6265157  38.0670698
  48.6833711  67.9468032  38.7653069  44.8807477  70.4079622  39.2835097
  44.3332278  70.7276869  38.2472783  44.1373169  70.3544460  40.4418158
  44.6585994  70.0702995  41.2464322  42.7483515  70.6716519  40.5502623
  42.5078650  70.5845147  41.6156170  42.6343597  71.7152799  40.2192963
  41.6964500  69.7625629  39.8427053  40.6456427  70.2620571  39.5270065
  41.8709871  68.4869444  39.5606186  42.6542408  68.0948726  39.9745587
  40.7894598  67.6307279  39.1154516  39.9243800  68.1713586  38.7759430
  41.3842878  66.7044706  37.9524467  42.2295909  66.2287297  38.4307849
  40.6160056  65.9546136  37.7625979  41.8490864  67.4184585  36.7155266
  42.3906695  68.3076162  36.8514095  42.4741858  66.7369315  36.1339555
  40.7149661  67.8830585  35.7922892  39.8892269  67.1623553  35.7911434
  40.3002466  68.7891770  36.2176317  41.2380936  68.1686672  34.3215675
  42.1734341  68.7558116  34.2937689  41.3689906  67.2534355  33.8046644
  40.2437274  69.0654187  33.7007499  40.3641617  70.0263820  34.0077711
  40.3101098  69.0137093  32.6823127  39.3460339  68.7672723  33.8195234
  40.2612909  66.7641839  40.2991037  40.9220697  66.5336263  41.3213901
  38.9895705  66.3003491  40.2566328  38.3871410  66.6940163  39.6101450
  38.5118575  65.2710002  41.1983637  39.0954913  65.4592783  42.1623370
  37.0009862  65.4410477  41.4762599  36.5799798  65.8514116  40.5240888
  36.5541396  64.4690684  41.7450051  36.8250057  66.4159617  42.6681746
  37.3488372  65.9280172  43.5541754  37.2394636  67.3792976  42.4851413
  35.4327653  66.7553667  43.1942761  35.0812440  65.9473537  43.8246252
  35.6254435  67.5847167  43.8024208  34.4569283  67.2232073  42.0099054
  34.7537575  68.2627972  41.6795362  34.3684964  66.4761883  41.1552167
  33.0386678  67.4285670  42.4344908  32.5339354  67.6025100  41.5576979
  32.7760813  66.6125029  42.9329293  33.0007293  68.2264349  43.0327433
  38.8013900  63.8304092  40.7538023  38.6288301  63.4413555  39.5784341
  39.2048654  63.0356133  41.7009949  39.1890838  63.2501028  42.6382839
  39.5763091  61.6190493  41.4107138  39.2756224  61.3206365  40.4467440
  41.1230061  61.4840139  41.4506764  41.3403175  61.6702198  42.4468078
  41.6209969  60.1359450  41.0504082  41.4597779  59.3750193  41.8007465
  41.0655772  59.7892872  40.1685492  42.7325007  60.1607304  40.9199763
  41.8838020  62.5013512  40.6217642  41.5242563  62.6330309  39.5349637
  41.9257854  63.5552673  40.9463877  42.9203920  62.3023424  40.4699940
  39.0358427  60.5730405  42.3999790  38.9216774  60.8348991  43.5970124
  38.6195334  59.4427668  41.8389312  38.5302196  59.3600356  40.8139149
  38.3637694  58.2370004  42.6157954  38.4984406  58.5150592  43.6668813
  36.8727335  57.8074719  42.5148989  36.6124396  57.5963511  41.4706563
  36.6295912  56.4390461  43.2099491  37.0852726  56.6079240  44.1857888
  35.6334178  56.0137449  43.2066836  37.1603028  55.7652512  42.5685150
  35.8920266  58.9298487  43.0216328  36.2356916  59.2413936  43.9800868
  35.9769846  59.7829713  42.4033101  34.4040031  58.5997850  43.1038687
  34.2402359  57.9219179  43.9640099  33.8530853  59.5744178  43.1748001
  34.1309629  58.0407353  42.2209272  39.3365858  57.1366262  42.1946995
  39.6318712  57.0153912  41.0099150  39.7626069  56.3334850  43.1671964
  39.3484400  56.5320911  44.0273331  40.7531546  55.2498262  42.9991366
  41.0299201  55.3584674  41.9793228  41.9971203  55.4335383  43.9265628
  41.7014124  55.4022204  44.9479475  42.7365790  54.6650309  43.7077419
  42.7074992  56.7964354  43.6577645  43.8220533  56.5236740  43.6980548
  42.6090926  56.9993703  42.6103860  42.3596388  57.9378558  44.5855594
  41.8350679  58.9899578  44.1585218  42.8734939  57.9637310  45.8025903
  43.0665699  58.8526586  46.2418287  43.4853842  57.2209997  46.1277820
  40.0911396  53.8493574  43.1814045  39.4258134  53.5521418  44.1825785
  40.2702424  52.9455359  42.1740112  40.6895977  53.2414125  41.2671194
  39.6334937  51.5138176  42.1107124  39.0189797  51.3612940  42.9709918
  38.5987339  51.5720857  40.9563400  39.1883828  51.5781188  40.0213525
  37.9724628  50.6434784  41.0513252  37.5913524  52.7540798  40.8922545
  38.1164843  53.7464881  40.8332390  36.6766648  52.5244550  39.6295370
  35.9559893  51.7410693  39.6907166  36.0446210  53.3872027  39.5535088
  37.3044410  52.4622246  38.7753393  36.7115871  52.7956248  42.1297680
  35.9510879  53.6369381  42.0559752  36.1911561  51.8433107  42.2197452
  37.3071847  52.9957418  42.9971981  40.5579805  50.2960494  41.9645816
  41.1252788  50.1452576  40.8920942  40.6191102  49.2795359  42.8786316
  40.0389738  49.4281971  43.7527862  41.4568733  48.1447669  42.7811944
  41.7277076  47.9590206  41.7480494  42.7514636  48.2989690  43.5539990
  43.5438962  47.6402660  43.1042003  42.9772883  49.3088349  43.4412377
  42.5330709  47.9927917  44.9411275  42.8695070  48.7741731  45.3869580
  40.6844856  46.8703316  43.1688437  39.6202990  47.0440605  43.7832826
  41.1558879  45.6345923  42.9727547  42.0794832  45.4958774  42.5888873
  40.4556830  44.5042248  43.5477072  39.5642077  44.4331727  42.9513498
  41.2610769  43.1468715  43.4872336  42.1248709  43.2382427  44.1818258
  40.6530802  42.4307443  43.9806146  41.4500730  42.5715880  42.1442280
  40.5805485  42.2087675  41.6516798  41.7650914  43.3538098  41.5131779
  42.4035699  41.3033426  42.2565900  43.3065945  41.4970191  42.9685069
  41.8936927  40.4435053  42.8144332  42.7781497  40.7866192  40.9408168
  42.5146447  39.8540680  40.6837156  43.2584770  41.4535349  39.9500448
  43.3047184  40.8793345  38.7492193  43.0392827  39.9340744  38.6389695
  43.6482738  41.3862247  37.9262170  43.6609743  42.6576137  40.0830176
  43.7418190  43.0439034  40.9248426  43.8252814  43.1806268  39.2166341
  40.0673056  44.7092140  45.0092246  39.0326625  44.1497788  45.3512121
  40.8948211  45.3624150  45.8984757  41.7138834  45.8998236  45.5526886
  40.6300770  45.4399348  47.3398321  39.9660501  44.6923490  47.7474109
  41.9411896  45.3503854  48.1373067  42.5001310  46.2559253  47.7960582
  41.7038534  45.5607094  49.2155229  42.7748385  44.0775003  47.8436994
  42.1503021  43.2232439  48.1094438  43.0418819  44.0938334  46.8055109
  44.1041629  43.9881995  48.6068012  44.7764705  43.3672575  47.9561130
  44.6718919  44.8782756  48.7234467  44.0372634  43.3832121  50.0331143
  45.0471718  43.3011803  50.5061267  43.4851664  44.0900310  50.6398503
  43.3731547  42.0678306  50.1628930  43.9177646  41.2778804  49.7267957
  43.1078015  41.8998127  51.0877180  42.4813925  42.0994750  49.6434785
  39.8102224  46.7019576  47.6854635  39.5176151  46.8702251  48.8365667
  39.3986790  47.5356341  46.7868517  39.8343639  47.4560292  45.8483928
  38.6252100  48.7269820  47.0761107  38.2186766  48.6135813  48.0815429
  39.5611392  50.0229200  46.9554407  39.0412727  50.9064860  47.0981350
  40.6517829  50.0617219  47.9934560  40.2751305  50.0745351  49.0094827
  41.2530519  49.2242226  48.0199272  41.3517262  50.9418822  47.9701491
  40.1270388  49.9619706  45.7025706  41.0900546  50.1686881  45.8092145
  37.4002594  49.0277031  46.1745866  36.4686453  49.6331403  46.6362411
  37.3096988  48.5496525  44.9304802  37.9979852  47.8006091  44.7057834
  36.2343597  48.7360390  44.0177732  36.1717432  49.7938022  43.8582835
  36.6095504  48.1450673  42.6392457  37.4195633  48.7378122  42.2132668
  36.9887159  47.1466090  42.8286859  35.5871733  48.0318433  41.5522819
  35.8575560  48.6414226  40.2940954  36.8140076  49.1211498  40.1303718
  34.9207735  48.5096341  39.3156075  35.1112659  48.9978370  38.3406752
  33.7802538  47.7029842  39.4329837  33.1512549  47.6225851  38.6200662
  33.4644951  47.1301094  40.6427430  32.5651618  46.5890979  40.8132898
  34.3797306  47.2861611  41.7422205  34.1237109  46.7512724  42.6212525
  34.7927482  48.4331211  44.5686732  33.9336033  49.2843217  44.3282475
  34.5416938  47.4715689  45.4410402  35.3183895  46.9108272  45.6136888
  33.2313501  47.1408777  46.1311998  32.4080896  47.1142662  45.3977679
  33.4183376  45.8098095  46.8539963  34.1863959  45.9012117  47.5747211
  32.4630659  45.5632952  47.3544469  33.8625851  44.8129765  45.7600335
  35.1040063  44.7848285  45.4424571  32.9985812  44.1504717  45.1058178
  32.7491135  48.2003369  47.1677286  31.7775323  48.0354702  47.8845837
  33.5613384  49.2619756  47.2602041  34.4044557  49.1679332  46.6095577
  33.2811453  50.4571847  48.1074429  32.3092686  50.4441146  48.4991163
  34.2114473  50.4936814  49.3188567  33.9200481  51.2656669  49.9888822
  34.1128318  49.5582070  49.9163393  35.5583044  50.7846075  49.0987036
  35.9427303  50.1652689  48.3943903  33.3738775  51.7393577  47.3323010
  32.9357634  52.8334531  47.7935933  33.8213414  51.7366735  46.1069805
  33.9847335  50.8080376  45.6818876  34.3637173  52.9837495  45.4529374
  33.9133092  53.7931063  46.0141384  35.8126161  52.9942659  45.2743006
  36.0124782  52.1301889  44.6918021  36.1628865  53.9099201  44.7265497
  36.5195512  52.9197554  46.6482703  35.9829497  52.2059419  47.3199331
  37.4703191  52.4698005  46.5201141  36.5831132  54.2662284  47.3926159
  37.4575003  54.3576836  48.3091905  35.6995003  55.1666664  47.1877168
  33.7572285  53.1721134  44.0824711  33.2647683  54.2671036  43.7821560
  33.5756910  52.1067155  43.2694949  33.8853161  51.2766220  43.6407636
  32.8423325  52.1168278  42.0689043  33.3188935  52.7713459  41.3344362
  32.9581106  50.6923791  41.4136708  34.0500608  50.6565349  41.1572207
  32.6377608  49.9199619  42.0882793  32.0362998  50.5500860  40.1853066
  32.4630463  51.1075486  39.0182513  33.4194061  51.5295240  38.8966292
  31.6554732  50.9990544  37.8809593  32.0522667  51.3306846  36.9186441
  30.3514822  50.4395406  37.9458632  29.5810715  50.2880790  36.7792950
  29.7221959  50.9904599  36.1754744  29.8503198  50.0212888  39.2050270
  28.8362188  49.6597814  39.3075316  30.7097128  50.1646143  40.3381203
  30.3952819  49.8821286  41.3569438  31.4304248  52.6813935  42.1591746
  31.0552443  53.4222709  41.2506439  30.6504140  52.3480983  43.1745314
  31.0578070  51.6864943  43.8842901  29.2837222  52.8146258  43.3742574
  28.7172300  52.3745012  42.6183355  28.8983816  52.3104310  44.7816885
  29.5378912  52.6546813  45.5766275  27.4217038  52.6997768  45.0481567
  26.7805418  52.1861004  44.2206358  26.9370598  52.2565491  45.8927776
  27.2602301  53.6939505  45.0418294  28.8216448  50.7274926  44.7922987
  28.2266868  50.3799157  43.9783057  29.8075263  50.2672911  44.6245855
  28.5274927  50.3561871  45.7601135  29.1514353  54.3449658  43.2325280
  28.1313769  54.8129114  42.6850177  30.1097975  55.1309505  43.7116309
  30.9762654  54.7128843  44.0431626  30.1121884  56.6001462  43.6815915
  29.3059292  56.9307475  44.2761869  31.3782154  57.1053095  44.3797786
  32.2246378  56.7148110  43.7826459  31.4395604  58.2110751  44.3164469
  31.3563212  56.5714457  45.8257806  30.6431211  57.2092041  46.2923413
  31.1024152  55.5105941  45.8966685  32.7568573  56.7926675  46.4172930
  33.5047852  56.4241820  45.7644479  32.8803682  57.8858503  46.5580231
  32.9057370  56.2040252  47.7999055  32.0007173  56.4613374  48.3484146
  32.9899053  55.1611104  47.8268058  34.0592980  56.7752840  48.4869949
  33.8415010  57.7267993  48.6547352  34.2679438  56.3772196  49.3901710
  34.8573933  56.6796604  47.8934733  30.0862036  57.1592318  42.2529820
  29.6814145  58.3159866  42.0001862  30.5748342  56.4186465  41.2983618
  31.0157864  55.5196321  41.5203260  30.5636032  56.8714089  39.8874800
  30.9357043  57.9590564  39.7782934  31.4123121  55.9400523  39.0115352
  31.3318545  56.2603680  37.9766421  32.8726239  55.7681096  39.4486916
  33.0118695  55.4386513  40.4436529  33.4625660  55.2079875  38.6994299
  33.3195384  56.6651251  39.6380500  30.8865824  54.6171359  38.9563087
  30.8520900  54.2610995  39.8682556  29.1610363  56.9410498  39.3141240
  29.0211751  57.5489959  38.2530453  28.0442859  56.5242472  39.9201888
  28.0887447  56.0946002  40.8481628  26.7214524  56.9603923  39.5071561
  26.6662682  56.8150262  38.3611919  25.6824464  56.0599073  40.2759627
  25.8396465  56.0810309  41.3291453  24.6920000  56.4540046  39.9926326
  25.7441021  54.6156536  39.8735954  25.5587827  54.5212502  38.8035244
  26.6305564  54.1395516  40.2790503  24.5735305  53.7910891  40.5912841
  24.7890296  53.7068747  41.6613205  23.6551801  54.3296774  40.4005202
  24.1819938  52.5148693  39.9638786  24.8592327  51.8797849  39.6316751
  22.9802489  51.9686285  39.9459162  22.7897047  50.8336325  39.3109028
  23.5810715  50.3748519  38.9373521  21.8507166  50.5504282  39.2685887
  21.9428393  52.4492925  40.4784560  22.0319921  53.2117493  41.2578331
  21.1973674  51.8169841  40.5725153  26.3879978  58.4422546  39.7279663
  25.4813080  58.8971884  39.0162137  27.1140613  59.0642047  40.6201854
  27.8351583  58.5712500  41.1000197  27.0950366  60.5485116  40.7666843
  26.1333883  60.9932074  40.6019762  27.6597945  61.0635142  42.0973080
  27.4306224  62.1264672  42.0586110  26.9231689  60.4133693  43.2621968
  27.1566010  60.9977092  44.1033550  25.8892880  60.3613619  43.0803458
  27.1221453  59.2982053  43.3348678  29.0659561  60.8317538  42.3320025
  29.2861627  59.8527688  42.2500299  27.7901315  61.2251894  39.6604316
  28.5220803  60.5301867  38.9254038  27.6154275  62.5548027  39.4985340
  26.9184493  63.0388456  40.0387619  28.5633165  63.3646340  38.6523927
  28.9850009  62.5959340  37.9966681  27.7015912  64.5067656  37.9910665
  27.2495858  65.0807462  38.7926633  28.2907758  65.0419697  37.2800011
  26.5086770  63.9128404  37.2426769  26.4561020  62.7938921  36.8228107
  25.5425716  64.6912425  37.0790490  24.6697424  64.3045485  36.7275282
  25.6503527  65.6273739  37.4010129  29.7846522  63.9535616  39.3294739
  30.3759899  64.9402252  38.8157714  30.2327883  63.5241040  40.5353847
  29.8097059  62.7083718  40.8947656  31.0913169  64.1950788  41.5777312
  30.8449037  65.2483363  41.5383262  30.5981105  63.6902821  42.9071833
  29.5063907  63.8990433  42.8933221  30.8010635  62.6346404  42.9012359
  31.2848950  64.4427952  44.0153887  31.5259564  65.6846419  43.9004728
  31.3968706  63.8185841  45.0845220  32.5951502  64.0419677  41.2666025
  33.3905008  64.0442249  42.2264791  32.9837486  63.7176061  40.0389965
  32.1813829  63.6013339  39.4649739  34.3396902  63.2078096  39.6669701
  35.1120013  63.6119990  40.2661021  34.4311310  61.6598192  39.7290536
  35.4163557  61.3070108  39.4141816  34.2149477  61.4611599  40.7686374
  33.3963529  60.9116664  38.8819194  32.1460658  60.6414675  39.2475351
  31.7338568  61.0146686  40.1561563  31.4705011  60.0325474  38.2083435
  30.5578672  59.7292507  38.2116884  32.3822426  59.7705755  37.1871988
  32.2427017  58.9616132  36.0682494  31.2501721  58.5076842  35.8740620
  33.3916390  58.6410592  35.2498780  33.3027309  57.9957460  34.3401728
  34.6021513  59.2306117  35.5584233  35.4068838  59.0557467  34.8341279
  34.7829402  59.9835486  36.7623206  35.6868573  60.5323130  37.0704248
  33.6466824  60.2837625  37.5742383  34.7546579  63.6083006  38.1613249
  33.9492074  64.0582062  37.3497393  36.0762370  63.6029303  37.9222142
  36.7613574  63.3611629  38.6876320  36.7210431  63.9650254  36.6306696
  35.9136282  64.0915587  35.8757919  37.5873762  65.2525870  36.6998756
  38.4537648  64.9670185  37.2725860  37.9387738  65.5573381  35.7065510
  36.9532605  66.5212386  37.3718324  35.8365794  66.9188960  36.9850240
  37.6309263  67.2309151  38.1005598  37.6085723  62.7588046  36.1703908
  37.6168133  62.4165717  34.9627815  38.3815963  62.1028888  37.0169867
  38.4534681  62.5529515  37.9281948  39.0443476  60.8417206  36.8746899
  38.9416470  60.5333275  35.8264923  40.5345623  61.0212029  37.0590161
  40.6679748  61.5222299  37.9549078  41.0160616  60.0955111  37.0820004
  41.3014551  61.7999633  35.9479982  42.1654957  61.0056033  35.1108591
  42.1954743  59.9035007  35.2344663  42.9928677  61.7469938  34.1543514
  43.6500537  61.3087633  33.4598999  42.7444528  63.1335291  33.9669523
  43.3945896  63.5957262  33.2021763  41.7825285  63.8397030  34.7935315
  41.7009489  64.9083712  34.6594466  41.1385396  63.1831159  35.7966657
  40.4879817  63.7830031  36.4446746  38.4061391  59.6603184  37.6477638
  38.1966574  59.6416265  38.8446707  38.2909246  58.5646720  36.9283837
  38.3492784  58.5348335  35.8889071  38.4558075  57.2612491  37.5636015
  38.3696420  57.2271100  38.6633766  37.3502243  56.2310356  37.1699993
  37.2470451  56.2693095  36.1315549  37.7717788  54.7962531  37.6422070
  38.7544238  54.5634944  37.1448625  37.8289285  54.7009788  38.7271091
  37.0470358  54.0110475  37.2509056  35.9500933  56.4711913  37.7485341
  35.2919559  55.7363374  37.3844181  36.0896227  56.4059041  38.8224215
  35.6179938  57.5311607  37.5448536  39.8977424  56.7199169  37.3261465
  40.2913956  56.5873792  36.1733319  40.6087839  56.4052308  38.3813510
  40.2054659  56.6314405  39.2946661  41.9109544  55.7925017  38.3424297
  42.4326904  55.8253440  37.3045182  42.8427885  56.6881011  39.2520946
  42.3174178  56.7843570  40.2051233  44.2002188  55.9997892  39.3662663
  44.9140622  56.6351594  39.9426244  44.1829224  55.0122648  39.8786942
  44.5766956  55.9494194  38.3567675  43.0447268  58.1099926  38.6245557
  42.1160144  58.6278347  38.7179340  43.8743225  58.6659551  39.0953626
  43.1819581  58.0466695  37.6046845  41.6472555  54.3197986  38.7055691
  40.8061999  54.0775152  39.5063963  42.2874151  53.4226912  37.9540724
  42.7064051  53.6277449  36.9801033  41.9711882  52.0216600  38.1852464
  41.9047433  51.8841412  39.2493524  40.6108608  51.6644647  37.5680958
  39.8362409  52.3661324  37.9282135  40.6139721  51.7441924  36.0481762
  41.1866080  51.0108297  35.5920767  39.5646950  51.7686175  35.8052919
  41.0201009  52.6993697  35.7304318  40.2629749  50.3238866  37.9327311
  40.9217902  49.6754281  37.5694470  43.1410667  51.2037293  37.7525392
  43.7952525  51.3647117  36.7330243  43.3399820  50.1325572  38.4958219
  42.8139593  50.1351521  39.3322670  44.0500598  48.9828625  38.0288881
  44.8914583  49.2944277  37.3136980  44.6994852  48.3331225  39.2828708
  45.1542102  47.3453236  38.9688081  45.9279754  49.2389136  39.7340348
  45.6647921  50.1998726  40.1454291  46.3960060  48.8712768  40.6369098
  46.7638785  49.3101696  38.9867797  43.7832070  48.0961900  40.3769567
  43.3625172  47.2674913  40.0615495  43.1063300  48.0693201  37.3676508
  41.9194202  48.3265635  37.3163285  43.4590343  46.9365680  36.8684466
  44.4154003  46.6075815  37.0566394  42.6999842  46.1021280  35.9078691
  42.5721845  46.5471919  34.8710618  43.5265154  44.8327984  35.5531469
  42.9425916  44.2810238  34.8325550  44.5665024  45.0583489  35.2444025
  43.7198506  43.8471895  36.6801108  43.8782487  42.6689009  36.3918126
  43.8969783  44.2750288  37.8301408  41.3119127  45.7117313  36.4128713
  40.5365522  45.3493967  35.5535324  40.8191898  45.7492092  37.6599791
  41.4075440  45.9629937  38.4030380  39.4725243  45.3539817  38.1312516
  39.4240332  44.2193749  38.0924023  39.2813527  45.7724796  39.6273738
  40.1489001  45.4100571  40.2222731  39.2402672  47.3332118  39.7664186
  39.2984068  47.6398023  40.8402386  40.0588641  47.7902176  39.1861873
  38.2814473  47.7113836  39.4285441  37.9841028  45.2266853  40.2899906
  38.0065415  45.4274160  41.3473969  37.1062704  45.6152949  39.8289916
  38.0495737  43.6494108  40.2546109  37.8430689  43.2879602  39.2112599
  39.0297242  43.1873321  40.5858552  37.2387533  43.2001799  40.8631439
  38.3068048  45.9270251  37.2562934  37.4395340  45.1354567  36.9689879
  38.2256762  47.2358498  36.8697481  39.0406512  47.8254458  37.0514436
  37.3188711  47.8590081  35.8955493  36.2929209  47.6448902  36.1548897
  37.5042255  49.3787911  36.0366254  38.5250319  49.5260040  35.7639121
  36.8332627  49.9164578  35.3957095  37.4045797  49.8577751  37.3245312
  38.2264462  50.2201121  37.5810965  37.4834118  47.4460535  34.4264906
  36.7601869  48.0101987  33.6156406  38.0962353  46.3798921  34.1274921
  38.6200428  45.8983373  34.8097305  37.8948590  45.6493835  32.8624256
  37.6296686  46.3623715  32.0550549  39.1963540  44.8411489  32.5036376
  39.4305536  44.0442200  33.2755823  38.9956981  44.2327612  31.7163595
  40.4509378  45.7060673  32.2467186  40.3827603  46.2542651  31.3114300
  40.5469191  46.4532769  33.0790385  41.8170023  44.9978346  32.4027885
  42.8927255  45.6673708  32.3664299  41.7382574  43.7448900  32.3166981
  36.6466586  44.7157977  32.7469787  36.2696182  44.3820706  31.6282063
  36.0239941  44.4283831  33.8857444  36.4432872  44.6541485  34.8044789
  34.8112918  43.5570620  33.9062985  34.5857365  43.1019207  32.9370981
  35.2294107  42.3814830  34.8754962  35.6576264  42.7021626  35.8186993
  34.2445504  41.8755363  35.1374115  36.1157540  41.2480102  34.1577045
  36.1631992  40.4229215  34.8766260  35.5598385  40.7936828  33.2900752
  37.8023513  41.6820536  33.6008039  38.4450157  42.2592735  35.1825056
  37.9218621  41.9845643  36.0956562  39.4992562  42.0076104  35.2255245
  38.4053644  43.3377046  35.1395786  33.5471275  44.2981195  34.4006975
  33.4123209  44.5705902  35.6321804  32.5419335  44.5105676  33.6108004
  32.7131712  44.4718679  32.6120866  31.2680169  44.9675373  34.1113259
  30.4427973  44.7267983  33.4826964  31.1695672  44.3095492  34.9814928
  31.2249473  46.4490458  34.4247439  30.1178184  46.9389292  34.7189224
  32.3331162  47.1838918  34.1804802  33.1191342  46.7950924  33.6978148
  32.4040444  48.6407104  34.5622219  31.8188713  48.7673907  35.4735554
  33.8287442  48.8678631  34.9566388  34.0090789  49.8882905  35.1964080
  34.2130251  48.3696515  35.8158281  34.4614137  48.6218577  34.1493634
  31.7899271  49.5853044  33.5861744  32.4500208  50.0104046  32.6420052
  30.5497739  49.9082952  33.9011036  30.0545652  49.4948380  34.6671695
  29.8068099  50.9890424  33.1845330  30.1434127  50.9033017  32.1284328
  28.2887709  50.7341162  33.2533795  28.0185053  50.3985721  34.2350807
  27.6693581  51.6194303  33.0546832  27.8074283  49.6891018  32.2411222
  27.9035427  49.8326472  31.0887157  27.0504357  48.6716389  32.6364751
  26.8286926  47.9486639  31.8715574  26.8529532  48.4296843  33.5707099
  30.2688747  52.3617443  33.6648704  30.3121234  52.6231069  34.8755051
  30.3954930  53.2526181  32.6864191  29.9570272  52.9802943  31.8251322
  30.7550277  54.6843254  32.9157582  30.4131127  54.8949178  33.9131510
  32.2841691  54.8016960  32.9419119  32.6803433  54.6230905  31.9425245
  32.4908517  55.8161532  33.1777434  33.0687262  53.9952265  33.9107200
  32.8171059  54.1973750  35.2778304  31.9498452  54.7137428  35.6159489
  33.5169144  53.4893998  36.1676427  33.3565905  53.5844364  37.2549152
  34.6238421  52.6931611  35.7607439  35.2042588  52.1321643  36.5023383
  34.8636995  52.4533760  34.4234578  35.6393747  51.7343716  34.0281398
  34.0307398  53.0618765  33.5227757  34.2849872  52.9574095  32.4587814
  30.0618363  55.7637608  32.0810723  29.7590630  55.5717055  30.9148164
  29.9021275  56.9288737  32.7496464  30.0956622  56.8402362  33.7594218
  29.6639843  58.2381313  32.0658584  29.3590187  58.1404363  31.0601448
  28.5200512  59.0095250  32.6921639  28.8916460  59.1499579  33.7029571
  28.5184190  59.9771330  32.1607461  27.1477486  58.2705047  32.5351505
  26.8968960  58.1227716  31.4882190  27.2462919  57.2909825  32.9785127
  26.0888204  59.0835278  33.3212059  26.3246399  59.0467678  34.3620543
  26.0426473  60.1208394  32.9992337  24.6775008  58.5594410  32.8978500
  24.6263693  58.5475992  31.7823662  24.6142958  57.5213295  33.2758009
  23.6281821  59.4392290  33.5289875  23.9060952  59.6567465  34.4701554
  23.5744276  60.3649386  33.0730146  22.7647013  58.9663852  33.5731707
  30.9424969  59.0293908  31.9113332  31.2229825  60.0932919  32.5174715
  31.8245028  58.4256471  31.0913338  31.5068201  57.6167226  30.6048482
  33.1341348  58.9935476  30.7674470  33.3109848  59.9362413  31.2582171
  34.3310769  58.1468809  31.2349199  35.2280527  58.5665308  30.8651068
  34.3397622  58.1029997  32.3229666  34.2043673  57.1070887  30.9323474
  33.3001008  59.1655235  29.2246241  32.7244474  58.3975632  28.4821736
  34.0825113  60.1590237  28.7737873  34.5675049  60.7501474  29.4345554
  34.2973303  60.4426980  27.3756033  33.6176978  59.9384533  26.6857948
  33.9516778  61.9002529  27.1451121  34.6656210  62.5748591  27.7121933
  34.0982764  62.1619420  26.1284405  32.5356460  62.3203155  27.4053166
  32.3791092  63.1668468  26.6835274  31.8561527  61.4873540  27.1327715
  32.2844278  62.8177216  28.8136176  31.3565893  62.2664198  29.4586763
  33.0796222  63.6762041  29.3223033  35.6993716  60.1388742  26.8146385
  35.9459519  60.3669002  25.6563626  36.6118494  59.6049551  27.6952893
  36.4035172  59.5569419  28.6980350  37.9754736  59.4152576  27.3577695
  38.0293306  59.1293594  26.3423692  38.7877309  60.7734062  27.4876841
  38.3280087  61.4335618  26.6859522  38.6827005  61.1765536  28.4961969
  40.3540511  60.5703092  27.2612799  40.8311115  59.9115430  27.9820436
  40.5973461  60.0640594  26.3119545  40.9801944  61.9717789  27.4020642
  41.9014724  61.8647996  26.9573651  40.4304313  62.6647811  26.8327560
  41.1495154  62.3664017  28.8179817  40.4865273  61.9700082  29.4643303
  42.0493688  63.2743319  29.2110021  42.9812659  63.8530346  28.5144862
  42.9696000  63.8936479  27.5041157  43.6321020  64.4642921  29.0226212
  41.9971714  63.5342227  30.5026001  41.3798280  63.0400499  31.1440853
  42.5489089  64.3204486  30.8533088  38.6439427  58.2194075  28.2112663
  38.6002810  58.2813626  29.4439860  39.1908614  57.2429723  27.5293706
  39.1254112  57.3358244  26.5730359  40.0074909  56.2316154  28.0791851
  39.7193768  55.9985595  29.1336725  39.8226928  54.8739982  27.3673248
  39.8015567  55.0756375  26.2901305  40.8859643  53.8540570  27.6439312
  41.0846814  53.7802158  28.6428949  40.5295207  52.8637505  27.2394111
  41.7879621  54.1553075  27.1039812  38.4473634  54.2668889  27.6869618
  38.5361902  53.6353692  28.5870663  37.7609212  55.1123962  27.8519243
  38.1458509  53.6851503  26.8283818  41.4011034  56.8103843  28.1470166
  41.8539947  57.4730014  27.1708269  42.1877022  56.4568721  29.1043035
  41.7690253  55.9973157  29.9130088  43.6747606  56.5809634  29.1473441
  44.0089715  56.9172882  28.1916017  44.1994672  57.6926121  30.1072241
  43.6550239  57.4987839  31.0426276  45.7456720  57.5736695  30.2228925
  46.2164137  57.6143580  29.2664236  46.1824963  58.3112601  30.9001230
  45.9481641  56.5803801  30.5854906  43.7667441  59.0301972  29.5868164
  44.0534812  59.0874190  28.5583992  42.6860757  59.0858987  29.6518269
  44.2690793  60.2277027  30.3700377  45.3756386  60.3553641  30.3707977
  43.9103839  61.1397475  29.8979124  43.8584803  60.1070475  31.4003016
  44.1433092  55.1535451  29.4208433  44.0489656  54.5661347  30.4630505
  44.7335992  54.5598827  28.4086393  44.7511736  55.0425041  27.5162414
  45.2005637  53.1398736  28.3778399  45.1780862  52.6873305  29.4068676
  44.2712494  52.3810995  27.4978513  43.2406721  52.4846110  27.9157731
  44.3548969  52.7079196  26.4584270  44.5240777  50.8494682  27.5310186
  45.3399378  50.3880567  28.3412557  43.8769644  50.1110341  26.7591471
  46.6372879  53.0075505  28.0081616  46.9152273  52.6879499  26.8362045
  47.5369129  52.9525386  28.9221660  47.4554362  53.5652093  30.2597292
  46.6597338  53.0561893  30.7321096  47.1960925  54.5991022  30.2011208
  48.8503112  53.3867217  30.9341438  48.7550951  52.4842664  31.4152860
  49.0953395  54.2294631  31.6149972  49.7657252  53.2063061  29.7318075
  50.5970792  52.5395609  30.0641916  50.1683265  54.2169726  29.5011560
  48.9452033  52.5547174  28.6743295  49.1040079  53.0863066  27.7066015
  49.2234047  51.0539750  28.5193546  50.3828385  50.7325752  28.4998364
  48.2459503  50.1559364  28.3345506  47.3231170  50.6055839  28.3420543
  48.4292803  48.7778144  27.8980550  47.4410993  48.3709390  28.0321466
  48.5471975  48.6863502  26.3793696  49.1640876  49.4834628  26.0899410
  48.9438728  47.7102038  26.0169170  47.1356009  49.0537365  25.7111774
  46.4650105  48.1965271  25.6949169  46.7242914  49.9661984  26.1189693
  47.3877840  49.3802382  24.1858957  48.1314796  50.2300574  24.1196636
  48.0521255  48.6127114  23.8006283  46.2315645  49.4667829  23.3652752
  45.3368765  49.4112648  23.8069004  46.1877654  49.3101491  22.0607183
  47.2596016  49.2029073  21.3367685  48.1710740  49.3592403  21.7430899
  47.1197350  48.9935463  20.3641189  45.0532281  49.2972762  21.4839601
  44.2850528  49.3055920  22.1065172  45.0410458  48.8549675  20.5016639
  49.4633139  47.8623244  28.6307491  49.8691644  46.8632139  28.0910060
  49.6937638  48.0939293  29.9261566  49.1656678  48.8269124  30.3447324
  50.7388273  47.4667765  30.7271094  50.9032536  46.4719011  30.3614092
  52.0796620  48.2298805  30.5864400  51.8078373  49.3740634  30.5912053
  52.7622030  47.9699852  31.4173772  53.0060255  47.9705721  29.4366479
  53.2852127  46.9515894  29.5236352  52.4970765  48.0038533  28.5009510
  54.1920619  48.8499647  29.3710342  54.0068339  49.8840154  29.0093111
  54.5601961  48.7157050  30.4157144  55.2778588  48.2637691  28.6445843
  56.0546745  47.8063282  29.2303109  55.6033069  48.2044513  27.3497905
  54.7827403  48.5027728  26.4255140  53.8894065  48.8332116  26.6049197
  54.9567964  48.2472338  25.4724395  56.7780447  47.7603427  27.0098256
  57.3997785  47.3234973  27.6931077  57.0250359  47.7433329  26.0345429
  50.3299306  47.3551391  32.1496771  49.7156107  48.3083661  32.6869663
  50.7184650  46.3481505  32.8789837  51.2250347  45.6039072  32.3794589
  50.3411203  46.0435010  34.2852684  49.8882297  46.8967507  34.8346999
  49.2719914  44.9139100  34.1652661  48.9871118  44.6724042  35.1870188
  48.3655115  45.3931302  33.7064338  49.7894944  43.4400445  33.2859967
  48.5960767  42.8432764  33.3045914  51.5380175  45.5299326  35.0591453
  52.4731799  44.9371124  34.4939518  51.5128824  45.6699182  36.3851757
  50.7636002  46.1174692  36.8243298  52.3397913  44.7342091  37.2257653
  53.2892245  44.6706321  36.7600036  52.4064853  45.3080075  38.6501690
  51.4225398  45.4193817  39.0728134  52.9370641  44.6977177  39.3069495
  53.0422617  46.6337837  38.7178758  52.4589692  47.3876722  38.1097548
  53.1953018  46.9795727  39.7753861  54.6998229  46.7798528  37.9944990
  55.8961311  45.6980544  38.8136998  55.8432165  44.7439599  38.2526441
  56.8219726  46.2581996  38.7379991  55.6058611  45.5311449  39.9090759
  51.7043586  43.3628836  37.2278672  50.5743530  43.2873017  37.8032119
  52.3119262  42.2699670  36.7369125  53.2143677  42.3885903  36.3726821
  51.6422451  40.9581577  36.5783786  50.5720949  40.9492097  36.7110255
  51.8093401  40.5263581  35.1320859  51.5519794  41.2401747  34.3779125
  52.8078129  40.1417206  34.9929512  51.0291888  39.2130450  34.7633527
  51.5297318  38.3724533  35.2319252  50.0645276  39.2417773  35.0836808
  51.0389930  39.0666712  33.2660867  50.4550117  38.1525964  33.0833786
  50.6414347  39.9536479  32.6882235  52.5104842  38.9611455  32.6583907
  52.7999671  39.9921179  32.6055329  53.2126464  38.3880833  33.3215317
  52.5813046  38.3389467  31.2814171  52.2245856  39.0079281  30.6642872
  53.5105283  38.0556632  31.0050493  52.0866439  37.4340284  31.2765678
  52.2531309  39.9158904  37.5053031  53.4889675  39.8191200  37.5082292
  51.4612949  39.0886024  38.1296651  49.9709133  38.9709626  38.1504631
  49.6069429  38.6659117  37.1828882  49.6653216  39.9448941  38.5014923
  49.5703699  37.8413993  39.1161084  49.5702069  36.9417930  38.4379089
  48.5940742  37.9636205  39.6411274  50.8020539  37.6790828  40.0141233
  50.8429976  36.6049037  40.3489391  50.6088835  38.3906059  40.8435927
  51.9854615  38.0794650  39.0522360  52.7949473  38.4420974  39.6693513
  52.5458019  36.9401685  38.1872304  51.8323032  36.3162913  37.4235498
  53.8586584  36.6563306  38.3130873  54.4147817  37.2884852  38.8509362
  54.6383988  35.7197108  37.5373644  53.9196563  34.9296294  37.1403867
  55.3873301  36.3214701  36.3181570  55.9158824  37.2376973  36.6155129
  56.4476160  35.4069164  35.6227147  56.0095982  34.4515526  35.2580011
  57.0984550  35.9601405  34.9581753  57.1098590  35.2601292  36.5086567
  54.3641692  36.8094003  35.3142622  53.7373933  37.6111455  35.7526508
  54.8794926  37.1056181  34.4299371  53.8503854  35.9030617  35.1089061
  55.5656544  34.8459975  38.4551607  56.3318297  35.3544489  39.2381805
  55.4946265  33.5371829  38.3459945  55.0452880  33.1449734  37.5717307
  56.2346228  32.6234380  39.2323742  56.4436071  33.0466043  40.2612490
  55.3724318  31.3969819  39.4478660  55.3353198  30.8133817  38.5497127
  56.0461767  30.5242253  40.5125873  55.3290293  29.7182238  40.7225065
  56.9980342  30.0138777  40.2092423  56.3025926  31.1246661  41.4455701
  53.9490924  31.7061230  39.9587605  53.9230719  32.3640855  40.8192121
  53.4486535  32.2965561  39.1939452  52.9666772  30.5118125  40.2170603
  53.2203519  29.9859922  41.1308933  51.8961207  30.7763110  40.2553111
  52.9242167  29.8732493  39.3395475  57.6425485  32.3026385  38.8037566
  57.8108193  31.7660702  37.6718460  58.7333930  32.5366027  39.5932175
  58.5455172  33.0629470  40.4221201  60.0903762  32.0014245  39.4017445
  60.1754369  31.6613431  38.3968593  61.2010865  33.0572479  39.6601507
  61.0369121  33.5128041  40.6602613  62.1762591  32.5597850  39.5689531
  61.1624907  34.2191246  38.6685118  60.2985252  34.8644516  38.9991214
  62.4190468  35.1772484  38.8520941  63.3387170  34.6639127  38.5947266
  62.3682202  36.0118350  38.2008764  62.3560928  35.6137060  39.8703445
  61.0114697  33.8638509  37.2292949  59.9773479  33.4526563  37.0041607
  60.9365137  34.8314401  36.7660107  61.8603771  33.3225465  36.8222353
  60.2911750  30.7089922  40.2475361  59.6362696  30.5700918  41.3241189
  61.1777901  29.8622766  39.7346942  61.6301358  30.1292961  38.9112043
  61.5107691  28.5311761  40.2188983  61.1664663  28.3519471  41.2555725
  61.0537886  27.4093534  39.3253856  61.5093443  26.5001031  39.6612538
  59.5354281  27.2860980  39.4124080  59.2547302  26.7554314  40.3759805
  59.0078087  28.2420070  39.2659871  59.2213121  26.6297595  38.6463371
  61.3472337  27.6612698  37.9969333  60.9435087  28.4153979  37.5964297
  63.0368379  28.3196090  40.3657626  63.5534408  27.4063600  41.0310097
  63.8318648  29.2129480  39.8047312  63.3429229  29.9460137  39.3064104
  65.3247237  29.0501712  39.7470933  65.5593814  28.0310312  39.4723302
  66.0360574  30.0752763  38.8449767  67.0926119  30.0864279  38.9609170
  65.8364664  29.8957920  37.7637421  65.5171128  31.5000460  38.9982205
  64.5398362  31.8410658  38.3768216  66.0617901  32.2481574  39.8312741
  65.8427005  29.2166550  41.1967098  65.6511548  30.2137304  41.8316275
  66.4099609  28.2110049  41.9009676  66.4154608  27.3156810  41.3528947
  66.8470074  28.1022326  43.3558774  67.4585147  27.2240236  43.4358122
  67.4544946  28.9619666  43.6471004  65.7182398  28.0799862  44.3509331
  65.8757295  27.4301224  45.4019847  64.6131621  28.7122791  44.1288340
  64.6184752  29.2185928  43.2579255  63.3336158  28.7568008  44.9667172
  63.2126943  27.7672167  45.3651024  63.5897791  29.7232297  46.1455671
  64.2495490  29.2081353  46.8910965  64.0869974  30.6115550  45.8209159
  62.3304741  30.2224205  46.8802074  62.6268289  31.0520326  47.5287891
  61.6006520  30.6367954  46.0802385  61.6840961  29.1702103  47.7467184
  61.7560946  27.9614921  47.4284604  61.0201275  29.5703145  48.7007661
  62.1056935  29.1138796  44.1545925  62.1908342  30.0471262  43.3752219
  61.0221988  28.4094207  44.2965657  61.1072312  27.5736353  44.8046477
  59.7172438  28.7723662  43.7642740  59.8181771  28.9711600  42.7380534
  58.6874868  27.6171477  43.8594471  59.0774629  26.6449400  43.4752384
  58.2846839  27.4926889  44.8928397  57.5126218  27.9237989  42.9838475
  56.9283715  28.7937411  43.3481119  57.7779177  28.1231401  41.9152144
  56.6063140  26.7247569  42.9498844  55.5658736  26.6135012  43.6809958
  56.8628464  25.8242164  42.1300424  59.2119442  29.9779496  44.5270696
  58.6797851  29.7662685  45.6550749  59.2433401  31.1652533  43.9289294
  59.6436808  31.2038072  42.9940618  58.6184099  32.3675323  44.4887391
  57.9087482  32.0995206  45.1958631  59.7081997  33.1744280  45.1713400
  59.1887391  34.0234709  45.7103764  60.2850614  32.4508689  45.7902641
  60.7429881  33.9439818  44.3104832  60.2997793  34.3911340  43.4655333
  61.1872314  34.7502798  44.9223400  61.8969446  33.0237940  43.7765323
  62.2758806  32.4063706  44.6344305  61.3492485  32.3541355  43.1191914
  62.9008846  33.7183586  43.0044503  63.1177110  34.6639640  43.2243265
  63.5761727  33.2588801  42.0044976  63.5035934  31.9570929  41.7984607
  62.9434639  31.3782785  42.4449745  64.2494241  31.4678642  41.3559072
  64.3515008  34.0367806  41.3001966  64.4986929  35.0129049  41.5233126
  64.9737112  33.5989350  40.6421865  57.8265845  33.1375638  43.4128770
  58.1751538  33.1458359  42.2197718  56.7295576  33.8161486  43.8253430
  56.4799436  33.8980374  44.8675207  55.9270287  34.6864926  42.9519828
  56.0497205  34.2357848  41.9344605  54.4303370  34.5116893  43.3720474
  54.2678944  34.9981605  44.3233160  53.6000515  35.1644479  42.2552590
  53.4781428  34.4178833  41.4460003  52.6437027  35.4430152  42.6524147
  54.0529275  36.0885781  41.8964918  53.9666756  33.0582478  43.6213020
  54.2367604  32.8122817  44.6643802  52.9059136  32.9471172  43.4804264
  54.4655574  32.4398131  42.9034765  56.3969112  36.1327000  42.8868747
  56.2456958  36.8085272  43.9265323  56.8542257  36.6284382  41.7275927
  56.9949773  35.9645293  40.9708245  57.3181958  38.0164024  41.5744917
  57.5279199  38.3454304  42.5921808  58.5693246  38.1259990  40.7373473
  58.9320853  39.1529060  40.8519572  59.6322358  37.2107472  41.3305681
  60.6594848  37.5376716  41.1079995  59.5726711  37.0401088  42.4310584
  59.6641957  36.2555979  40.8772143  58.3645283  37.9359364  39.2414562
  58.2155654  36.8611582  39.1558069  57.4062208  38.4215226  38.9198696
  59.5345759  38.5070463  38.4284556  59.3812646  38.4227517  37.3485633
  59.8227629  39.4979655  38.7425500  60.4767636  37.9201162  38.5157942
  56.2318591  38.8664396  40.9991222  55.2676116  38.3271600  40.4409849
  56.3798664  40.2076297  41.0113152  57.1122195  40.5008004  41.6338116
  55.5985882  41.2414094  40.2972208  54.7839016  40.6957695  39.8056527
  54.9328574  42.3078096  41.1953070  55.7510656  42.7649517  41.7334313
  54.3905055  42.9679444  40.5529072  53.8204311  41.7605772  42.1448186
  54.2048174  40.9188457  42.7098866  53.5196424  42.8847322  43.0909587
  54.4040206  43.1338048  43.6542166  53.1964264  43.6667746  42.5810245
  52.6349152  42.7329762  43.6540252  52.6344566  41.3172400  41.3462515
  52.9110441  40.4698143  40.7471782  51.8112192  41.0249806  41.9934637
  52.2880555  42.0691734  40.7146628  56.3907013  41.6997528  39.0660808
  57.2473812  42.6201527  39.2865918  56.2648475  40.9763621  37.9437508
  55.5132556  40.3184536  37.8476366  56.9703040  41.3182070  36.7241327
  57.9901621  41.6915992  36.9303974  57.0054103  40.0728110  35.9046130
  57.3846422  40.3189994  34.8705051  57.8060445  39.4715062  36.2977412
  56.0252196  39.5542938  35.8407480  56.2247937  42.4533965  36.0311288
  55.0362109  42.4008507  35.6958456  56.9781228  43.4334327  35.5499310
  57.9837725  43.4567409  35.6968179  56.5308871  44.5690576  34.7483828
  57.0958028  44.6003366  33.8164413  55.4430917  44.4750020  34.6259636
  56.9246225  45.9961049  35.1562067  57.9896115  46.1175263  35.7683745
  56.2231368  47.0447134  34.7366709  56.3701877  48.3958862  35.3156126
  57.0302928  48.9913265  34.7017833  56.5876523  48.2580268  36.3200823
  55.0351930  49.0903360  35.2036549  55.0851047  50.1715963  35.2539468
  54.3315531  48.7070068  35.8898121  54.6533009  48.5254462  33.8446555
  55.2132282  48.9932050  33.0684607  53.5926718  48.6734424  33.7679871
  55.0452355  47.0421209  33.8819612  54.2313730  46.5462331  34.4153821
  55.0965503  46.4404182  32.4828289  55.7680914  46.9061038  31.5832444
  54.4704622  45.2859959  32.3138283  53.7117037  45.0561640  32.9822123
  54.5992556  44.3717823  31.1896279  55.4388910  44.7206179  30.5557189
  54.9622899  42.9639594  31.7081992  55.8451364  43.0267006  32.4148970
  54.1111813  42.6524160  32.3111600  55.3619196  41.9354408  30.6462234
  54.4473920  41.8834755  30.0092360  56.1966173  42.2011914  30.0815239
  55.6924535  40.2920268  31.3496513  57.3057337  40.2976157  31.9383006
  57.3947078  40.9878683  32.7823260  57.5924014  39.3211201  32.2720524
  57.9112326  40.7370417  31.1368918  53.2257260  44.3485743  30.3772360
  52.1315893  44.3597829  31.0520444  53.2513767  44.2703475  29.0714199
  54.4063546  44.3764240  28.2396191  55.2097850  43.6507171  28.4839352
  54.9067720  45.3250286  28.3042494  53.9584896  44.1510911  26.8801718
  54.0422722  43.0820228  26.7202513  54.5810547  44.6433594  26.1577838
  52.5292964  44.6057423  26.7752402  51.7888803  44.0624230  26.1560202
  52.4548826  45.6896654  26.4169230  52.0869320  44.5564771  28.2205887
  51.8020363  45.5667897  28.5209753  50.9001472  43.6147416  28.5170029
  51.1263927  42.4127644  28.4845923  49.6406240  44.1300374  28.5848551
  49.5885236  45.0962715  28.4180395  48.3386184  43.4706059  28.8498968
  48.6007478  42.9126828  29.8305230  47.1466303  44.3670549  29.2163881
  46.2703213  43.8623444  29.6041928  47.5698843  45.2030058  30.4130541
  48.2632425  46.0497482  30.1665628  46.7314178  45.3753497  31.0078353
  48.2080010  44.5597290  31.1098847  46.6682403  45.2721579  28.0931576
  46.1213237  44.7323596  27.3684840  46.0413893  46.0664621  28.4569204
  47.5438041  45.6726680  27.6189525  47.9136530  42.4585545  27.7982978
  48.4185418  42.5276718  26.6999495  46.9873397  41.5578877  28.0782234
  46.5379061  41.6638390  28.9809856  46.2888107  40.7305026  27.0388530
  46.9339789  40.1827860  26.3450025  45.3676119  39.6317407  27.5099787
  45.0599583  39.1245497  26.5737904  46.0542292  38.7025184  28.5579165
  45.4886878  37.7599191  28.7892594  47.0107399  38.2768432  28.0657150
  46.4304351  39.1877968  29.4663469  44.1788611  40.0355090  28.0989115
  43.6426284  39.2763829  28.2466016  45.4859513  41.5883686  26.0492241
  45.1045476  42.7073250  26.3313071  45.0559392  41.1079839  24.8564838
  45.1952523  40.1209184  24.6725604  44.2249567  41.8471277  23.8612856
  44.6863983  42.8643655  23.7569406  44.2571063  41.1539003  22.5037294
  43.8731008  40.1490094  22.5324151  43.5626999  41.7257995  21.8698799
  45.5335865  41.0933263  21.7558770  45.6607915  41.0083831  20.3610626
  46.9483532  40.9756556  20.0888485  47.3870444  41.0354720  19.0583934
  47.6854041  41.0030973  21.2289613  48.6747036  41.1604878  21.2203164
  46.8209491  40.9215969  22.2825708  47.0489910  40.9391664  23.2896862
  42.8000048  42.0300913  24.2820331  42.3161042  43.1769373  24.2338128
  42.2215355  40.9645039  24.8590290  42.7279170  40.0757177  24.9840610
  40.9542527  41.0073880  25.5133940  40.1598289  41.3208538  24.8398677
  40.6320328  39.5913895  26.1124684  41.4498868  39.3643270  26.7905446
  39.6498029  39.5518936  26.6900239  40.6730407  38.6565047  25.0463858
  40.5706169  37.8479773  25.5730438  40.9592455  42.0772636  26.6937609
  39.9710461  42.8184335  26.9536980  42.1761644  42.3250772  27.2781470
  42.9568404  41.7054179  27.1093544  42.2493524  43.4148153  28.2729794
  41.3932054  43.3955658  28.9093798  43.4643106  43.0514573  29.2486799
  44.4067722  43.1175854  28.7327180  43.4818982  43.8893677  30.0026651
  43.3583991  41.7840432  29.8290005  43.6231225  41.0570803  29.1713237
  42.3057479  44.8310107  27.6791893  41.5254285  45.7098966  28.0752533
  43.2025670  45.0509670  26.7106584  43.7719581  44.2602195  26.4867392
  43.2814206  46.3351461  25.8940090  43.5536813  47.1938441  26.5424582
  44.4388485  46.1066659  24.8960061  44.5832186  47.1979590  24.6802933
  45.3297122  45.7459548  25.3941159  44.1530866  45.5828930  24.0341202
  41.9392186  46.7141787  25.1023494  41.5124622  47.8953099  25.0741200
  41.1584383  45.6704428  24.7185281  41.5636138  44.7256588  24.8642854
  39.8474982  45.7052598  24.1041427  39.7900522  46.4141726  23.2870236
  39.4889112  44.2972251  23.5724611  38.4386058  44.2242360  23.2330024
  40.2554153  44.0554734  22.8056892  39.5384489  43.5790706  24.3482483
  38.7391240  46.1923628  25.0793929  38.2400095  47.2829038  24.9114385
  38.4561538  45.4426215  26.1405956  38.9703024  44.5638994  26.2000352
  37.5048275  45.8482832  27.1712964  36.5431996  46.0746299  26.7262913
  37.5161284  44.6339407  28.1044447  38.5582936  44.4050723  28.4073196
  37.0994681  44.9804527  29.0459000  36.7958071  43.3503971  27.7228729
  37.1406255  43.0376349  26.7724680  37.0966547  42.5033967  28.3171423
  35.2390439  43.5112131  27.7119606  34.7652008  44.5978315  27.6958867
  34.4905651  42.4747251  27.6306225  33.4595075  42.5153023  27.7220273
  34.9839869  41.6152916  27.5766510  37.8360586  47.1734411  27.9192778
  36.9134271  47.8274811  28.5121347  39.0340985  47.6320139  27.9506964
  39.7869973  46.9436088  27.8161030  39.3660006  49.0346079  28.2896078
  39.0480575  49.1790558  29.3149661  40.9039288  49.0806926  28.3902632
  41.2770860  48.7008571  27.4812172  41.1731786  50.1170809  28.4845651
  41.5300848  48.4597135  29.6614849  41.3787958  49.1277869  30.5097154
  41.2376174  47.4406670  29.8892539  42.9941003  48.1890502  29.3092699
  43.1035111  47.6203497  28.3941471  43.3323419  49.2455855  29.1690169
  43.7070689  47.5978505  30.3763878  43.2023993  46.8380031  30.8065645
  44.8948933  47.7918086  30.8812798  45.6608014  48.6978581  30.4555101
  45.3889341  49.1698004  29.6113051  46.3939457  49.0938051  31.0207171
  45.2980971  47.0349954  31.8102549  44.6390500  46.3411561  32.1260391
  46.0652076  47.3023515  32.3048030  38.7856126  50.0540817  27.2876719
  38.0019987  50.8906869  27.7160233  39.1838712  49.9515774  26.0210724
  39.9591572  49.2905689  25.8229283  38.5411708  50.6387807  24.9877886
  38.6997653  51.6952538  25.1056840  39.1731840  50.1849875  23.7516889
  40.3092462  50.2868039  23.7974453  39.0858025  49.0943871  23.5291716
  38.6821470  50.9981748  22.5465363  37.7285607  50.6051175  22.2218893
  38.5513227  52.0350413  22.8433640  39.7526313  50.7780535  21.4321197
  40.7847715  50.9789089  21.7459736  39.7073944  49.7685068  21.1534290
  39.3911894  51.5634631  20.2127450  40.0449130  52.3213329  19.9682228
  38.4596759  51.3512073  19.3237529  37.5170624  50.4960324  19.5244775
  37.4511115  50.0497385  20.4404911  36.9412664  50.1109544  18.7494631
  38.4538622  52.0330755  18.2656885  39.1982923  52.6803559  18.1468000
  37.7947086  51.9620640  17.5814852  37.0215187  50.4836555  25.0495393
  36.3339858  51.4536238  24.9785672  36.5739148  49.2599625  25.4127450
  37.2743230  48.5695238  25.4351590  35.1486448  48.8818816  25.6638957
  34.6697561  48.8728179  24.6845867  35.0968817  47.8619016  26.0369999
  34.2903194  49.7185403  26.6361139  33.0757094  49.6748735  26.5768219
  34.9297297  50.4477852  27.6050026  35.8990171  50.2610317  27.7482870
  34.1976482  51.3690164  28.5339624  33.2435578  50.9081415  28.8880585
  35.2024481  51.8300758  29.6486688  36.0349714  52.4261622  29.3145313
  34.6332158  52.3943467  30.4019789  35.8684612  50.7074277  30.3814866
  36.6702608  50.2257141  29.8300692  36.2852094  51.2391320  31.1771170
  34.8825140  49.6782719  30.8810211  35.3913993  49.3693734  31.8042190
  33.9489776  50.1880464  31.0799136  34.6743777  48.4630900  30.0263779
  35.4775278  47.9879373  29.6123663  33.5095377  47.9085103  29.7494462
  32.4138293  48.3063313  30.4120648  32.5478805  48.8893420  31.2804847
  31.5319140  47.8506997  30.3156936  33.4235512  46.9017664  28.9527233
  34.1824710  46.5120400  28.4938570  32.5538443  46.4603091  29.0158459
  33.6880233  52.7247227  27.8975642  32.9072501  53.4515730  28.5172396
  34.0466950  52.9646310  26.6845421  34.6540229  52.2754094  26.3585525
  33.5529627  54.0738128  25.8528948  32.7011798  54.6052985  26.3441829
  34.6450107  55.1719014  25.6439485  34.2997481  56.0340564  25.0521032
  34.8872473  55.7599975  27.0146770  35.4335967  54.9512427  27.5356061
  35.4822466  56.6751550  26.9177307  33.9370621  55.9288196  27.4241626
  35.9513699  54.6367122  24.9554163  36.4879215  53.9045559  25.6199941
  35.7159609  54.0904226  24.0329690  37.0485052  55.7362777  24.6818905
  38.0544284  55.2231786  24.3621885  36.7439451  56.5117418  24.0447902
  37.1443891  56.0997256  25.7284847  32.8754189  53.6659829  24.5553905
  32.8622444  52.4402893  24.3126272  32.3842668  54.6167286  23.7949629
  32.4071549  55.5659339  24.1358555  31.5439891  54.2687652  22.6267735
  31.3143158  55.1708718  22.0417995  32.1338371  53.6426721  21.9672869
  30.2651620  53.5358501  22.9747475  29.6379309  52.9844978  22.0958493
  29.8502954  53.4318136  24.2136073  30.0484598  54.1465760  24.9440409
  28.7694290  52.5110884  24.6853282  28.6379682  51.6976806  23.9364717
  29.2643810  51.6667838  25.8818208  28.5052143  50.9300331  26.0582670
  30.2253875  51.2631379  25.5019262  29.5360930  52.4999823  27.1539238
  30.2103264  53.2423435  26.9383171  28.6116388  52.7781260  27.7006961
  30.2683491  51.6223760  28.1871320  31.2033729  51.3516512  27.7929813
  30.5880646  52.3438570  28.9741772  29.5137582  50.4855201  28.7357185
  28.5680068  50.6923522  29.0868273  29.7018347  49.2309912  28.5240643
  28.9904171  48.2857885  28.9682290  28.4426642  48.5181780  29.7951315
  29.4090921  47.3956995  28.7709586  30.6620884  48.7565763  27.8071016
  31.4048073  49.3811082  27.4344925  30.9554163  47.7567535  27.9599424
  27.3904664  53.1508216  24.7946671  26.3727818  52.4761165  24.9613140
  27.4088339  54.5209335  24.5493739  28.2689257  54.9747292  24.3886722
  26.1450265  55.2411145  24.2657078  25.2781824  54.6716466  24.6079603
  26.1880399  56.4269874  25.2697967  26.2836293  56.0230612  26.2734489
  27.0664145  57.1154537  25.0924525  24.9080863  57.3352929  25.2151029
  23.9494979  57.1710285  24.4925535  25.0008547  58.3741072  26.0447039
  24.2704941  59.1332075  25.8940699  25.8431831  58.4218266  26.6578634
  26.1213986  55.8150343  22.8294137  27.0307680  56.5735323  22.5159960
  25.1030780  55.3914659  22.0424272  23.9927768  54.4975851  22.4367946
  23.2454494  55.0770435  23.0752738  24.3411241  53.6332750  23.0059798
  23.2768381  53.9777692  21.1048404  22.2543813  53.6691414  21.2542860
  23.9717636  53.2106070  20.6735919  23.4910851  55.3129047  20.3632558
  22.7246447  56.0615103  20.4470076  23.3843023  55.0905325  19.3230862
  24.8805649  55.8785451  20.6727891  25.6586571  55.4389805  20.0245551
  24.7865162  57.3992062  20.5098650  25.0051412  57.9001422  19.4545877
  24.3264313  58.0950426  21.5695147  24.1394171  57.5325893  22.3829544
  24.3540392  59.6139643  21.6386398  24.0557418  60.0599157  20.6573498
  23.3083763  60.1321031  22.6300398  23.5213624  59.7963621  23.6939160
  23.1782209  61.1529358  22.4359539  21.9010084  59.5447557  22.4612334
  21.5838073  59.6989453  21.3915825  21.9747667  58.3825894  22.5619449
  20.9156909  60.0546949  23.5171909  21.2587615  59.6459135  24.5164329
  20.8773889  61.1114078  23.3970922  19.5648104  59.4819005  23.1285913
  19.3128924  59.9058198  22.1735253  19.7458420  58.3769654  23.0064834
  18.6323867  59.8630432  24.1689234  18.5927159  60.8834356  24.2523742
  17.6460711  59.6493127  23.9811929  18.9012347  59.4459429  25.0652557
  25.7480557  60.2829091  21.9373681  25.8030609  61.5373012  21.8854390
  26.7814969  59.5376144  22.2412061  26.6588280  58.5519710  22.3529963
  28.1415800  60.0174428  22.3106311  28.1707742  61.1358900  22.2134656
  28.6705071  59.7082667  23.7327867  28.6778069  58.6648986  23.9605914
  29.7283584  59.8282477  23.6747941  28.1301981  60.6136918  24.8439394
  26.9155687  60.8595829  24.8957481  28.9055089  61.1007402  25.7925057
  28.4819884  61.6950683  26.4598083  29.8879151  60.7625842  25.9490442
  28.9751070  59.4760358  21.1299468  29.3386508  58.3085805  21.0918645
  29.3124906  60.3234814  20.1529412  29.2109462  61.3129086  20.3620066
  29.9379657  59.9781730  18.8905632  30.0737844  58.9042082  18.7207752
  29.0240383  60.5006299  17.7242922  29.0055456  61.5914873  17.9271664
  29.5597734  60.2914287  16.8084749  27.6989352  59.8499006  17.6734510
  27.7662427  58.7840550  17.6148404  27.2497025  60.0696057  18.6549877
  26.9106296  60.3427352  16.4629460  25.7029936  60.7595181  16.5949562
  27.4561827  60.4860637  15.3455968  31.3920949  60.5485350  18.9324801
  31.9382675  60.7232050  17.8294659  31.9424138  61.0349136  20.0828193
  31.3922926  60.8368694  20.9457572  33.0434810  61.9334151  20.1668649
  33.4508603  61.9064027  19.1444879  32.5212504  63.3749581  20.3590648
  32.0347409  63.5024003  21.3278283  33.3974325  64.0919747  20.4518576
  31.5337132  63.9718378  19.3411500  30.9010298  64.9616792  19.6096431
  31.3604834  63.4029254  18.1381336  30.7976846  63.9554944  17.4834224
  31.8018593  62.5816946  17.8024605  34.1456597  61.4678919  21.1247957
  35.1253901  62.2140531  21.3974163  33.9701776  60.3070842  21.7476675
  33.1175170  59.8030937  21.6424670  34.8898113  59.7555956  22.7525929
  34.9659282  60.5251897  23.4979811  34.2635714  58.4651293  23.3985392
  34.3458303  57.6420553  22.6974905  34.9246042  58.1908812  24.2109032
  32.9218449  58.5978610  24.0708349  32.4089010  59.6960174  24.2590250
  32.4110739  57.5475838  24.4114933  36.3258105  59.4221901  22.2348752
  36.5294939  59.0948042  21.0769346  37.3065623  59.6139892  23.1458039
  37.0612882  60.0398275  24.0123939  38.7266316  59.3066899  22.8806784
  38.8540831  59.0908664  21.8157829  39.4791540  60.5842922  23.2381060
  39.0293799  61.0187066  24.1566232  40.4801073  60.2672821  23.5200821
  39.5198163  61.7291092  22.1712443  38.9734002  61.3675790  21.2690758
  39.1140189  62.6858457  22.6121414  40.9348372  61.8860060  21.7731195
  41.6773565  62.7553039  22.2306442  41.5248503  60.9005226  21.1627296
  42.4981769  61.0715169  21.0101316  41.0414499  60.1130248  20.6979003
  39.2748503  58.0980931  23.6037631  39.1578343  58.0011601  24.8222755
  39.8886383  57.2216653  22.8363803  39.9371011  57.4485649  21.8355844
  40.7928901  56.1598631  23.3203281  40.7419640  55.9790154  24.4328616
  40.5335654  54.8660833  22.6101305  39.4990386  54.5996894  22.7748399
  40.6538480  54.9629053  21.5614237  41.3573599  53.6615017  23.0022807
  41.0750698  53.0778359  24.2266877  40.4823919  53.5586034  24.8680755
  41.9313889  52.0447165  24.6664696  41.9280770  51.7054385  25.7270992
  42.8544864  51.4525397  23.7866035  43.7179464  50.5537217  24.1831412
  43.7780088  50.4931935  25.1775523  42.9596901  51.9572678  22.4718884
  43.6189720  51.5659265  21.7079827  42.2552271  53.1368551  22.1102225
  42.4493328  53.5391952  21.1131035  42.2921471  56.6322796  23.1756855
  42.9007626  56.4159337  22.1330125  42.7788572  57.2386038  24.2288977
  42.1575070  57.3937503  25.0337011  44.1592747  57.4972619  24.4416550
  44.4803675  57.7986187  23.5227909  44.4104522  58.7089374  25.4342687
  44.4423668  58.3768398  26.5258178  45.7363563  59.2299617  25.0191870
  45.8668804  59.3110379  23.9711190  46.0362497  60.2105839  25.4324609
  46.6111977  58.6164741  25.2721264  43.5022300  59.9612276  25.3842155
  42.5423632  59.7179876  25.8051832  43.8757650  60.6495275  26.1635755
  43.2997142  60.7519791  24.0592306  42.4350951  61.4218985  24.2865965
  44.2544360  61.2911697  23.8249004  43.1673505  60.0437190  23.3177913
  44.9119714  56.2423280  24.7630461  44.5138643  55.5431184  25.7212731
  45.9757851  55.9569010  24.0268732  46.2125750  56.4866211  23.1855259
  46.7362716  54.7109611  24.3203980  46.5715004  54.4524026  25.3837999
  46.0439604  53.5258421  23.5612939  46.4449399  52.6202341  23.9733156
  44.9939924  53.7667671  23.7291493  46.3870283  53.4506967  22.0976345
  45.5744183  54.1805165  21.1785438  44.7315578  54.8655819  21.5127775
  45.9369857  54.2091944  19.8100718  45.4303017  54.9128185  19.1164207
  46.8966986  53.3649864  19.3411056  47.0921663  53.3262981  18.0085033
  47.0920382  54.2188124  17.6365678  47.6828214  52.5665098  20.1764435
  48.5774266  52.1387390  19.8160357  47.4573083  52.6681359  21.5975338
  48.1178111  52.0912770  22.1924420  48.2732294  54.8684616  24.1253947
  48.7582674  56.0162869  23.9376147  49.0163437  53.8221615  24.4446642
  48.4464316  53.0900737  24.8678865  50.4723178  53.6508093  24.3492356
  50.9592427  54.3295965  23.6147288  51.0831073  54.0373862  25.6775280
  50.8755656  55.0677243  25.8973570  50.6178611  53.4002128  26.4059208
  52.5963841  53.8366735  25.6988180  52.7160793  52.8125640  25.7586027
  52.9591241  54.2148087  24.7831318  53.3528866  54.7637957  27.0347613
  53.0087613  53.8066484  28.5774528  52.6107231  52.8007358  28.3118985
  53.9090011  53.4181936  29.0517742  52.3196694  54.2685202  29.2807971
  50.7575935  52.1533043  24.1340613  50.2071862  51.2817014  24.8294465
  51.5755777  51.8963489  23.2111274  52.1270565  52.6064404  22.7099388
  52.0793874  50.5520137  23.0151761  52.8640878  50.6222486  22.3270251
  52.4984391  50.2054058  23.9405281  51.0298390  49.6306670  22.4657916
  50.0090136  50.0186932  22.0024913  51.3871019  48.3797221  22.4317189
  52.3025000  48.1555096  22.8500632  50.5867365  47.2474725  21.9036106
  49.5840146  47.6997174  21.7771752  51.2518685  46.8553008  20.5868988
  52.2785503  46.8655084  20.5892050  50.9156415  45.8961731  20.2316386
  50.8388041  47.9169129  19.5916867  49.8506761  48.2483690  19.7430796
  51.4470571  48.8237587  19.7580285  50.9025321  47.5774306  18.1306974
  51.5674231  48.2356727  17.3239748  50.2261290  46.6202134  17.6942279
  50.4714727  45.9838460  22.8754892  51.4911600  45.4827926  23.3670383
  49.2162954  45.4947704  23.0927358  47.8902593  45.7432005  22.5383713
  48.0091338  45.8135477  21.4876893  47.4245047  46.6509436  22.9892093
  47.0133009  44.5641805  22.8876755  47.1637845  43.8753254  22.0537888
  46.0555839  44.8736226  23.2126146  47.6691872  44.0172015  24.1231293
  47.4940996  42.9271185  24.1924271  47.3269650  44.4936050  25.0677712
  49.1656236  44.2990423  23.9980237  49.4923272  44.6428352  24.9651868
  49.9273287  42.9798078  23.5396646  50.0423799  42.7412839  22.3427501
  50.3860950  42.1395475  24.5194029  50.2351663  42.4618312  25.5095560
  50.8917303  40.7366092  24.3494242  51.4984517  40.7815924  23.4319152
  51.8824510  40.3190158  25.4955589  52.6176591  41.1294290  25.5182602
  51.2577217  40.3893735  26.4137743  52.5530786  38.9772150  25.3295189
  51.8308292  38.1737311  25.3388236  53.4418331  38.7612546  24.1164448
  53.9725997  37.7784211  24.3095902  52.8690322  38.7056815  23.1912819
  54.1498263  39.5546023  24.0199145  53.4146902  38.6650965  26.5508105
  52.8185309  38.8149494  27.4840116  53.8793996  37.6766216  26.4503246
  54.2232224  39.4150311  26.5158307  49.7793215  39.7215766  24.0485810
  48.7370187  39.7542692  24.7939250  49.9413468  38.9032163  23.0412408
  50.8264876  38.8935406  22.6140633  49.0828646  37.7928935  22.6382365
  48.0273475  38.1668611  22.6511078  49.4188239  37.3438921  21.2378680
  49.0776685  38.1112517  20.5418571  50.5044190  37.2345506  21.2289559
  48.7785592  36.0197053  20.8274756  48.9272318  35.2682201  21.6645740
  47.7625556  36.1613316  20.7174166  49.3854178  35.4635679  19.5675003
  49.6785442  34.2797623  19.5223961  49.5546347  36.2359288  18.5750393
  49.0567627  36.6925224  23.6153715  47.9927614  36.2368286  24.0791804
  50.2586639  36.1372937  23.8477885  51.0634094  36.4457738  23.2823593
  50.4381262  34.9909175  24.7534041  49.7125242  34.2641632  24.5256285
  51.9008066  34.4421709  24.5243792  52.0861465  34.3342510  23.5429147
  52.5235729  35.0582462  25.1417953  51.9743935  33.0583804  24.9931107
  52.3164777  32.7995492  26.1575607  51.6321179  32.0980134  24.1783044
  51.5918826  31.1567597  24.5776007  51.2981605  32.3707173  23.2593367
  50.2961190  35.4108353  26.2197269  50.5012753  36.6083296  26.5613482
  49.7849501  34.5364629  27.0807961  49.5406047  33.5888025  26.8182295
  49.5546264  34.9123601  28.5185449  50.2162078  35.6974028  28.7791028
  48.0628462  35.3882828  28.7772300  47.8933543  35.5389295  29.8098351
  47.8944720  36.3910253  28.3155429  46.9709022  34.4699115  28.2217450
  47.2125280  33.2543994  28.1224591  45.9391922  34.9763240  27.8091856
  50.0178285  33.7843103  29.4736438  49.6110565  33.6765091  30.6618165
  50.5864662  32.7109810  28.9187868  50.7867777  32.8712199  27.8971181
  50.9613302  31.4131789  29.5604676  50.0085015  31.0800907  30.0292107
  51.5113408  30.5350981  28.4426133  52.4098005  30.8656746  28.0179379
  51.7171765  29.5835222  28.9238881  50.4854946  30.1138005  27.4115787
  49.7588538  29.5367721  27.9249345  50.0154961  30.9632600  26.9859054
  51.2318820  29.1692203  26.4588196  51.8431721  28.1991496  26.9236033
  51.2185510  29.5643254  25.2292759  52.0584714  31.6030769  30.6360126
  52.5796514  30.6696595  31.2504696  52.5103962  32.8273555  30.9073043
  52.0061568  33.5306689  30.4171837  53.3485226  33.2634799  32.0722530
  53.9128321  32.3554993  32.2959292  54.3723876  34.2160058  31.5094055
  55.0915579  34.3105664  32.3011696  54.8170938  33.8602144  30.5942598
  53.9362517  35.6038312  31.1116934  52.7801611  35.7393138  30.6790120
  54.7352576  36.5859944  31.1459574  52.5665612  33.6779290  33.3417805
  53.1063287  33.4561721  34.4635819  51.3730641  34.2399766  33.2057027
  50.9777995  34.4466527  32.2916876  50.6289533  34.6168098  34.3846080
  51.2456492  35.4042433  34.8806020  49.2437436  35.1969390  33.9791868
  49.3749630  36.1001278  33.3254861  48.7244395  34.4415830  33.3738102
  48.2856198  35.7672785  35.4823468  47.2308022  36.4120154  34.8759528
  50.4624670  33.4244159  35.3629890  50.3120608  32.1693982  35.0316712
  50.4989398  33.7845083  36.6586736  50.5965447  34.7573803  36.9512380
  50.3789218  32.8165624  37.7733098  51.1704206  32.0562968  37.6461463
  50.7614790  33.6513696  38.9334559  50.0149495  34.3979672  38.8893443
  50.6764887  33.0580695  39.7777826  51.8006432  33.9862079  38.9026052
  49.0324378  32.1401499  37.8093061  48.9046420  31.0278934  38.2577304
  47.9872893  32.7127352  37.2405553  48.1898347  33.6513823  36.9108596
  46.5983176  32.3099953  37.4522923  46.4803948  32.2373785  38.5431842
  45.6736739  33.3873589  36.8610744  45.9218944  33.5203616  35.8935365
  44.6128886  33.0843501  36.9488464  45.8537242  34.7351893  37.5264087
  45.1785798  35.8888257  37.2347794  44.3174608  36.0290809  36.7008073
  45.3049958  36.7878769  38.2711564  44.7362208  37.7510150  38.4208696
  46.2570319  36.2836398  39.0838967  46.5599528  35.0297998  38.6759998
  47.3703341  34.4579898  38.9840993  46.2806428  30.9451668  36.7501537
  45.2954898  30.3101187  37.1382172  47.1274898  30.5616673  35.7610829
  47.8263852  31.1683079  35.3475942  47.0630747  29.2023088  35.1471482
  46.0817272  28.9845445  34.7450807  48.0408761  29.1796264  33.9205688
  49.0780918  29.4099880  34.2680846  48.1660662  28.1563374  33.5182749
  47.6499442  29.9831473  32.7107620  48.4545291  30.8586892  32.1448323
  49.5129483  31.0401930  32.5093778  47.7424202  31.5167373  31.1638190
  48.0780849  32.3913295  30.7345173  46.4075400  31.2503603  31.2571874
  45.2908042  31.7411802  30.6582796  45.3982558  32.5889454  30.0228437
  44.0319400  31.1769615  30.9025251  43.1620780  31.4933613  30.3268526
  43.8973010  30.0235236  31.6784042  42.9510248  29.5381642  31.8206181
  45.0741115  29.5041877  32.3058467  45.0296203  28.6779528  33.0286394
  46.3385162  30.1533204  32.1601764  47.5139511  28.0945658  36.2080775
  46.6628787  27.3150497  36.6273899  48.7622714  28.0581325  36.7466876
  49.4677963  28.5939785  36.2931142  49.2330276  27.3063025  37.8632912
  49.3411652  26.2883834  37.5118388  50.5660371  27.8063582  38.2859584
  50.5835091  28.9099219  38.3232498  50.6485675  27.5457073  39.3275348
  51.6743259  27.1960207  37.3333617  51.6162144  26.1101491  37.2455279
  51.5463144  27.5237472  36.3234665  53.0981939  27.4521711  37.6924417
  53.1490650  28.5399193  37.4848410  53.2755670  27.1565402  38.7476350
  53.9261585  26.4668193  36.9133328  53.6196773  25.4986199  37.2538221
  53.7331246  26.6192074  35.8230634  55.3998854  26.5838504  37.1818578
  55.6118220  26.3305872  38.1180620  55.9888012  26.0399539  36.5894527
  55.6145127  27.5794868  37.0240304  48.2320041  27.3362540  38.9800805
  47.9107883  26.2675563  39.4910028  47.7865150  28.5094459  39.4785967
  48.1832962  29.3616233  39.0603428  46.8256411  28.6609579  40.5696280
  47.1163372  28.0961122  41.3835138  46.6729863  30.0628272  41.0413590
  46.2827339  30.7775244  40.2920961  45.8929807  29.9221330  41.7883101
  47.8986414  30.5627361  41.7062779  48.1903452  29.9007409  42.4039988
  48.6800747  30.6544817  40.9641368  47.8350102  31.9823068  42.3344736
  47.1792178  32.9524672  41.8382854  48.3878621  32.1630587  43.4684355
  45.3972387  28.1602268  40.2801964  44.7685287  27.6556254  41.2102562
  44.8973749  28.1266840  39.0457100  45.4920225  28.4669709  38.2755544
  43.5684280  27.5345304  38.6082577  42.8617449  27.7726810  39.4370028
  43.1275937  28.3721004  37.4365673  43.8426149  28.2997095  36.6135625
  42.2432342  27.9455858  37.1058219  42.9590978  29.4066292  37.7086318
  43.6099892  26.0494451  38.3593780  42.5940674  25.4222738  38.6009165
  44.7824118  25.5165416  37.9399950  45.4424906  26.2036099  37.6848373
  45.1859476  24.1235751  38.0932297  44.4229949  23.5167910  37.5880898
  46.6283161  23.7838116  37.6010438  47.2542077  24.6387855  37.8101974
  47.0741772  22.9795519  38.2416338  46.8128492  23.5019593  36.1114784
  46.5896335  24.4084859  35.6275455  47.8471298  23.2489284  36.0199473
  45.9478321  22.2928908  35.5483302  44.8820019  22.4907704  35.6871221
  46.1814788  22.2969231  34.4593937  46.3525942  20.9711111  36.1947403
  47.4733166  20.9208087  36.2328168  46.0189888  21.0246885  37.2289039
  45.8202410  19.8263153  35.5441789  45.9563036  19.1499988  36.2377381
  44.8917422  19.9909516  35.1327356  46.4401869  19.6104274  34.7990684
  44.9319781  23.6621700  39.5266304  44.2663345  22.6614033  39.7446063
  45.5988995  24.2637808  40.5293020  46.3676968  24.9157403  40.2898885
  45.4919309  23.9007172  41.9423040  45.8264617  22.8751255  41.9923555
  46.4170835  24.8831723  42.7487080  46.2032473  25.8890749  42.4828820
  46.3828958  24.7020110  43.8299113  47.9482328  24.6465449  42.4837621
  48.3826736  23.8231980  43.0565534  48.0423605  24.4554412  41.4548855
  49.0749965  26.0060258  42.9492715  50.4830144  25.3688055  42.0475440
  50.8413295  24.5879371  42.7132163  50.3027446  24.7893333  41.1378458
  51.1570816  26.1838273  41.8169073  44.0297783  24.0262049  42.4151838
  43.7132238  23.2627805  43.3153449  43.2005636  24.9603371  41.9537653
  43.5861185  25.6646798  41.4323463  41.8190653  25.1296142  42.4161231
  41.8976902  25.1170859  43.5131461  41.0788398  26.4426594  42.0334210
  41.2050817  26.6235213  40.9911514  40.0221339  26.1793999  42.2068170
  41.4615665  27.6602199  42.8613539  42.5519438  27.5855084  43.0679933
  41.2328334  29.0388850  42.2779914  41.8179624  29.0954628  41.3865172
  40.1372641  29.0827163  42.0671725  41.4991883  29.8983517  42.8923660
  40.7400536  27.6369000  44.2305864  39.6686523  27.6893525  44.0157380
  40.8607786  26.6837733  44.7732891  40.9792237  28.5379735  44.8156419
  41.0888700  23.8352500  41.9890344  40.4019515  23.1724127  42.8184930
  41.1634911  23.4561358  40.7122100  41.6601586  24.0532959  40.0470030
  40.4295609  22.2795915  40.1922584  39.3839136  22.3571134  40.5337713
  40.5137562  22.1703726  38.6234641  41.4876747  22.0373345  38.3358525
  39.9264723  21.3932076  38.2173280  39.9958142  23.3572593  37.8237180
  40.4120125  24.2631547  38.1803354  40.4508410  23.0904708  36.3338253
  40.1026631  23.9205143  35.6821938  41.5427225  23.0636669  36.3720254
  40.1283006  22.2268787  35.9539560  38.5116581  23.4906750  37.9853194
  38.2710317  24.0073592  38.9490571  38.2359134  24.1204541  37.1279143
  38.0749822  22.4570326  37.9416451  40.8375944  20.9789595  40.8049292
  39.9101282  20.1997238  41.0400893  42.0786446  20.7751431  41.1671365
  42.6658366  21.5133406  40.9634837  42.5016325  19.6011964  41.9901912
  42.0415197  18.6728555  41.5690096  44.0628504  19.4254431  41.9398906
  44.5872929  20.2322278  42.4408422  44.3273297  18.5981521  42.5935372
  44.7411569  19.1095421  40.6321266  43.9830751  18.9174906  39.6383124
  46.0161744  19.0915202  40.6030980  42.0107717  19.4812124  43.4688565
  42.2892992  18.5070003  44.1634688  41.2046865  20.4795221  44.0010781
  41.0320933  21.2741590  43.4562979  40.7700510  20.5722669  45.4311604
  40.8538881  19.6149561  46.0319869  41.7571865  21.5511947  46.1125724
  41.8235506  22.5406488  45.5433201  41.3732316  21.7319923  47.1519771
  43.1488113  20.9365122  46.2197229  43.3101543  19.9465575  46.9318737
  44.1462922  21.2860728  45.4161923  44.9370038  20.6220756  45.4330441
  44.0175630  21.9765156  44.6224908  39.3901917  21.0789557  45.6784322
  38.8846151  21.1136509  46.8239072  38.7275538  21.5161383  44.6062157
  39.3114790  21.7140718  43.7956219  37.3118348  21.3145268  44.3952956
  36.6786968  21.8429569  45.1588891  36.9047838  22.0108467  43.1339330
  37.6046982  21.6782397  42.3428038  35.4774897  21.6066219  42.6613014
  34.8784500  21.4779334  43.5189167  35.1159629  22.2068712  41.7983816
  35.5655032  20.6426843  42.1964281  36.9565322  23.5256480  43.2417589
  36.3332937  23.9351906  44.0624505  37.9484323  23.7330988  43.6330615
  36.8960195  24.1757016  41.9210714  37.9268799  24.2191658  41.3881937
  36.3104941  23.6718464  41.1335271  36.5374577  25.2284408  41.9113091
  36.8547232  19.7988246  44.4350332  37.5568877  18.9269274  43.9576263
  35.6667777  19.4809452  44.8782570  35.2443370  20.1487085  45.4075074
  35.0014662  18.2146661  44.8900224  35.4975207  17.6047184  45.5274548
  33.5540617  18.3471631  45.5166039  32.9644284  19.0214713  45.0177119
  33.1627649  17.3053412  45.4509520  33.4617453  18.9324751  46.8805762
  34.0364743  19.9452689  47.2741288  32.7823303  18.2564701  47.7368082
  32.7582331  18.6940410  48.7005393  32.4944934  17.2870089  47.5720110
  35.0409485  17.4583796  43.5490719  34.3115344  17.9384148  42.6078536
  35.6321584  16.2680197  43.4789581  36.2153305  16.0842967  44.2168674
  35.3551170  15.2374241  42.5620715  34.3488802  15.4282103  42.2455274
  36.2100986  15.3625979  41.3028336  35.8993174  14.4665292  40.6266205
  36.0092126  16.6523186  40.3970626  36.7022664  17.4159797  40.7676252
  36.3145247  16.3606719  39.3956289  34.9978636  17.0367558  40.3777639
  37.5663613  15.1407490  41.5015838  38.0029769  15.9734116  41.8214058
  35.5603502  13.7754179  43.0628311  36.2962078  13.5077076  44.0255577
  34.9896341  12.7959111  42.3839787  33.9545049  12.9683715  41.3993004
  34.2769039  13.5319024  40.5563246  33.0928581  13.4640247  41.7627633
  33.5392010  11.5644468  40.9438340  33.9345456  11.4352600  39.9407922
  32.4481549  11.4531632  40.9405147  34.1501300  10.6398053  41.9832244
  34.4881937   9.7091106  41.5620407  33.4263197  10.4264112  42.7139361
  35.3563200  11.3658930  42.5110760  35.3124673  11.0917271  43.5885249
  36.7235590  10.9833645  41.9937007  37.2444970  11.7378240  41.1368933
  37.3787347   9.9069154  42.4226094  36.9225303   9.3578087  43.1139533
  38.4227935   9.2047545  41.7050913  38.9110340   9.8734169  41.0095968
  39.6027875   8.8424040  42.6523487  39.2091061   8.3545940  43.4629620
  40.3204342   8.2345341  42.1031097  40.4607590   9.9937822  43.2095519
  40.2591610  10.1601002  44.2503398  41.5625014   9.8633230  43.2289561
  40.1802129  11.3450514  42.6194677  40.5144985  11.5900626  41.4676954
  39.6208839  12.2089959  43.3006891  37.8576032   7.9352666  41.0722373
  36.8442836   7.4039313  41.4938088  38.4079033   7.5919112  39.9252602
  38.0579384   6.7709507  39.5065884  39.5746940   8.0826835  39.2139742
  40.2669741   8.5182141  39.9357481  40.0046409   7.2145789  38.7407649
  39.2373144   9.0678342  38.0715337  39.8799346   9.0024605  36.9807498
  38.1884982   9.8945269  38.3312075  37.8280896   9.8826111  39.2992899
  37.6894165  11.0137496  37.4352084  37.6305882  10.6793694  36.4039927
  36.1992507  11.3708119  37.9330394  36.2384634  11.5534827  39.0017002
  35.7020361  12.6344812  37.2938988  34.6622492  12.9068958  37.5211183
  36.2941381  13.3636069  37.7911907  35.8206590  12.6091943  36.2280457
  35.3456077  10.1520341  37.6691566  35.5935966   9.3201045  38.3077579
  34.3610452  10.2487855  38.0379443  35.0721675   9.7560924  36.2311916
  36.0514037   9.5269912  35.6389379  34.4750414   8.9312956  36.2993018
  34.5261123  10.5773563  35.8255788  38.5974994  12.2795650  37.4370765
  38.9698776  12.7079650  38.5494887  38.9097562  12.9118981  36.2593347
  38.3816817  12.6104613  35.4531093  39.8585815  13.9561083  36.0325712
  40.5933900  13.9003890  36.8471461  40.6816103  13.6115893  34.6931466
  40.0691293  13.2171537  33.9102663  41.3590813  14.8785195  34.0990603
  41.9187001  15.4670599  34.8312198  41.9743815  14.6904910  33.2179494
  40.5470095  15.4781743  33.6371068  41.6694295  12.4316828  34.8283138
  42.3940084  12.6431915  35.6359678  41.1547861  11.5761477  35.3138274
  42.3560504  11.8842223  33.6146844  42.6941739  10.8821093  33.7569160
  41.5961833  11.8299980  32.8494165  43.0199396  12.6732790  33.1627890
  39.0475935  15.2839857  35.8076326  38.3176085  15.3253465  34.8166517
  39.1958580  16.3955653  36.6177868  40.0012460  16.4451841  37.8809946
  41.0520532  16.1936637  37.5930209  39.6701027  15.7012514  38.6400427
  39.9540950  17.8702522  38.3841011  40.7618786  18.4830857  37.9914688
  39.7711751  17.8681962  39.4094180  38.6205959  18.4175615  37.7605511
  38.5741316  19.5358221  37.7138728  37.7312115  17.9902280  38.3021833
  38.5532687  17.7187508  36.3796488  37.5031112  17.6090090  36.0565181
  39.3718544  18.3854988  35.2211777  40.5364037  18.0355703  34.9088036
  38.9029032  19.4971510  34.7547608  37.9235367  19.7420121  34.9292085
  39.6932281  20.2112045  33.7104486  40.7872608  20.2372958  34.0912028
  39.7365177  19.4209370  32.3662065  39.9867918  18.4200353  32.5805835
  38.7191106  19.2174918  31.9712440  40.6848668  19.9844086  31.5519025
  41.5366654  19.6339531  31.8544746  39.2376511  21.6277190  33.4178651
  38.0358604  21.9830449  33.6297200  40.1526450  22.4497074  32.9840671
  41.1037755  22.0493585  32.8751807  39.9404529  23.8427322  32.5317526
  39.3114469  24.5315695  33.2094849  41.2561623  24.5704790  32.2241608
  41.9831843  23.7627696  32.0261455  41.1996488  25.2430383  31.4359140
  41.7975435  25.4238710  33.3911712  41.0806541  26.2335440  33.6144411
  41.7970748  24.7871111  34.2676301  43.4452088  26.0426008  33.0605371
  44.2240102  25.3829634  34.4734071  43.6686893  25.7572276  35.2888453
  44.1166140  24.3673054  34.4051196  45.2674145  25.7220107  34.7635716
  39.1772563  23.9144831  31.2023439  39.2628495  22.9645824  30.4535777
  38.4590905  25.0431620  30.9772901  38.5373135  25.8116228  31.6153382
  37.6818955  25.1840725  29.7738046  36.8029059  24.4891802  29.8093832
  37.0343665  26.5568836  29.9689397  36.1438361  26.4832134  30.6583349
  37.7305003  27.2947312  30.2544847  36.4077340  27.1417577  28.7157173
  35.5194258  26.4767077  27.8372024  35.0938397  25.4874075  27.9645619
  35.0319449  27.1169758  26.6770677  34.5112041  26.5348987  25.9405130
  35.4298112  28.4243237  26.3868433  35.2142165  28.7771008  25.4211865
  36.2691077  29.1271566  27.2022931  36.6317504  30.1526884  26.8964343
  36.7838575  28.4475600  28.3698571  37.4950865  28.9086359  28.9612022
  38.5417110  25.0533663  28.4933625  39.7118271  25.4464689  28.3757206
  38.0482927  24.5081621  27.3739979  37.1206747  24.2497229  27.3931203
  38.8336734  24.1895079  26.1253464  39.2048129  23.1978465  26.1845321
  37.8073147  24.0933385  24.9006381  37.5230615  25.0295557  24.4969621
  38.2227315  23.6706946  24.0742238  36.5351096  23.2049877  25.0993237
  36.0117872  23.6206914  25.9446373  35.9512415  23.2749284  24.1664855
  36.7754741  21.7141427  25.4294546  37.4247211  20.9166845  24.7210223
  36.3445715  21.3643089  26.5936474  39.9512408  25.1257757  25.6779668
  41.1095136  24.6339471  25.5830773  39.8623821  26.4869458  25.4780125
  38.6519948  27.3025840  25.6237330  38.2321440  27.2099420  26.6138206
  37.9220496  27.2068021  24.8424068  39.2044954  28.7013354  25.6397844
  39.5268558  29.0028599  26.6250843  38.4931772  29.3755314  25.2196965
  40.4067390  28.7258894  24.7268169  41.1410258  29.4824624  24.8920202
  40.1228193  28.7463015  23.6408138  40.9825902  27.3632214  25.1212303
  41.5929560  27.0045007  24.3468454  41.9291250  27.5833991  26.3003428
  43.0779021  27.8968687  26.0586358  41.4855244  27.3220838  27.4881552
  40.5540268  27.0143628  27.6105848  42.2697009  27.4278462  28.6922035
  42.9406298  28.2758212  28.3760206  41.3477126  27.9955875  29.7797106
  40.4875360  27.3686665  29.9484832  42.0361681  28.1988923  30.6303140
  40.9432347  29.3850975  29.4702181  41.8585368  29.8936115  29.1612072
  40.1677948  29.3178214  28.7064929  40.3363277  30.2632640  30.5841690
  40.7141488  31.4732856  30.6777830  39.5276310  29.7465623  31.3373301
  43.1052011  26.1766890  29.0763029  44.2469355  26.2516843  29.5705346
  42.5436695  24.9957796  28.7523353  41.5621986  25.0094112  28.4503520
  43.2303153  23.6636099  28.9425616  43.4190870  23.5957942  30.0381354
  42.1828270  22.6542190  28.3656669  41.1012319  22.7981593  28.7239923
  42.1498207  22.8169995  27.3034419  42.5338275  21.1355956  28.6970338
  43.5128323  20.7848583  28.2168574  42.5150054  20.9380653  29.7387988
  41.4920314  20.2356531  28.1559476  41.4147868  20.3604733  27.0582835
  41.7705384  19.1810587  28.3185988  40.1861232  20.5036185  28.7337673
  40.1140799  20.9039609  29.6687644  39.0837113  20.5495293  28.0708409
  39.0255127  20.1300021  26.8893772  39.8095242  19.5743786  26.6137347
  38.1328288  20.1240600  26.4570306  37.9880137  21.0058096  28.6173632
  38.0706026  21.3859595  29.5724375  37.2010077  21.1972343  28.0269635
  44.5748019  23.3859902  28.3456560  45.4564014  22.8084652  29.0371513
  44.8703575  24.0219320  27.2053877  44.1001836  24.6481653  26.9327607
  46.1969485  24.0308463  26.5299007  46.6876435  23.0476624  26.4780394
  46.0426589  24.4755950  25.0421172  45.5533225  25.4425993  24.9509331
  47.0981172  24.6235836  24.6443720  45.2339633  23.5243027  24.2204123
  44.1777549  23.4204034  24.6325259  45.1897649  23.8609091  23.1801373
  45.7701173  22.0342489  24.1493166  46.8880984  21.6711022  24.6034043
  44.9528035  21.2238985  23.6336160  47.2334796  24.9653114  27.1909371
  48.4075048  24.8264208  26.8435933  46.8911609  25.9119890  28.1338329
  45.8873413  25.8726753  28.4300338  47.7311648  27.0208788  28.6865281
  48.2729585  27.5488048  27.8740745  46.8880579  28.0714247  29.4419103
  46.3323803  27.6010589  30.2497596  47.5202617  28.8249440  29.9137484
  45.9449828  28.8441614  28.5078959  45.4662026  28.0981444  27.8525592
  45.1612311  29.2676184  29.1294982  46.6189217  29.9105980  27.6111515
  47.0685212  30.6620101  28.1904714  47.5059699  29.4507788  27.1182392
  45.6120364  30.4250688  26.6022453  45.3881724  29.5602109  25.9878941
  44.7119233  30.7132887  27.1301334  46.2185013  31.6097272  25.9398670
  46.9716707  31.4249302  25.2778370  45.4927234  32.1811612  25.4813124
  46.7001698  32.2361641  26.5593386  48.8253759  26.5240766  29.7472412
  49.3886592  27.2744017  30.5210542  49.0784937  25.2246806  29.7291126
  48.7341123  24.6203904  28.8960847  49.6715367  24.3863697  30.8308527
  50.6424443  24.8413850  31.1980972  48.7282618  24.2264677  32.0558020
  49.1086666  23.2808240  32.5505536  48.5588790  25.4614317  32.9209056
  47.7935826  26.1557978  32.4718715  48.0363963  25.0994214  33.8498022
  49.5402579  25.9068400  33.0810478  47.3144931  23.8848277  31.4969165
  47.3413692  23.1156211  30.7450807  46.7551331  23.5058247  32.3855825
  46.8832865  24.8188126  31.1029413  50.0518632  23.0188232  30.2727552
  49.4563710  22.4617566  29.3292461  51.0060855  22.3336208  30.8508463
  51.7066557  22.9058661  31.3825290  51.3737741  20.9356038  30.5412505
  51.4639537  20.8800053  29.4340187  52.5741544  20.4798249  31.3566166
  53.3624259  21.1787557  31.1450566  52.2778212  20.4478507  32.3953772
  53.0493941  19.0490160  30.9515667  52.8671283  18.6293605  29.7880333
  53.6592425  18.4377092  31.8433359  50.2114925  19.9980269  30.9909293
  49.3367645  20.2922286  31.8524127  50.1071191  18.8523619  30.2976900
  50.7953348  18.5653317  29.6363019  49.2323990  17.7620455  30.8114840
  48.1903904  17.9218067  30.8627011  49.4890191  16.5255852  29.8950585
  49.1805076  16.8962589  28.8909900  50.5735455  16.3132436  29.9462246
  48.9243276  15.6718485  30.0574505  49.6664653  17.3388523  32.1960753
  50.8344719  16.9848076  32.4134343  48.7403386  17.3121334  33.1748769
  47.8294185  17.6017970  32.8902109  49.0678358  16.9710057  34.6274313
  49.9226947  16.3158344  34.7781233  49.3137293  18.2325308  35.4664666
  48.5489671  18.9303300  35.2824640  49.4193541  17.9516309  37.0067139
  48.5840089  17.3852938  37.3944984  50.3526010  17.3419883  37.1715058
  49.4739944  18.8583517  37.5574072  50.6980999  18.8132732  35.0676643
  51.4227359  18.0695008  35.2720555  50.7336008  18.8191715  33.9742815
  51.2017212  20.1546511  35.6051590  51.0608166  20.1862340  36.7170895
  52.2669239  20.3082726  35.3917580  50.6138189  21.0092167  35.1756429
  47.9066962  16.1993924  35.2226536  46.7563484  16.6766126  35.1801909
  48.0643045  15.0203846  35.7832002  48.9475551  14.5704502  35.6983094
  46.9991225  14.2446623  36.4365849  46.0019445  14.6584997  36.2211576
  46.9368543  12.8005190  36.0768625  47.9464589  12.3690822  36.2326837
  46.1624065  12.3881806  36.6911565  46.7264399  12.5160370  34.5697327
  46.6431711  11.3072419  34.2928110  46.5941812  13.3836526  33.6824620
  47.0752439  14.3647764  37.9317932  47.8457387  13.6418078  38.6397199
  46.3139429  15.2662212  38.5383174  45.7828946  15.8031828  37.8736923
  45.9966027  15.4015267  39.9476675  45.1776405  16.1212022  40.0185506
  45.5122030  14.5599700  40.4405238  47.2473501  15.7628236  40.8311910
  47.2375234  15.4381449  42.0229076  48.2996173  16.3986601  40.3145498
  48.3507201  16.4847319  39.3161194  49.6233581  16.5320568  41.0448025
  49.9825028  15.5428015  41.3104043  50.6048323  17.1773279  40.0277173
  50.8199439  16.5518994  39.1414430  50.2175979  18.2122855  39.6628426
  51.9620415  17.3286328  40.7324680  51.9666828  18.1894946  41.3186928
  52.1286028  16.4590762  41.2981573  53.0897630  17.4515065  39.7464459
  53.9597449  18.3266627  39.9482930  53.2122707  16.6200003  38.8744807
  49.4028749  17.3823167  42.3032033  50.0134039  17.0494125  43.3178451
  48.5117284  18.3539714  42.3191902  47.8346027  18.4229051  41.5670695
  48.3051129  19.3297702  43.4267972  49.1507636  19.5296533  44.0665001
  47.9996202  20.6845227  42.8329740  47.1074348  20.6645065  42.1562017
  47.8775390  21.4355760  43.5880653  48.9933810  21.1237179  41.8374971
  50.2126222  21.6860981  42.2982691  50.4614019  21.7297297  43.3385911
  51.1637459  22.2285031  41.3439013  52.1094475  22.5291311  41.6642380
  50.8754847  22.2821828  39.9923875  51.8193152  22.7213163  39.0906036
  51.7169714  22.3287216  38.2170070  49.6808167  21.6995637  39.5672667
  49.5656832  21.5085757  38.5256348  48.7789838  21.0711418  40.4511564
  47.9950210  20.4711850  40.0937919  47.0930775  18.9743450  44.3457584
  46.5501728  19.9136630  44.9709188  46.6067585  17.7318648  44.3789730
  47.1713545  17.0053029  43.9493237  45.4406764  17.2184278  45.1084942
  44.6244153  17.9617158  45.0543916  44.9393026  15.9459019  44.4670974
  44.9146900  16.3023838  43.3939676  45.5964319  15.0898056  44.4503002
  43.5383069  15.5962378  44.9531514  43.5670264  14.7279889  45.5879599
  43.1524697  16.3186653  45.5843199  42.5759352  15.2962836  43.7604193
  42.4451289  16.1115443  43.1165125  43.0394637  14.5215578  43.0878569
  41.3061261  14.6577018  44.1672155  41.2504115  13.6573068  43.9596445
  40.3089088  15.1950911  44.7666534  39.4811936  14.3988719  45.3423988
  39.5942938  13.4560287  45.1565006  38.6660594  14.6573335  45.8938120
  40.1555224  16.4841630  44.9769978  40.9356482  17.1027602  44.6553205
  39.3552439  16.8380795  45.5090679  45.7559981  17.0026385  46.5456363
  46.3628717  16.0432457  46.9673603  45.3487279  17.9433640  47.4196483
  44.9415776  18.7951191  47.0682008  45.4078625  17.7293793  48.8796601
  46.3724659  17.4990654  49.1194695  45.1217257  19.0818486  49.5910269
  44.0878247  19.3708677  49.4157395  45.0245813  18.9511596  50.7161471
  46.1219880  20.2614771  49.3965390  46.4003495  20.3894393  48.3705946
  45.4540909  21.6212994  49.7420695  45.0308430  21.6409334  50.7888928
  46.1705135  22.4101410  49.7618943  44.7754909  21.9728292  48.9925673
  47.3393877  20.0747450  50.3268865  47.8320129  19.1281331  50.1560428
  48.0621858  20.9475671  50.2201580  47.0195372  20.1096590  51.3386129
  44.4036816  16.5853165  49.2908849  43.5019983  16.2572745  48.5176501
  44.4215077  16.2498319  50.5968433  45.1809714  16.6201017  51.1249895
  43.4869199  15.2959318  51.2951892  42.4849538  15.2464630  50.8415725
  43.9551162  13.8489496  51.2079645  44.9184894  13.7675656  51.6981638
  43.2012981  13.2335410  51.7058925  44.1845467  13.1428612  49.8210414
  43.3046054  13.3065323  49.2294514  44.9821223  13.6820736  49.2432069
  44.3777791  11.6524752  49.9732968  44.5750233  11.1420653  49.0289667
  45.3213690  11.5201489  50.5003111  43.2664134  10.8911642  50.5160507
  42.3947487  11.3834637  50.6485440  43.2377895   9.5816109  50.7824301
  42.1057433   8.9876719  51.0151296  41.3877767   9.4045712  50.6056028
  42.1311197   7.9807878  51.0823541  44.3151590   8.7597480  50.7023791
  45.1879080   9.0872688  50.3664131  44.2332317   7.7486577  50.8449939
  43.3487151  15.6285725  52.8001364  44.2492289  16.0770655  53.4539059
  42.2247106  15.3076656  53.3635657  41.4507908  15.1608284  52.7333604
  41.9123009  15.5637165  54.7758138  40.9165768  15.0997096  54.9136445
  42.5677330  15.0380102  55.4446060  41.9427443  17.0159839  55.1953134
  41.6565210  17.8578824  54.3268138  42.0757512  17.3810696  56.4871833
  42.3181096  16.6564287  57.1052097  41.7648667  18.7716298  56.9815364
  40.8567020  19.1219917  56.4113624  41.5521803  18.9447078  58.4753492
  42.5464701  18.8559860  58.9542751  41.0633484  19.8537214  58.5254096
  40.6791388  17.8869246  59.1553430  41.2815341  16.9493163  59.2356345
  40.3675195  18.2528902  60.1438753  39.3399586  17.6055664  58.4167689
  38.8250689  18.4888174  57.6569234  38.7358614  16.5047659  58.4970050
  42.8440918  19.8379808  56.5724268  42.7428085  21.0159301  57.0543451
  43.8249609  19.5818335  55.7000698  44.0093809  18.6247154  55.3360701
  44.7608024  20.5711945  55.1315214  45.1364728  21.1210510  55.9574837
  45.9687627  19.9255930  54.4673593  45.5845326  19.0918067  53.8755618
  46.4571691  20.6717659  53.8325121  46.6314687  19.4062290  55.0939299
  44.0064412  21.3888876  54.1720007  44.1725827  22.5655767  54.0561047
  43.1510853  20.7487299  53.3538470  43.1496090  19.7675502  53.4107323
  42.0458615  21.3828358  52.5552504  42.4170882  21.9503049  51.7539123
  41.0697109  20.2859927  51.9768092  41.6205550  19.5267077  51.4528491
  40.5999274  19.8146200  52.8361444  40.0331977  20.7955041  50.9959791
  39.6320278  21.7187165  51.3302855  40.5062702  20.8717394  50.0541858
  38.7829652  19.9429232  50.7885872  38.9641187  18.8486365  50.7634945
  38.1865191  20.1415063  51.7068913  38.0451912  20.3195237  49.6077106
  38.6953741  20.6373501  48.8890509  36.8070002  20.2917078  49.3094705
  35.7631368  20.0364389  50.0580466  35.9370950  20.0181527  51.0475379
  34.8542738  19.8137820  49.6226039  36.5703512  20.6607939  48.1024163
  37.2741545  20.7876898  47.4159227  35.5893097  20.7721717  47.8888598
  41.3351790  22.4169409  53.4027406  41.0958198  23.5536725  53.0507730
  40.9223074  21.9789776  54.6000929  40.9476359  21.0463656  54.9231310
  40.1784926  22.8693183  55.5043471  39.3578931  23.1344107  54.8051863
  39.6508074  22.1377268  56.7547434  40.4614517  21.7886027  57.3968004
  38.6175531  23.0121408  57.5527487  37.6353026  23.1388332  57.1048305
  38.4086513  22.4996151  58.4801950  39.0419364  24.0006035  57.7535584
  38.9193776  21.0043078  56.2412892  38.9435676  20.2209323  56.8521062
  41.0147103  24.1360476  55.8628791  40.4381290  25.2440358  55.7813318
  42.3241416  23.9724590  56.0932241  42.7597135  23.0588315  56.1917176
  43.2632323  25.1405254  56.3550532  42.8064130  25.7115163  57.1515985
  44.6838403  24.6688155  56.7679856  45.1906299  24.1263713  55.9836432
  45.5964180  25.8832558  57.1941168  46.3821918  25.6363247  57.8964106
  45.9807309  26.4265948  56.2819100  44.9644719  26.6141840  57.7018090
  44.4744917  23.8708388  57.9062220  45.3079763  23.4616844  58.1156314
  43.5492789  25.9885903  55.1380054  43.5459521  27.2374084  55.1821674
  43.7210564  25.4312343  53.8896392  43.7696839  24.4571594  53.9440928
  43.9223319  25.9694118  52.5459652  44.9011917  26.5273139  52.4470928
  43.9159400  24.7505129  51.5526050  44.8204365  24.1193819  51.7707494
  43.0707569  24.1335549  51.6757593  43.8832586  25.1238092  50.0713642
  44.5104085  26.2743853  49.6229392  44.9246916  26.9963512  50.2660514
  44.5810793  26.4848381  48.2230331  45.0543571  27.4685585  47.8833516
  43.9516452  25.5994240  47.3278680  43.9724110  25.8093155  46.2206718
  43.2446310  24.4612840  47.7850027  42.7314690  23.8524788  47.0903727
  43.2765077  24.1697717  49.2122618  42.9037118  23.1966548  49.5949327
  42.8340606  26.9951628  52.2547604  43.1546403  28.1651729  51.9458090
  41.5704892  26.6554240  52.5190313  41.4307441  25.6651116  52.7557411
  40.3816388  27.5466890  52.3643611  40.5176380  28.0977599  51.4402854
  39.0705382  26.7585365  52.3757398  39.0233488  26.1581041  53.2293086
  37.8468020  27.7163483  52.3209309  38.0582917  28.3823189  51.4550651
  37.0017040  27.1165179  52.0634025  37.7139271  28.2305936  53.1726423
  39.1325437  25.8165510  51.2488704  39.4008357  26.4048480  50.3451034
  39.8691447  25.0525369  51.5206130  38.1915522  25.2937619  51.1469319
  40.4046927  28.6367812  53.4067770  40.2666073  29.8067211  53.1370279
  40.6122021  28.2828874  54.7326763  40.9882107  27.3445197  54.9286294
  40.6504566  29.2473221  55.8354390  39.6938239  29.8323918  55.8337879
  40.7316342  28.7113352  57.2727411  41.4866744  27.9521614  57.2921202
  41.0837661  29.5661183  57.9146123  39.4451049  28.0283273  57.7838376
  38.3451435  28.3233890  57.2299103  39.4490690  27.3283805  58.8208249
  41.7441279  30.3117189  55.6611341  41.4055042  31.4614581  55.9212137
  42.9921341  30.0679655  55.2298323  43.2433500  29.1522402  54.9994275
  44.0083101  31.0467463  54.8414829  44.0986991  31.6418789  55.7531895
  45.3311737  30.4326352  54.4385368  45.1329366  29.6472621  53.7251975
  45.8292637  31.2303234  53.9078273  46.2036642  29.7974029  55.5807708
  45.5902196  29.2695261  56.3035987  47.3907463  28.9982748  54.8631267
  47.9734082  29.4885358  54.0986335  48.1155912  28.6396128  55.6063709
  46.7910260  28.2332838  54.3303950  46.9212359  30.9180146  56.3584380
  46.1698644  31.5573696  56.8519607  47.7565370  30.5911441  57.0275297
  47.5573469  31.5358087  55.6808632  43.5045545  31.9203045  53.6847548
  43.6713263  33.1146020  53.8496853  42.7960749  31.4533598  52.6712609
  42.7756882  30.4524042  52.4749019  42.2268113  32.3697106  51.6361468
  43.0203833  32.9993951  51.2233082  41.7536502  31.4996803  50.5042327
  41.0130645  30.8942879  50.9322547  41.2604405  32.1353596  49.8039330
  42.9291943  30.7876696  49.7799183  43.6702276  31.5703473  49.5791592
  43.4234656  30.0867429  50.3640729  42.6590703  30.1040315  48.1702850
  41.6899581  28.6957115  48.7356153  40.6697554  29.0213561  48.5632292
  41.9046491  27.8380148  48.1301231  41.9741703  28.4729526  49.7613252
  40.9956546  33.2033104  52.2085347  40.7759826  34.3049327  51.7951267
  40.1866446  32.5663709  53.0453203  40.4308356  31.6068052  53.4134564
  38.9141277  33.1808008  53.4873560  38.3865652  33.5563067  52.6236536
  37.9655764  32.1829959  54.1766452  38.5185979  31.5967118  54.8379707
  37.2611200  32.7392880  54.8067866  37.1150357  31.3735646  53.2178636
  37.6361824  31.3331439  52.3291326  37.0089027  30.3715750  53.4858312
  35.6902252  31.8735752  52.9208488  35.4264744  31.3782184  52.0043397
  34.9977820  31.5053724  53.7147634  35.6924217  33.3824830  52.7332416
  36.0021979  33.7255661  51.8120535  34.9404807  34.1699513  53.3914185
  34.1851939  33.8049083  54.4291687  34.0332947  32.8906565  54.8524161
  33.7805342  34.6379137  54.8528360  34.7031989  35.3761480  52.8908976
  35.5285559  35.7045506  52.3641405  34.0088588  35.9883048  53.2847018
  39.0546012  34.3254358  54.5221469  38.3108104  35.2864748  54.5106434
  39.9633119  34.0599812  55.4982561  40.3519686  33.1621091  55.5152531
  40.1792866  34.9854045  56.6146401  39.4890421  35.8327836  56.5022640
  39.7717123  34.2915351  57.9249970  38.7459069  33.9583434  57.7877550
  40.4311106  33.3728548  58.0082256  39.7240212  35.1378350  59.2029237
  40.7412853  35.5239057  59.4257741  39.1499616  36.0799473  59.0896628
  39.3309081  34.2969037  60.4116194  39.9240292  33.3572163  60.4277301
  39.3920294  34.7751190  61.4046366  37.9336939  33.8841790  60.2416927
  37.5338654  34.2290147  59.3501876  37.3073414  32.8847344  60.8327587
  37.6930484  32.3753203  61.9523283  38.5075359  32.7510072  62.4309960
  37.0692822  31.7572001  62.4570746  36.2177944  32.4612873  60.3261630
  36.0528133  32.5051516  59.3295455  35.8874640  31.6428206  60.8121603
  41.6057653  35.5337223  56.6224906  41.6840026  36.6635408  56.9843565
  42.6027249  34.8270494  56.1307177  42.5398198  33.8795758  55.9774035
  43.8911236  35.5366548  55.9305991  44.0968493  36.1142472  56.7984459
  44.7125457  34.8247899  55.7800624  43.9403560  36.4538600  54.6850414
  44.6430731  37.4873340  54.6408375  43.0870222  36.2727941  53.7154641
  42.5312113  35.4352076  53.7301427  43.0274894  36.9284767  52.3431121
  42.3194872  36.2657282  51.9268995  42.5092054  38.3617174  52.5404040
  41.7613772  38.3037152  53.4015233  43.2470352  39.1119510  52.7841368
  41.7324655  38.9607180  51.4152993  41.3197925  38.2032268  50.4378742
  41.5508984  40.2195315  51.3092628  44.2563456  36.6915023  51.4959242
  44.5854824  37.6124176  50.7727428  44.9048397  35.4519980  51.5580298
  44.4870543  34.7192200  52.1554050  46.0758280  35.0912302  50.7948803
  46.6440098  36.0322768  50.6644816  46.8791036  34.0606828  51.5427240
  46.3033622  33.1344798  51.8076668  47.6484332  33.7621069  50.8267679
  47.4790875  34.5430612  52.9204191  46.7326757  34.6342299  53.7384091
  48.5329559  33.5252952  53.3419414  48.7840080  33.7901699  54.4036390
  48.1221488  32.5701589  53.2452598  49.4433214  33.5278146  52.6626782
  48.0641204  35.9600990  52.9218833  47.3929140  36.7902476  52.5463460
  48.3976335  36.2320902  53.9393598  48.9251072  35.9749814  52.1142538
  45.7918138  34.5877153  49.3411471  44.7704500  33.8627455  49.1524826
  46.6947010  34.7623349  48.4052174  47.9183025  35.5355062  48.5180837
  48.4390889  35.3841916  49.4814564  47.6325753  36.6122681  48.4742787
  48.7700959  35.0523373  47.3187933  49.3746950  34.1586985  47.5019345
  49.4254112  35.8041243  46.9739443  47.7510172  34.6757166  46.2572361
  48.0093756  33.9881865  45.4748087  47.5020080  35.6152210  45.7549581
  46.5803460  34.1129071  47.0694632  45.6036851  34.3792892  46.6876555
  46.6486733  32.5604353  47.1414134  47.1192936  31.9172366  48.1080035
  45.9886743  31.9870130  46.1493274  45.5834216  32.5940874  45.4391937
  45.7684552  30.5563185  45.9651455  45.0773799  30.3094225  46.7591340
  45.1268038  30.2546711  44.6458767  45.8323065  30.5359947  43.9217779
  45.0560714  28.7684233  44.4156667  46.0382261  28.2295693  44.5729418
  44.2587777  28.3744122  45.0350718  44.7754487  28.5967523  43.3320779
  43.7451894  30.9076993  44.4778831  43.3598390  30.7324300  43.5114005
  43.0213278  30.4285368  45.2588640  43.6698198  32.0152485  44.5990561
  47.1198462  29.8140819  46.1388117  47.1229857  28.7711304  46.7362847
  48.2214948  30.2658551  45.5157099  48.2757590  31.1698969  45.0286109
  49.5703912  29.5487968  45.5088694  49.4396191  28.5044401  45.1605528
  50.5057638  30.2511443  44.5230549  50.1265443  30.0974202  43.5499205
  50.6376235  31.3101735  44.8996556  51.8787278  29.7509606  44.5413341
  52.3322261  28.7251373  43.7800000  51.6964248  28.1397827  43.0370407
  53.7351706  28.4820492  44.0607886  54.4211817  27.8011004  43.6784969
  54.1431496  29.3627588  45.0069674  55.3543301  29.5361734  45.6386271
  56.2679197  28.9978236  45.4367889  55.5384767  30.5504951  46.5944193
  56.4800910  30.6348218  47.1377936  54.4487612  31.3494526  47.0191508
  54.5232604  32.0967458  47.8229602  53.2472811  31.1672266  46.3545450
  52.4811782  31.9637594  46.5029035  52.9968647  30.1910242  45.3480180
  50.1208431  29.4648385  46.9231415  50.2844573  28.3416612  47.4135795
  50.2196881  30.5607154  47.6834001  50.1768844  31.4742357  47.1513759
  50.7472415  30.6549557  49.0216545  51.7818581  30.1948833  49.0217864
  50.8315475  32.1728167  49.4898391  51.2806356  32.7291817  48.6791841
  49.7983046  32.5884708  49.6058202  51.6974782  32.5389213  50.7493956
  51.1703674  32.1637287  51.6813475  53.0682111  31.9304594  50.5961128
  53.4475888  32.2484071  49.6834272  53.7196081  32.3012427  51.4417034
  53.0721884  30.8358593  50.6820988  51.7013626  34.0200998  50.8519084
  50.7316028  34.4339668  50.7865147  52.0607257  34.2286007  51.8957127
  52.3286780  34.4996540  50.0664492  49.9187099  29.8154134  49.9818728
  50.4973382  28.9611580  50.6283522  48.5651777  29.8690310  49.8805855
  48.1918388  30.4454660  49.1522887  47.5747800  29.2165034  50.6863152
  47.8605166  29.4588026  51.7088375  46.1528596  29.6825349  50.2834956
  45.9498791  29.3710208  49.2898070  45.4589304  29.1850254  50.9105141
  46.1791428  30.7322912  50.5273593  47.7412345  27.7243024  50.5869871
  47.8602336  27.1007738  51.5569931  47.7786661  27.2384928  49.3309565
  47.8605543  27.8763141  48.5896638  48.1103678  25.7908917  49.0286906
  47.3970747  25.1693032  49.6332790  47.9541980  25.4975770  47.5435244
  46.9245940  25.6050939  47.3573394  48.4569484  26.2631745  46.9090538
  48.5502652  24.1132222  47.1148388  47.8527855  22.8644128  47.1706262
  46.8338309  22.8695633  47.4399146  48.3939280  21.6681854  46.8701372
  47.7675715  20.7789468  46.8327257  49.7286831  21.6374235  46.4723411
  50.3692823  20.4351688  46.2114366  49.9178197  19.6753270  46.7156750
  50.4709266  22.8447788  46.2537186  51.4276334  22.8924545  45.8997355
  49.8183648  24.0623995  46.5333396  50.3645914  24.9654074  46.2933131
  49.5384460  25.4548927  49.4033369  49.7693391  24.4541520  50.0231611
  50.5705239  26.2166200  49.0833421  50.3477074  27.0556548  48.4530279
  51.9402037  25.9246495  49.4449039  52.1628137  24.9106115  49.0232665
  52.9161472  26.8689441  48.8128793  52.6812225  27.9481961  49.0313840
  53.9328700  26.6713014  49.1678276  53.1479577  26.6827697  47.3007949
  52.1953660  26.8736023  46.7558159  53.7314321  27.5644999  47.1126006
  53.7350887  25.2853785  46.8348613  52.8584397  24.5490275  46.9151528
  53.8878445  25.3683554  45.7138046  54.9386041  24.8279885  47.6338509
  54.8398375  24.0727305  48.2365377  56.0991853  25.3665604  47.5213141
  57.1004553  25.1007263  48.2627566  56.9774103  24.3251262  48.8902264
  58.0016494  25.5047299  48.2113083  56.3743028  26.2897927  46.6281432
  55.7210111  26.5076916  45.8663734  57.2421614  26.6886310  46.5285782
  52.1161716  25.8319374  50.9708409  52.9046635  24.9953386  51.3373074
  51.4701694  26.6790429  51.7983936  51.0371550  27.4237820  51.2765319
  51.5941207  26.6764202  53.3091723  52.6366743  26.5330571  53.5727868
  51.0404449  27.9600413  53.9731165  50.0566470  28.0942324  53.6410832
  50.9277821  27.9836592  55.4830851  51.9008744  27.8697011  55.8792759
  50.5486123  28.8939482  55.9793394  50.2830898  27.1167481  55.8221383
  51.8803155  29.2079719  53.6551199  52.8974817  29.1491288  53.9967657
  51.9181264  29.4346453  52.6142891  51.3853190  30.0521450  54.1616208
  50.9153816  25.3846297  53.8482591  51.5373890  24.5862408  54.5560468
  49.6653959  25.1695080  53.4792927  49.3550559  25.8216311  52.7644898
  48.7951405  24.0458612  53.7621364  48.6519251  24.1429365  54.8089488
  47.4646057  24.1500226  53.0890326  47.5507618  23.9602916  52.0314515
  46.7762600  23.4387127  53.4234759  47.0726681  25.1477248  53.2630289
  49.3562631  22.6125104  53.4567777  49.2206281  21.6368874  54.1850828
  50.1405547  22.5385597  52.4140114  50.3042336  23.2957265  51.7881765
  50.8955810  21.3390582  51.9690160  50.1783742  20.4898675  51.9743107
  51.3880231  21.5565877  50.5050380  51.7940248  20.5771522  50.0787069
  50.6224162  21.9933244  49.8690455  52.2514042  22.2517588  50.5414581
  51.9698457  20.8360263  52.9613312  52.1892126  19.6464085  53.1062071
  52.5281711  21.7076728  53.7478495  52.2624669  22.7079809  53.5964719
  53.4652416  21.3417987  54.8359173  54.1627145  20.5742994  54.5862172
  54.2486417  22.6250603  55.3262425  53.5923256  23.4166179  55.6774972
  54.8662697  22.3168366  56.1847027  55.2502998  23.2500804  54.3053968
  54.6202839  23.7991365  53.6058396  55.8117558  23.9550461  54.8690755
  56.0984229  22.2196742  53.5633832  56.6710499  21.2902562  54.2656223
  56.2905912  22.3847222  52.2868331  52.7464015  20.7845478  56.0562492
  53.3981301  20.2484032  56.9188611  51.4507593  20.7535436  56.0266430
  51.1175690  21.0739685  55.1353890  50.5591531  20.4833214  57.1236924
  49.5808936  20.2781039  56.6420107  50.9508303  19.6313230  57.6617600
  50.3786195  21.6593479  58.1171679  49.8663217  21.3460605  59.1341260
  50.8761094  22.8753912  57.8065026  51.2738181  23.0043902  56.9488981
  50.7654326  24.0447985  58.6854802  51.1540679  23.6737517  59.6837458
  51.5156465  25.2970093  58.1481034  51.4211131  25.2954692  57.0438064
  51.0157159  26.6157943  58.8283302  49.9553286  26.7712616  58.5865495
  51.2076215  26.6173227  59.9805511  51.6605015  27.4458990  58.5081889
  53.0504723  25.1917546  58.4800393  53.1493313  25.3180095  59.5152770
  53.3275653  24.1105428  58.2766055  53.8914409  26.1895902  57.5888920
  54.9863099  26.1170414  57.7794744  53.7812347  26.0238974  56.5842891
  53.6774294  27.2580243  57.7858263  49.3301864  24.3810850  58.9695247
  48.4232777  24.2168769  58.1178556  49.1118762  24.8075310  60.2288855
  49.9234835  24.8212779  60.8661989  47.8165601  25.2547953  60.6963684
  47.0665743  24.9318175  59.9328431  47.4941333  24.6440421  62.0938832
  48.3093072  24.9101837  62.7646534  46.5509897  25.0930512  62.5027707
  47.3297539  23.1938800  62.1742165  47.5619492  22.4642977  61.2426378
  46.9639766  22.7892587  63.3550584  47.0332872  21.8273940  63.5439590
  46.8563193  23.4562352  64.1710626  47.5531900  26.7413925  60.6567724
  48.4594606  27.5465341  60.7614114  46.2979062  27.1234068  60.5081804
  45.5923549  26.3717407  60.3966264  45.9008275  28.4941088  60.5074138
  46.4439571  29.0335906  59.6978781  44.4011201  28.5871710  60.1433107
  44.2148108  28.1606300  59.1633828  43.8870035  27.9566225  60.8595031
  43.8981022  30.0378188  60.1932284  44.0864637  30.8122594  59.0435955
  44.5599450  30.2766759  58.2233659  43.6584656  32.1669891  59.0051815
  43.8338811  32.7033048  58.0975335  42.9747372  32.6638857  60.0697299
  42.7902459  34.0241253  60.1431205  42.6405868  34.3453489  61.0562033
  42.5797403  31.8444900  61.1804381  41.9759877  32.3384818  62.0200241
  43.0377511  30.5004950  61.2733314  42.7948728  29.8282923  62.1168661
  46.2838568  29.2773414  61.7875531  46.7287865  30.4602985  61.5714426
  46.0416571  28.7780653  62.9920127  45.6083537  27.8551515  63.0342509
  46.2353108  29.5059610  64.2397819  45.7648977  30.5439049  64.1942163
  45.6219498  28.7793307  65.3890130  45.4839521  29.3281034  66.2734925
  44.6389407  28.5711806  65.0393924  46.1561581  27.8435865  65.6018543
  47.6970780  29.7536242  64.4785470  48.0004469  30.7345014  65.1379183
  48.6451480  28.9989145  63.8981746  48.2480915  28.2547592  63.3484802
  50.0697955  29.3961537  63.8367770  50.5246049  29.7817764  64.7953357
  50.9123979  28.1455964  63.6068116  50.6286631  27.4345910  64.3345515
  50.7367342  27.8008384  62.6095550  52.4405657  28.2751470  63.7911506
  52.9123798  29.3061076  64.2312850  53.1355655  27.3304276  63.3905116
  50.2988538  30.5158849  62.8459168  49.6481053  30.7503857  61.8313692
  51.3500681  31.2745489  63.0881655  51.7885012  31.1349191  64.0864233
  51.8570574  32.3088505  62.2809626  51.5428517  32.0432405  61.2276678
  51.2071551  33.7319309  62.7971440  51.4986344  33.8426363  63.8435035
  51.6813027  34.4854493  62.1859590  49.6972423  33.8549466  62.9545501
  49.4034511  33.0834909  63.6175316  49.5226378  34.8205875  63.4443513
  48.9619582  33.8273055  61.5855391  48.9585000  34.7541544  61.0319523
  49.4476634  33.1896120  60.8562806  47.6032599  33.2456576  61.6242865
  47.5377203  32.2670586  61.6527162  46.4339692  33.7792393  61.7522420
  46.2381952  35.0634456  61.8711116  47.0468785  35.6930229  61.8991309
  45.2766268  35.3329787  62.1148422  45.3549328  33.1104145  61.7405055
  45.4413006  32.1361719  61.7016049  44.5796348  33.5946372  62.1589255
  53.3613609  32.5373605  62.1494869  53.7419670  33.3063548  61.3146171
  54.1852962  31.7410311  62.8500614  53.7534442  31.0498126  63.4195067
  55.6551963  31.9284390  62.8905115  55.8367848  32.8863120  63.2656827
  56.2873593  30.8289373  63.7466320  56.0333750  29.8259147  63.3331394
  57.3519445  30.9460053  63.6645498  55.8623821  30.9715985  65.1938887
  56.3348027  31.7991448  65.5592983  54.8556116  31.2939895  65.2944217
  56.1611371  29.7277124  66.1002456  57.1087022  29.4662121  65.8011490
  56.0996955  29.8983332  67.1610180  55.3191466  28.6072133  65.6483294
  54.6702817  28.8194574  64.8829794  55.2691685  27.4317972  66.1891702
  54.4129285  26.5603611  65.7555017  54.0088853  26.8118018  64.8868436
  54.4753954  25.6726330  66.1598889  56.0110949  26.9748370  67.1528304
  56.7259165  27.5265746  67.5498764  55.8453242  26.0761163  67.5685558
  56.2201091  31.8672032  61.4859579  57.1755657  32.5585699  61.2338686
  55.6193722  31.1323682  60.5356791  54.8855838  30.4508023  60.9686466
  56.0051005  31.1599745  59.0776650  57.0735320  30.8310580  58.9847002
  55.0852319  30.1719682  58.2690733  55.5312009  29.8555521  57.3125112
  55.0890200  29.2295626  58.8187560  53.7182965  30.6251553  57.8769575
  52.5893168  30.1094960  58.4750711  52.5046191  29.3340319  59.2179807
  51.4720144  30.6253239  57.7681349  50.4542381  30.3214080  58.0347760
  51.8257202  31.5013539  56.8231916  51.0801123  32.3157146  55.8901782
  49.9847931  32.1477448  55.8554141  51.7978553  33.1858907  55.0681530
  51.2504737  33.5682858  54.2171796  53.1619824  33.4040962  55.1904681
  53.6558534  33.9909000  54.4092315  53.8639803  32.5659086  56.1176599
  54.9366142  32.6865520  56.0025385  53.1872526  31.6284955  56.9188375
  56.0329405  32.5568206  58.4943255  56.7138358  32.7335466  57.4418316
  55.4996943  33.6210819  59.0482264  54.9663762  33.4837706  59.8793275
  55.6901754  35.0279669  58.7042738  55.6535873  35.1724751  57.5943551
  54.4880578  35.7775712  59.2936179  54.5413950  36.0993621  60.3651461
  54.6609224  36.7349054  58.8661918  52.8667796  35.1791425  58.8229612
  52.9502581  34.0465981  59.5889218  56.9525667  35.7072551  59.1810171
  57.2263819  36.7895916  58.7079643  57.7713998  35.0220164  60.0074881
  57.5838364  34.1096165  60.2947291  58.9719915  35.5744142  60.5335588
  59.2554802  36.4803981  59.9971385  58.6446814  35.8966522  62.0205390
  58.5168668  34.9349971  62.5852572  59.4990233  36.3590272  62.5510534
  57.4222356  36.8155295  62.2327892  57.5928113  38.2059868  62.2332083
  58.5283086  38.6297057  62.0389716  56.5317153  39.0356902  62.6591648
  56.6513445  40.0737262  62.7199396  55.3376489  38.4390492  63.1167613
  54.5267435  39.1329664  63.2530141  55.1725215  37.0614358  63.0135117
  54.2117912  36.6743276  63.3585156  56.2505170  36.2334000  62.6559412
  56.1544805  35.1110889  62.7388616  60.2748768  34.7044328  60.4791139
  61.3496445  35.1918543  60.6729620  60.0971632  33.4042171  60.3008880
  59.1528234  33.0537197  60.0289331  61.1655544  32.4273133  60.4959463
  61.9065751  32.8848933  61.2042516  60.6572812  31.2414716  61.3645701
  61.5225487  30.7096469  61.7371720  60.2924964  31.6920794  62.3025813
  59.6071758  30.2874213  60.7836457  59.4807365  30.2810189  59.5697498
  58.9871117  29.4305017  61.4569676  61.9690285  32.0835969  59.1302538
  62.7633072  31.1575825  59.1635280  61.7735916  32.8038960  58.0046048
  61.1476229  33.5795087  58.0722472  62.4255678  32.6748257  56.6763232
  62.4703345  31.5874814  56.4004083  61.7554765  33.1869863  56.0350942
  63.8535840  33.3309775  56.5499079  64.4268833  33.8283376  57.5033236
  64.4060732  33.2442273  55.2903451  63.8341371  32.8307549  54.5621096
  65.6642183  33.8953192  54.9313494  66.3723687  33.6332557  55.6425892
  66.2606557  33.5402912  53.5961924  67.2368929  33.9837022  53.4542544
  66.5772187  32.0837501  53.4903308  67.2876847  31.9092272  54.2788003
  65.7113834  31.5131991  53.6333409  67.1603527  31.8789533  52.5440614
  65.2596051  33.9386428  52.4918831  65.6071459  33.5363006  51.5575382
  64.2487792  33.5766909  52.5716249  65.2480338  35.0409083  52.3584915
  65.5867397  35.3978294  55.0717942  64.5603684  36.0611991  54.8380231
  66.7631011  36.0212582  55.3290599  67.5094186  35.3510535  55.4927922
  66.9568656  37.5037293  55.3164080  66.4882457  37.8911484  56.2476855
  68.4384406  37.9036643  55.3850277  68.9898295  37.4880641  54.5351207
  68.4416288  39.0281028  55.3114311  69.0784465  37.5864358  56.7262613
  68.4045933  37.8212544  57.5050707  69.3166080  36.4955424  56.7579864
  70.3965932  38.2985183  56.9508997  70.2508035  39.3667653  56.7281025
  70.4729590  38.2523466  58.0354602  71.6039390  37.6209881  56.3138832
  71.8785594  36.7633818  56.9043637  71.3362755  37.3970407  55.3659249
  72.7777584  38.5340423  56.3867083  72.9591353  38.7090924  57.3703869
  73.5137699  38.0851279  55.8822188  72.5985230  39.4155704  55.9287378
  66.2850904  38.2491745  54.1329189  65.4035199  39.0974509  54.3376128
  66.5409886  37.7691364  52.9110660  67.3804835  37.1770438  52.8167617
  65.9965320  38.2713339  51.6347835  66.4126458  39.3000253  51.4903879
  66.5311220  37.4558447  50.4382863  66.1501653  36.4465484  50.4725365
  66.0937246  37.9347068  49.6051818  68.0358419  37.4521236  50.2994244
  68.6487119  38.4914423  50.4741439  68.6783711  36.2662688  49.9433543
  69.6521144  36.4067704  49.7438375  68.1811536  35.3731232  49.8573110
  64.4796624  38.3700565  51.5887742  63.8180466  39.1573300  50.8679543
  63.8176170  37.5913171  52.4855421  64.3634455  37.0853066  53.1884283
  62.3493220  37.5926964  52.5424527  61.9347815  37.8311296  51.5495360
  61.7322189  36.2135506  52.8228679  62.1421294  35.7746590  53.6812352
  60.6747463  36.2958727  52.8376682  61.9713172  35.2057784  51.7637825
  62.7374547  35.3575275  50.8298334  61.2560241  34.1095520  51.8600793
  61.2376634  33.4246643  51.1176516  60.8015173  33.9024519  52.7345466
  61.8592844  38.8097473  53.3258258  60.6593932  39.0348484  53.4700835
  62.6822925  39.6134639  53.9825658  63.7216978  39.4849889  53.9426322
  62.2598398  40.7835594  54.8167738  61.5855327  40.3561059  55.5684154
  63.4225063  41.4179216  55.5234419  63.9065594  40.6951287  56.1841078
  64.1468768  41.7339743  54.7621995  63.0723103  42.6706460  56.3427911
  63.9887078  43.0654287  56.8077021  62.6506992  43.4220970  55.7008601
  62.0073023  42.4142616  57.3618886  62.1889918  41.5501709  58.1829645
  60.8378627  43.0726223  57.4552714  60.0211408  42.6443122  57.9057275
  60.6403140  43.6392166  56.6533686  61.3926415  41.8020977  54.0489228
  61.8700846  42.2329474  53.0469015  60.1491623  42.0102618  54.3923454
  59.7572867  41.6660902  55.2883266  59.2391607  42.9781998  53.7470287
  59.3446345  42.7839864  52.6594608  57.8186262  42.4699760  53.9757555
  57.6329673  42.3840428  55.0403332  56.8346862  43.5189451  53.4784895
  55.8103219  43.1811669  53.4564942  56.8607769  44.3232101  54.2155438
  57.1211726  43.8971200  52.5184197  57.5432460  41.0448458  53.3492023
  57.7816652  41.0014196  52.2778938  58.0547931  40.2744256  53.9098313
  56.0580733  40.6273549  53.3368746  55.6591526  40.7239676  54.3257303
  55.4495120  41.1758420  52.5430064  55.9670199  39.5608950  53.0666237
  59.5632103  44.4147209  54.1649052  59.6205355  44.7363809  55.3737850
  59.7649358  45.3962202  53.2773530  59.5952041  45.1204759  52.3356452
  60.0630884  46.8943829  53.4945529  60.1662137  46.9938209  54.6072263
  61.3335765  47.3491010  52.7383102  61.2006963  47.0534119  51.6531752
  61.3820037  48.4204396  52.8509754  62.5760574  46.7604960  53.3589959
  62.2653904  46.3581337  54.3179188  63.1725138  45.7034903  52.4753576
  63.7828199  46.1992565  51.7277456  63.8108145  45.1077877  53.0987553
  62.4058085  45.0705918  52.0020476  63.6033131  47.8087408  53.5977138
  63.2415906  48.4616192  54.4269061  64.5742417  47.4242092  53.9446363
  63.7384684  48.3747541  52.6026636  58.9112414  47.8982072  53.1900744
  58.0126497  47.6594645  52.3410504  58.9557345  49.0610744  53.7902223
  59.7641061  49.3255799  54.4227951  58.1233270  50.1868227  53.3458900
  57.9657226  50.0658343  52.2819204  56.7444959  50.1046210  53.9841704
  56.2329468  49.1540079  53.7153845  56.8476599  49.9825577  55.1091445
  55.7404312  51.1485480  53.5503005  56.1510513  51.7440489  52.7029379
  54.8249114  50.6841492  53.1834074  55.3307763  52.0696905  54.7330290
  56.1688958  52.4066415  55.6304426  54.1797030  52.4929342  54.8694826
  58.7799683  51.6309637  53.6577894  59.3165427  51.9089686  54.7232742
  58.8229516  52.4522672  52.6031288  58.3547077  52.1269426  51.7759256
  59.5862482  53.6692133  52.4156504  59.4808668  53.9563030  51.4459267
  58.9565355  54.7107801  53.3680387  59.0024124  54.4562295  54.4079129
  59.4070197  55.6581229  53.1716200  57.4697702  54.9402912  53.0395216
  57.3507695  55.2871691  52.0511378  56.9766009  53.9802356  52.9295353
  56.7728236  55.7267226  54.1108294  55.6106638  55.4078901  54.4675874
  57.4208906  56.6687774  54.5714293  61.0730164  53.5145896  52.6813559
  61.6803985  54.2132323  53.4555724  61.6376733  52.3828451  52.3072170
  61.0428983  51.7139629  51.7394912  62.9769666  51.8618634  52.5571455
  62.9817804  50.8829471  52.1878500  63.9568794  52.6501856  51.7054344
  64.9386065  52.1679227  51.5668879  63.5008596  52.6906315  50.6414813
  64.2844075  54.1202568  52.1404696  64.6483742  54.3829121  53.2582744
  64.2348726  55.1138930  51.2698583  64.3136231  56.0625565  51.6586338
  63.8485670  55.1455750  50.2817186  63.3455612  51.6749999  54.0380719
  64.5533488  51.3940613  54.2909215  62.3666118  51.6485103  54.9769936
  61.4125371  51.7616711  54.6326968  62.4591149  51.1173821  56.3791107
  63.5360817  50.9688370  56.6806031  61.8048397  52.1037405  57.4493748
  60.7223320  52.0401285  57.2599918  61.9544543  51.7238738  58.9181229
  61.3464399  52.4193543  59.4986615  61.5651026  50.6695526  59.0246899
  62.9619350  51.8000991  59.1492446  62.1783716  53.5805454  57.2207188
  61.5177202  54.1632007  57.9300920  63.2491600  53.7114774  57.4481174
  61.9087617  53.8828099  56.2325895  61.8347369  49.6625522  56.4422694
  60.7618798  49.3787353  55.9003659  62.5493192  48.7041111  57.0748202
  63.4942358  48.8362503  57.4219579  62.1109026  47.3179720  57.3336638
  61.8106676  46.9027833  56.4077137  63.2568445  46.6011974  58.0176641
  63.5246226  47.1646022  58.9394284  63.0269302  45.5893908  58.3554086
  64.4769649  46.4503860  57.0461524  64.0681762  46.1177369  56.0576362
  65.0655516  47.3854937  56.8415617  65.4624459  45.3677226  57.5266729
  65.3964872  44.7436665  58.6312250  66.4055664  45.1341156  56.7336070
  60.8401034  47.3453211  58.2339650  60.7860381  48.0750310  59.2155636
  59.9228348  46.4830416  57.8969496  60.1086905  45.8595867  57.0934974
  58.5901064  46.4124563  58.5627342  58.3591759  47.3897084  59.0438512
  57.4826968  45.9653778  57.5425184  57.7118561  45.0105553  57.1018179
  56.1470272  45.8913294  58.3760249  55.7954981  46.9099713  58.6898194
  55.3171310  45.3840140  57.8908278  56.0950211  45.2639576  59.2788647
  57.3446552  47.0889016  56.4526419  56.9120378  46.7366120  55.5355901
  56.7194466  47.8012603  56.8370457  58.2997791  47.6785621  56.2422426
  58.6213552  45.4637627  59.8013747  59.1992071  44.3836376  59.7700981
  57.9926935  45.8704417  60.9135151  57.3725976  46.6615155  60.7988874
  57.8802136  45.2201402  62.2151952  58.3094884  44.2397019  62.2493907
  58.4743695  46.1922462  63.2748799  57.8437364  47.0558991  63.3237936
  58.3133135  45.7105621  64.1550318  59.9113167  46.5295251  63.1384779
  60.5153865  45.8057519  63.6981784  60.0413855  46.5540623  62.0243431
  60.1844273  47.9331727  63.6619438  60.9664401  48.7224770  63.0221077
  59.6166440  48.3476021  64.7035275  56.3899437  45.0003936  62.6904937
  55.4641924  45.6820951  62.2745218  56.1580313  44.0203274  63.5330768
  57.0064398  43.5185458  63.9008798  54.8880268  43.6415339  64.1097365
  54.1757844  44.3403836  64.0249778  54.4877649  42.4146013  63.3215506
  55.3347454  41.7596894  63.2239035  53.4152611  41.5773652  64.0141612
  52.7058537  42.2293227  64.5378096  52.8640558  41.0376634  63.2893979
  53.8286630  40.8841990  64.6922729  53.9903081  42.7881749  61.9239477
  54.6996747  43.3230681  61.2996043  53.7900370  41.8383328  61.4670804
  52.6390081  43.5961749  61.9709468  52.8749459  44.6084628  62.3148065
  52.2650168  43.6217761  60.9489244  51.8316095  43.2385672  62.6274417
  55.1807014  43.2798876  65.5958473  56.2293518  42.8343035  65.9966350
  54.1735124  43.4975272  66.4069427  53.4304844  44.0970768  66.0676386
  54.0047652  42.9892792  67.7746685  55.0329091  42.8168494  68.1849576
  53.1855527  43.9077874  68.7801344  52.3073307  44.3049487  68.3765335
  52.9812602  43.3763706  69.6282249  53.9821890  45.0469943  69.3548356
  53.7125817  46.3544404  69.0999125  52.9640799  46.7790291  68.4651208
  54.6406789  47.0944609  69.7816269  54.8292818  48.0662383  69.6141347
  55.5804678  46.3350577  70.4213690  56.7456273  46.6465924  71.1867641
  57.1053476  47.6959440  71.2247013  57.4332969  45.5485379  71.8899066
  58.3229916  45.8362128  72.4034063  57.0272152  44.2254852  71.7105232
  57.5421989  43.3779341  72.1712114  55.8509265  44.0104506  70.9538374
  55.5260379  43.0143081  70.9491424  55.0836736  44.9884305  70.2854572
  53.1456540  41.7562308  67.6446421  51.9915700  41.7783867  67.2211268
  53.7975148  40.6160589  67.9081879  54.8161977  40.6923274  68.1530641
  53.2932998  39.2767998  67.6490131  52.6654634  39.2653639  66.7311362
  54.4340463  38.2363511  67.7188836  54.0792568  37.2376218  67.6690864
  55.2033266  38.3896059  66.4157122  55.8611041  37.6144929  66.2750851
  54.4335345  38.2834715  65.5792466  55.8296834  39.1581434  66.3293620
  55.2667822  38.3841936  68.8605009  56.1562410  38.7942137  68.6813466
  52.2622760  38.9411483  68.7072511  52.0098611  39.6405753  69.7291781
  51.6228982  37.7777541  68.4954480  51.7729816  37.2667539  67.6408645
  50.6060388  37.2819969  69.3774309  49.9414694  38.0815729  69.6119155
  49.8333086  36.1840348  68.5982026  49.6087118  36.6042441  67.6514417
  50.4437497  35.2697625  68.4315073  48.5397039  35.7870559  69.2690898
  48.3137974  34.8794990  68.8113037  48.7509797  35.5640372  70.3157387
  47.3856484  36.8298171  69.0707294  47.7518104  37.7412294  69.4981764
  47.1615877  37.0558711  68.0469356  46.1539916  36.2774771  69.7958183
  46.5088949  35.7208192  70.6759140  45.4765425  37.0486376  70.0183002
  45.3630255  35.3165403  68.9911613  45.1225378  35.7766457  68.1262876
  45.8573975  34.4775183  68.7959009  44.5291400  35.0524947  69.4802528
  51.0944539  36.8030062  70.7757619  50.3061926  36.8590295  71.6824507
  52.3584328  36.4071899  70.8069810  52.8260751  36.2629702  69.8720502
  53.2006924  36.2611197  72.0389239  52.6915657  35.8985131  72.9259593
  54.2998623  35.2467472  71.7531743  54.8603617  35.6489805  70.8823209
  55.0012299  35.1975808  72.5811226  53.6900252  33.8679214  71.4561632
  54.5901202  33.1819118  71.4703228  52.9333220  33.5525624  72.1797178
  53.1817337  33.6437022  70.0208693  53.4303335  34.4420289  69.1103141
  52.5255060  32.5515375  69.9498172  53.6772398  37.5893606  72.6479596
  54.4048078  37.4950462  73.6714347  53.4109267  38.7596455  72.1056266
  52.8065288  38.7125037  71.2327684  53.8282441  40.0455097  72.6209195
  53.2225047  40.8514558  72.1965493  53.6887077  40.1319676  73.7027833
  55.2868273  40.4476684  72.2733984  55.8292754  41.3540041  72.9443739
  56.0217516  39.7534545  71.3325909  55.5058790  38.8925042  71.0244085
  57.4253094  40.0301153  70.8247477  58.0106123  40.5021796  71.6191589
  58.2392578  38.6930102  70.5898139  57.5622422  38.1494105  69.9979971
  59.2525231  38.7966711  70.1662842  58.4300384  37.7783342  71.8121681
  59.3444621  38.1063984  72.2230606  57.5764160  37.9879940  72.4803567
  58.4213372  36.3013380  71.4899615  57.6515048  35.8367861  70.6089619
  59.2495543  35.6221673  72.1297604  57.4210122  40.8991247  69.5901271
  56.6873881  40.5631925  68.6822839  58.2116359  42.0355802  69.5171032
  58.7729122  42.3214341  70.2897460  58.5258317  42.7718057  68.3222052
  57.5495358  43.0819549  67.9402628  59.3500961  43.9952204  68.6374969
  59.2823076  44.3784506  69.6228050  60.3779806  43.8318459  68.7454007
  59.2356695  45.1206835  67.5625572  60.1913427  45.7697289  67.6096181
  59.1865462  44.6953923  66.5899573  58.0451492  45.9575606  67.6632793
  57.1764880  45.4177383  67.9404130  58.1592797  46.5124872  68.5685089
  57.8274764  47.0321805  66.6572559  58.6457063  47.4214682  66.2909043
  56.7588286  47.6238386  66.1860729  56.8897911  48.5776774  65.3453068
  57.8748824  48.6773299  64.9736530  56.0895604  49.1122326  64.9429110
  55.5476764  47.4344403  66.5521466  55.3295517  46.8003362  67.3165739
  54.8730652  48.0602641  66.2164012  59.2811578  41.8860789  67.3975465
  60.3519548  41.3400205  67.7297328  58.7769498  41.6440182  66.1887366
  57.8311722  41.9692319  65.9802320  59.6044595  40.9456803  65.1318968
  60.6891726  41.0448278  65.3786024  59.2534820  39.4202455  65.1446703
  58.1636218  39.3815053  65.0499340  59.7064493  38.9045961  64.3201245
  59.7917552  38.6862542  66.4731246  60.8672447  38.9394543  66.7305817
  59.1369678  38.9828126  67.3208618  59.8066036  37.1006782  66.3762270
  58.9059643  36.7914875  65.8715208  60.6642898  36.8339065  65.7312915
  60.0548543  36.3305738  67.6965177  60.7906882  36.7742419  68.3994062
  59.0020549  36.3603639  68.1157711  60.4045776  34.9091718  67.3705884
  59.8238402  34.4972328  66.7193733  61.3636731  34.9277411  66.8774770
  60.4609759  34.2814043  68.1352982  59.2925641  41.5348668  63.7174133
  58.2316855  42.0867933  63.5251596  60.2783048  41.3830560  62.8480155
  61.0106104  40.7377225  63.1511404  60.2722818  42.0546730  61.5442577
  59.5898813  42.8491667  61.4709109  61.6831068  42.6082547  61.2206091
  62.3790010  41.8222345  61.0210552  61.6000794  43.1772782  60.2511882
  62.1555077  43.6090571  62.3336730  61.4659698  44.3644915  62.5219651
  62.3362894  43.1027250  63.2672051  63.4623499  44.2570170  61.7971965
  64.2286799  43.5317831  61.5718572  63.2177483  44.8300584  60.9315436
  64.0984538  45.3147697  62.7453335  64.9653300  45.7414468  62.2768688
  63.4624696  46.2230071  62.8647223  64.5217735  44.7579779  64.0733021
  65.3160311  44.1208183  64.0117407  64.9220685  45.5237096  64.5659189
  63.7716425  44.4732958  64.6805893  59.9234950  41.0350334  60.3839016
  60.2556449  39.8518693  60.3570943  59.0822689  41.5433949  59.5232422
  59.0838169  42.5430440  59.4946185  58.1406333  40.7859870  58.7143324
  57.7940504  39.9415736  59.3038541  57.0548632  41.6789645  58.1096213
  56.7374898  42.4088594  58.8320922  57.5593419  42.2804841  57.3307590
  55.7566966  40.9973467  57.7397706  55.9345214  40.1918915  57.0329663
  55.1540997  40.2832430  58.9435287  55.0798028  41.0382452  59.7021187
  54.0933321  40.0190734  58.6754242  55.5613980  39.3414412  59.3509705
  54.7488888  41.9903627  57.1661979  53.7367806  41.5619049  57.1753128
  54.6793210  42.9088875  57.8107016  55.0716637  42.2163895  56.1084735
  58.9185202  40.0022125  57.5670129  59.4178216  40.6780691  56.6946193
  59.0209976  38.6416388  57.6622768  58.5940112  38.2825069  58.5312237
  59.8505530  37.8188133  56.7622047  60.0338704  38.3187749  55.7616107
  61.2786670  37.8559089  57.4825347  61.4507983  38.8670419  57.7909595
  61.1093210  37.3907625  58.4132287  62.4442621  37.0914147  56.9302585
  62.2022934  36.0255935  56.7162088  62.6637225  37.5557854  55.9601678
  63.6363178  37.1439232  57.8687878  63.1873562  36.8639235  58.8212821
  64.3900000  36.4589083  57.5751996  64.2720080  38.5460084  57.7968283
  64.8110946  38.6084935  56.8849867  63.3701235  39.1887305  57.8124122
  65.2394279  38.6294914  58.8605256  66.0136615  38.0050682  58.8000939
  65.6849435  39.5477637  58.8273538  64.8136564  38.5354704  59.7305857
  59.4226844  36.3563271  56.5088311  59.8194416  35.3382907  57.0947381
  58.4964370  36.1980499  55.5057406  57.7268778  37.2501735  54.8429052
  58.2047765  37.6727308  53.9735679  57.3460502  38.0865978  55.4587789
  56.4157963  36.5652070  54.4040381  55.9663628  36.9694217  53.5606070
  55.6731801  36.5271668  55.3046296  56.7623218  35.1328509  54.1720376
  57.2058329  35.0245925  53.1869025  55.9574730  34.4590245  54.3289766
  57.8500895  34.9275847  55.2608957  57.3857016  34.5624808  56.1810638
  58.7316347  33.7762477  54.7753406  59.6544669  33.8852579  53.9145616
  58.4321653  32.5822434  55.2214234  57.7203303  32.5081320  55.9083874
  59.0517566  31.3636233  54.7126811  60.1350924  31.4349709  54.9423980
  58.3956806  30.2117166  55.5776953  58.4162104  30.4503739  56.6396320
  57.3792971  30.0334746  55.3256634  59.2603310  28.9589795  55.3406528
  59.1625003  28.7273339  54.2899383  60.3103582  29.1988628  55.5768700
  58.9657180  27.6934134  56.1590565  59.3896807  27.8138853  57.1269674
  57.9101627  27.6525483  56.2749170  59.5226981  26.4671227  55.5313587
  59.9477524  26.7128498  54.6290867  59.5358615  25.2222722  55.8717337
  59.9578035  24.4843499  54.9593060  60.3777904  24.8142110  54.1018535
  59.7818893  23.5077200  55.0722886  59.1662445  24.8015854  57.0640724
  58.8980648  25.4849080  57.7073980  59.1101407  23.7690876  57.2120338
  59.0294568  31.0438601  53.2008431  59.9473045  30.4031901  52.6783099
  57.9114999  31.4225390  52.5381751  57.2940658  32.0066896  53.0384256
  57.7312102  31.4906382  51.0966007  58.6909709  31.3845667  50.6209701
  56.9318267  30.2832304  50.5812753  55.8377320  30.4700106  50.7890204
  57.2390661  30.2529944  49.5541349  57.2563796  28.9451563  51.1146095
  57.9222729  27.9703805  50.4958784  58.3388721  28.0170492  49.5143165
  57.9632043  26.8744858  51.3395222  58.4002610  25.9781791  51.0534007
  57.2626534  27.1116438  52.4890394  56.9577653  26.2797947  53.5663421
  57.3304361  25.2290225  53.4968488  56.0539978  26.8129985  54.5365184
  55.8553497  26.1967793  55.3742043  55.6454875  28.1407737  54.4858175
  54.9802722  28.5369218  55.2153254  55.9686240  28.9396281  53.3710103
  55.5957595  29.8892887  53.2255238  56.7770743  28.4272411  52.3507289
  57.1608430  32.7805187  50.6630203  56.5183422  33.4876869  51.4940969
  57.4678127  33.2318085  49.4630422  57.9698935  32.6540905  48.8660475
  57.5043817  34.6676533  49.1796267  57.1574588  35.2596103  50.0575184
  58.9161447  35.0745876  48.9415890  59.4828596  34.8002861  49.8241885
  59.3826761  34.4960562  48.1562083  59.1417811  36.6531392  48.7948631
  58.6585136  37.0561941  47.9000448  58.6466518  37.4446416  50.0133641
  57.5602373  37.4486897  49.9963964  58.8920581  37.0033022  50.9478283
  59.0423552  38.4867504  49.9509192  60.5734001  36.9470577  48.5235498
  60.8485821  36.5771729  47.5495931  60.8670245  37.9723682  48.5910119
  61.2504135  36.3755471  49.1472997  56.6826247  35.0129364  47.9215048
  56.9710574  34.6554826  46.7757590  55.6339110  35.7553019  48.1156105
  55.4214534  35.9664284  49.0567232  54.6021348  36.2335365  47.1111909
  54.9397744  36.0237343  46.1073229  53.3151182  35.5217457  47.3611140
  53.4590648  34.4351555  47.4585469  52.9468905  35.8452253  48.3246303
  52.3122286  35.8054066  46.1972036  51.6005749  34.8815971  45.7857819
  52.2254282  36.9207070  45.6336588  54.4790321  37.7501545  47.1760003
  53.8725379  38.2905776  48.0597954  55.1267297  38.4370053  46.2451290
  55.7230253  38.0244670  45.5368029  55.1544582  39.8933096  46.1628503
  55.6297114  40.2748216  47.0876185  56.1023312  40.0923554  44.9071064
  55.5677225  39.8198661  43.9807823  56.3693659  41.1244526  44.8921088
  57.0470662  39.5911984  45.0850289  53.7559905  40.5568223  46.0401838
  53.5873463  41.7363416  46.3765195  52.6785480  39.8648939  45.6571135
  52.7670162  38.8862628  45.3750036  51.2517253  40.3303420  45.9277821
  51.0396213  41.3090913  45.3571704  50.2307477  39.2694427  45.4026433
  50.3229687  38.2900820  45.9103903  49.1644828  39.5840615  45.6358695
  50.2771593  39.0280611  43.8718050  49.9694752  39.9521414  43.3608231
  51.2716488  38.7390483  43.6568627  49.2737651  37.9002856  43.6190437
  48.3891793  37.9283952  44.2202652  48.8953790  37.9263364  42.6265754
  49.9620375  36.6151399  43.8050669  50.7584216  36.5983521  44.4339280
  49.4639402  35.4619227  43.4578940  48.3269446  35.2631345  42.8441678
  47.7646098  36.0703227  42.5523048  48.0272330  34.3188356  42.6456031
  50.1245353  34.3896607  43.6748370  50.8675869  34.4385600  44.3316350
  49.6000221  33.5447888  43.5935559  50.8157013  40.6109127  47.3462018
  49.9926690  41.5429666  47.4460771  51.3626358  39.9317816  48.4044203
  52.0520218  39.1818568  48.2170000  51.1079569  40.2811103  49.8318196
  50.1197306  40.7496295  49.8747263  51.0920483  39.1098622  50.8506802
  50.4033183  39.2909661  51.6648941  50.4153858  37.8685125  50.2290820
  49.4726916  38.2447083  49.8529927  50.9855431  37.4344410  49.4467591
  50.1161248  37.1956899  51.0227563  52.4861846  38.7986481  51.4548793
  53.2090465  38.7398840  50.7004070  52.7346999  39.5719046  52.2356494
  52.5870863  37.4911384  52.2288034  53.5274751  37.4829932  52.7679783
  51.7196130  37.4300225  53.0161399  52.6362301  36.6323337  51.5941140
  51.8384767  41.4357691  50.3849158  51.6031101  41.7645808  51.5231636
  52.6570198  42.1338818  49.5673988  52.9683126  41.7252295  48.6892212
  53.1287118  43.4664392  49.8070179  52.4160960  43.8469447  50.5697863
  54.4812962  43.1886917  50.4826744  54.8498072  44.1941476  50.8237992
  54.2353587  42.5857567  51.3851010  55.5642106  42.4643130  49.6940894
  55.7659438  41.0826999  49.9113257  55.0867331  40.5866442  50.5589422
  56.7833375  40.3729878  49.3280693  56.7337942  39.2732015  49.4087604
  57.7366535  41.0775554  48.5613544  58.8848560  40.4676596  48.1427788
  59.2068138  40.6299898  47.2073223  57.5561821  42.4234667  48.2957985
  58.2112205  42.9433667  47.6029896  56.5124737  43.1251462  48.8950097
  56.4211873  44.1631308  48.5791130  53.0378745  44.3481796  48.5136950
  53.7978636  45.2732209  48.3273217  52.0912067  44.1122256  47.6848862
  51.4291559  43.4436206  47.9244952  51.9292277  44.8208404  46.3954991
  52.7889389  44.7490357  45.8147091  50.9201397  44.0560700  45.5055082
  50.6597368  44.7054190  44.6619525  51.4386405  43.0822732  45.2754077
  49.6795531  43.8402011  46.1590250  49.8240480  43.0939736  46.7469690
  51.5253970  46.2817268  46.4282708  52.0001173  47.1090640  45.6444156
  50.6948906  46.6778197  47.4524391  50.2516175  45.9278362  47.9973923
  50.3104236  48.0619077  47.8819604  51.0098350  48.8394790  47.5020529
  48.9565566  48.4200302  47.1465841  48.8792180  49.4610555  47.0785421
  48.9543423  47.9846168  46.1747245  47.8183821  47.8955746  47.9901867
  46.8429655  48.6335040  48.2690346  47.8084526  46.6688787  48.2053204
  50.1789129  48.1885496  49.4564213  50.3808286  47.2321771  50.1644895
  49.7473184  49.3328425  50.0543213  49.4750509  50.7272194  49.3957061
  48.4688360  50.6882316  48.9666026  50.2563363  50.9774382  48.6722293
  49.6476562  51.6599882  50.5589670  49.1633067  52.6358557  50.4048651
  50.7279086  51.8361794  50.8051657  49.0145408  50.9041409  51.7064973
  47.9099607  50.8297908  51.5678725  49.2843790  51.3333293  52.6590684
  49.4742493  49.4772862  51.4992932  50.3859755  49.5113832  52.0221773
  48.4844845  48.4621785  52.0125941  48.6219153  48.0859751  53.1838607
  47.4843517  48.0750392  51.2387955  47.3980758  48.4226100  50.2707939
  46.3724571  47.3076713  51.6803027  46.2844268  47.5141438  52.7225881
  45.0596734  47.6363879  50.9759131  45.0520190  47.1778939  49.9829849
  44.2983711  47.2696278  51.5548864  44.7085634  49.1713122  50.9278063
  45.4761518  49.6714602  50.3389806  43.3687081  49.2692498  50.2692580
  42.6502076  49.0930113  51.0256850  43.2579325  50.2637248  49.9797466
  43.1914450  48.6184551  49.4185378  44.6538767  49.7657588  52.2982561
  44.1877118  49.0561394  52.9199442  45.6356632  50.0064216  52.7735708
  44.1836393  50.7594163  52.2595015  46.6296866  45.7739674  51.4531869
  46.1839207  44.9900348  52.3632199  47.3633192  45.3112111  50.4345959
  47.6007773  45.8901383  49.6821899  47.8830403  43.9277895  50.5136791
  47.0113205  43.2192747  50.7254834  48.4265129  43.4776490  49.1724839
  48.5188510  42.3738398  49.1509153  47.7948968  43.8216159  48.3688901
  49.4760362  43.7940461  49.0557260  48.8087307  43.7123956  51.7259559
  48.6116908  42.7917695  52.5129825  49.7406972  44.6626604  51.8987340
  50.0634572  45.3031207  51.1222246  50.3660804  44.6933118  53.2694911
  50.8517690  43.7748922  53.3538146  51.4733827  45.7590862  53.1612077
  51.9277865  45.6099527  52.1439802  50.9402076  46.7266004  53.1121748
  52.4827993  45.5910947  54.3506815  52.0598198  45.5466211  55.3463982
  53.1786239  44.2110348  54.2726449  53.9257006  44.1937180  55.0739486
  52.4013041  43.4596884  54.5393307  53.4612107  44.0682253  53.2357468
  53.4892710  46.6776626  54.2744559  54.5038701  46.3146330  54.2643296
  53.5429797  47.1153282  53.2559050  53.3099035  47.5270060  54.9412618
  49.4489124  44.7022883  54.5283882  49.6026829  43.8128754  55.3595665
  48.4549082  45.6422042  54.6690786  48.3410178  46.3022681  53.8492630
  47.5445018  45.6524843  55.8494129  48.1426892  45.8553466  56.6918172
  46.3835201  46.6997737  55.6386878  46.6886365  47.7047451  55.2121902
  45.6408888  46.1699558  55.0055208  45.6546059  47.1175249  56.9474100
  45.2638834  46.1630462  57.3137143  46.2909073  47.6451661  57.6342107
  44.3722827  47.8981418  56.7063887  44.5439744  48.8289323  56.0934575
  43.7011929  47.2249621  56.2062525  43.5787009  48.4794582  57.8679388
  44.2328029  49.1542530  58.4375628  42.7494106  49.0645074  57.4405104
  43.0077968  47.4225893  58.7242779  43.7800816  46.9260564  59.1773559
  42.2823265  47.6761106  59.3745859  42.5264951  46.7742764  58.0897893
  46.9344978  44.2672324  56.1489981  46.9854111  43.8697903  57.3443782
  46.2774663  43.6299875  55.1895946  46.4263283  44.0050199  54.2675552
  45.4657476  42.3904059  55.3746436  44.7090427  42.5267542  56.1948589
  44.6119185  41.9778029  54.1431053  45.1935585  42.0767513  53.2560828
  44.2805471  40.9603774  54.3251112  43.3691263  42.8112252  54.0150092
  43.6128659  43.8665143  54.0693856  42.8389424  42.4999189  53.0926714
  42.4538627  42.5367780  55.2322400  42.4116344  41.4483178  55.8534109
  41.8466838  43.5232373  55.7102569  46.4911046  41.2496457  55.7701731
  46.0582178  40.2798391  56.3571547  47.7473265  41.3964092  55.5129692
  48.0066472  42.2112619  54.9956215  48.7700565  40.4964770  55.9744384
  48.3227021  39.5567514  56.2598143  49.8181850  40.2975439  54.8493382
  49.3409839  39.8202894  53.9253487  50.1077715  41.3287088  54.5295495
  51.0194862  39.4592187  55.2795618  50.8280707  38.1539698  55.9124722
  49.8899263  37.6379505  55.9862484  51.9746061  37.4665640  56.4090576
  51.9425168  36.4361671  56.8517880  53.2578867  38.0059217  56.3106519
  54.1725254  37.4255511  56.5859747  53.4278404  39.2772252  55.6879129
  54.4106551  39.6126540  55.5192608  52.3243405  40.0365037  55.2310450
  52.4371770  40.9859186  54.7574922  49.4536737  40.9184838  57.3107382
  49.9110266  40.1120094  58.1045486  49.4348807  42.1680239  57.7010323
  49.2559872  42.8319558  56.9475768  49.8705547  42.6378558  59.0658134
  50.7193710  42.1037888  59.3360648  50.2704146  44.1260694  59.0639402
  49.4351334  44.6527044  58.6723782  50.3659352  44.4356774  60.0845144
  51.4956728  44.4815172  58.2189872  52.3264145  44.0495183  58.7617906
  51.3637425  44.0512708  57.1560721  51.6785978  45.9777917  58.0958428
  52.6239078  46.1681503  57.6109823  50.8436691  46.4680095  57.5547877
  51.7729235  46.5401098  59.5198435  50.9527286  46.1808852  60.1370933
  52.6579516  46.1689927  60.0278096  51.7571729  48.0419302  59.5003661
  52.5449675  48.3683340  58.9654393  50.8856107  48.2688713  59.0271592
  51.6847915  48.4568928  60.3988403  48.8944601  42.1075149  60.1950525
  49.1903963  41.4812741  61.1935994  47.5686874  42.3406887  59.9725395
  47.2988242  42.8840863  59.2201289  46.5498551  41.8258889  60.9570584
  46.6965646  42.1859573  61.9462984  45.1143721  42.1263313  60.5128816
  44.9550307  41.5471835  59.6382560  44.4430372  41.8507051  61.3371902
  44.6344019  43.4861584  59.9277374  45.1806072  43.6068705  58.9462737
  43.6411598  43.5490394  59.6700068  44.9795252  44.6403510  60.8578281
  44.3890926  45.7513649  60.6915787  45.8828834  44.6124259  61.6563777
  46.6798442  40.2702924  60.9791273  46.2587832  39.6693101  61.9620809
  47.1318992  39.6095010  59.9092625  47.3905012  40.0510119  59.0446593
  47.3997079  38.1403706  59.9302992  46.4969427  37.6873246  60.4139766
  47.4562623  37.6656124  58.4814615  46.5358985  37.7649757  57.8924110
  48.3029900  38.2074469  57.9549594  47.7392240  36.1789855  58.3731231
  46.6711308  35.2467274  58.2811677  45.5976175  35.4804927  58.3832949
  46.9303776  33.8670989  58.1610326  46.0988596  33.1969636  58.2497193
  48.2196027  33.2793192  58.1557767  48.2886037  32.1727113  58.3432437
  49.2751752  34.2020545  58.2536613  50.2743553  33.8246983  58.3788697
  49.0314866  35.6053789  58.3558000  49.8326337  36.2734541  58.5992148
  48.6368113  37.8080994  60.7445923  48.5272625  36.9625917  61.6583147
  49.8388630  38.3740963  60.5057720  50.0023569  38.9744182  59.7461951
  51.0424702  38.1513235  61.2552383  51.4500520  37.0864856  61.2548154
  52.0411769  39.2038594  60.7672173  52.9619642  39.0951245  61.3421822
  52.2552917  38.9674027  59.7080143  51.5658075  40.2382842  60.9118431
  50.6869705  38.2619852  62.7903231  51.0226900  37.2810844  63.5198654
  49.9811177  39.2871763  63.2736197  49.4439386  39.7833904  62.5266503
  49.5806411  39.5062046  64.6368599  50.4829750  39.5639007  65.1997203
  48.8448509  40.8116159  64.6324798  49.6088232  41.5000695  64.2202772
  47.9403346  40.5738494  64.0309724  48.5321034  41.1054917  65.6361049
  48.7967111  38.4065128  65.3690136  48.6307574  38.4268388  66.5542711
  48.2275656  37.4797112  64.5610410  48.5111195  37.5275550  63.5778164
  47.1235876  36.6338754  65.0538643  46.8081823  35.9199325  64.3286957
  47.4509050  36.0408884  65.9195078  45.8658079  37.4704587  65.4158401
  45.0233295  36.9857127  66.2467204  45.6872110  38.7309963  64.9756330
  46.2853968  39.1119374  64.3210195  44.4425997  39.6091164  65.1804660
  44.0180003  39.4036331  66.1561197  44.8773129  41.1103453  65.2622257
  45.6629819  41.3526172  64.5777400  44.0271305  41.7377446  65.0872072
  45.3233563  41.3823520  66.6962752  44.5589053  41.1793116  67.4378558
  46.3017030  40.9508160  66.9138057  45.5752545  42.9430036  66.9675091
  44.6502339  43.5283001  66.6673379  45.6440695  43.0600195  68.0760429
  46.7877756  43.3795494  66.1677599  47.6989269  43.2663476  66.5515644
  46.7626808  43.8300163  64.8998443  45.6611436  43.9010383  64.2304601
  44.7361893  43.7895311  64.6087284  45.7068577  44.2053795  63.2814114
  47.8726989  44.0127497  64.2294215  48.7573189  43.9297957  64.6932123
  47.8593881  44.3444272  63.2984976  43.2427191  39.2950389  64.2948371
  42.1837708  39.9749006  64.2923851  43.4001813  38.2552105  63.4513884
  44.2798312  37.9111311  63.3985294  42.3057398  37.5075704  62.8136650
  41.3830510  37.6141968  63.3802782  42.0282537  38.1612750  61.4734614
  41.1181238  37.7387760  61.1040611  41.8596731  39.2666601  61.6160736
  43.1419990  38.0092172  60.4172951  44.1593123  38.2397217  60.8147822
  43.1652146  37.0227204  60.0555710  42.7998663  38.8344393  59.2200851
  41.8895894  38.4220188  58.7240316  42.7345251  39.9181032  59.3773311
  43.9181328  38.7210800  58.1796456  44.7627341  39.4184650  58.3717365
  44.3349675  37.7151858  58.3524973  43.3110389  39.0737538  56.8718342
  42.4092023  38.5286946  56.7910830  43.0409979  40.0253469  56.8940894
  44.0019267  38.9653029  56.1254640  42.5285143  36.0598854  62.7076487
  43.7011807  35.5955586  62.8317204  41.5217261  35.3241954  62.5044702
  28.3580935  43.0150865  30.8486556  30.6799701  43.8190678  27.4559978
  30.0637667  44.6772922  28.5618836  30.7630240  46.0776042  28.8225154
  29.9307988  43.7889813  29.8275711  28.5187465  45.0979755  28.0116353
  27.0724971  44.3514220  28.0198281  27.1371643  43.4363904  29.2552783
  26.6247004  43.7465618  26.6723384  26.0743930  45.6501576  28.3064465
  25.3109313  46.3652727  29.5761903  26.3629542  46.7893258  30.6052546
  24.1602642  45.4907021  29.9399635  24.7882847  47.6959774  28.8791757
  23.7372552  47.9486267  27.9168100  22.8027792  47.5291160  28.3210200
  23.9866526  47.4317813  27.0458066  23.6048008  49.4725153  27.6793150
  22.9041233  49.6296771  26.8948882  23.1273191  50.2320699  28.7549075
  24.0777088  51.1640453  29.0851431  23.7814188  52.1373865  28.6673711
  24.0836912  51.3957289  30.5449396  24.5643991  50.5845054  31.5344138
  24.8999662  49.6201078  31.3764171  24.6079680  51.1801885  32.6812051
  24.0990632  52.4770531  32.3839106  24.0592774  53.6905163  33.1106509
  24.5256014  53.7851554  34.3106813  24.3410481  54.6569988  34.7790945
  24.8502110  52.9301039  34.7592730  23.6103230  54.8224387  32.5907613
  23.2767642  54.8522413  31.3521998  22.9382064  55.8090547  30.9024987
  23.3091187  53.8279732  30.5160460  23.7728177  52.6538246  31.0976782
  24.9070045  50.1089744  27.2084893  25.6504110  49.3369467  26.8490786
  24.5845373  50.9341451  26.0985207  25.4284300  51.4217184  26.0452767
  25.3924356  50.7592140  28.4788771  25.8689214  49.9421039  29.0309955
  26.4662148  51.7693572  28.2780007  26.6386588  52.2746090  29.1166282
  12.5265748   7.4461435  48.6406869  78.0991049  48.3668944  62.2526677
  75.7404666  54.1767949  27.8524224  76.7245545  30.6069422  34.6547289
  16.5587792  16.7541955  17.0357731  20.0391362  69.8504179  29.4461047
  78.7818716  30.3037853  65.8884375  62.0551890   6.2187059  63.0576675
  28.1299880  54.3346671  80.2162049  22.9104650   3.2472743  35.1305631
   1.4090107  15.3720394  53.0459587  26.4193304  15.4695848  10.7667487
   5.9658752  66.0352750  41.1838160  12.1721267  45.1447842   2.3682334
  76.2505870  45.2774416  54.6482488  54.4235247   8.2169615  13.8366460
  46.0507224   8.3045525  63.9874945  20.3959370  68.8971376  36.0750255
  32.7484007  -0.4151009  26.3697720  17.5394142  66.6609276  58.6990183
  24.9173907   0.5867677  50.5936288  19.5242191  -0.2160851  55.1234536
  41.6701610  37.9663319  73.9125537   3.6579119  21.3291973  30.0176719
  33.6503101  41.2074789  -6.5031436  29.5159783  19.5011283   9.6322499
  33.3858428  15.5913232  65.9824595   7.3779153  43.5073457  33.8147686
  65.0759217  25.8989462   9.0832605  53.1871771  16.3268739  32.6590640
  50.6796151  49.9664530  15.9562615  52.8539002  52.7264014  17.1827674
  47.8500833  20.1268652  26.0327624  33.6079464  60.4381811  16.3860411
  37.0027506  13.8731852  30.0768489  59.6108230  59.7125948  24.5406886
  37.5411379  38.1275905  19.3685555  54.7573290  54.3578967  56.2465147
  20.1613569  64.4939504  17.6873412  38.9094034  13.1363636  41.2308834
   5.8331201  26.9617322  40.1926962  78.7000380  16.1348111  41.1484209
  23.7026553  73.6188351  67.7793431  58.1678879  23.9011443  42.3907249
  31.9395209  50.7889354  78.7566462  78.2132966  47.4758759  49.0194901
  23.0132031  -3.7136534  51.2039211  17.7945762  20.6100002  14.3467209
  43.5499929  64.0443828  22.4387761   7.3548308  67.1908731  19.1132107
  43.5502886   3.4208754  34.1604741  23.7165780  -1.9594417  30.6671409
   6.2318394  40.1913247  29.9480966  29.7163754   8.8719280  60.7846223
  11.8985631  13.5582551  53.1682844  43.3142958  39.6382712  -2.2681691
  25.2507237  67.5616147   9.3424985  53.6030916  13.7960401   5.0962602
  10.0144909  32.2950871  26.9472755   9.3263047  31.8064056  26.3478425
  10.7120686  31.5623946  26.9225983  24.2182224  26.5679372  26.2716971
  24.4595256  26.7012886  27.1834705  23.2400588  26.7206042  26.3089081
  29.2804683  21.9934934  24.8455008  28.6078813  21.3888344  25.2636096
  30.1195455  21.5090372  25.1754911  17.2096692  20.6739628  28.3230865
  17.2775559  19.8078257  28.8065425  17.0485079  20.3018203  27.4402452
  30.3222930  18.8021578  23.3261909  30.7991654  18.4608594  24.1295393
  30.6651695  18.2003248  22.6727029  32.9484177  13.4871687  31.7285097
  32.8270483  12.7674709  32.3870583  32.9865332  13.0317534  30.8685843
  34.9472730  25.7546552  22.9705506  35.6148032  25.0655781  22.8284557
  34.4103246  25.2988713  23.6994146  31.6672502  37.7281022  17.1425864
  31.5977947  36.8175994  17.5104791  32.6827960  37.8811428  17.1669354
  42.8080809  26.8832120  17.9493032  42.0411886  26.5605399  18.5587079
  43.0369141  27.6479814  18.5179416  26.1129735  33.0745072  18.9910990
  25.1834080  33.2136623  19.0986548  26.3159577  32.6804254  19.8692833
  25.9413149  42.5384118  18.9529225  26.4704718  41.7130851  18.8823267
  26.6195872  43.1280588  19.2562035  30.0134574  49.9601033  22.9619692
  30.8713074  50.1257877  23.3804157  29.8667519  49.0190975  23.2205510
  20.9666410  57.5371836  31.8934349  20.2444557  58.1387532  32.1675533
  21.2915681  57.1996245  32.7172847  12.0996507  40.5031129  25.9205463
  11.7721960  39.6192646  26.2574288  12.9475755  40.6493989  26.3169385
  14.9507935  17.4143646  25.5412075  14.3070002  17.6496421  24.8296028
  15.1419239  18.2904779  25.9269284  19.3716535  19.3446018  47.2651537
  19.3747984  19.1215549  48.2529106  18.4875943  19.7948071  47.2670411
  34.7986153  37.6314691  41.9283480  35.4262276  37.1282034  41.3508197
  34.7411124  38.4958089  41.3979037  27.1144849  48.0942893  35.3623614
  27.2194565  47.1740341  35.0291055  27.8629191  48.2527436  35.9005277
  21.1023850  55.1834201  37.9883933  21.3299886  54.2472927  37.9334215
  20.1172596  55.1485762  37.8539583  12.1938986  53.6285366  44.3842792
  12.0266847  53.6377955  43.3808116  13.0779854  54.0043003  44.3864170
   8.5841543  44.5960409  37.8497915   9.1654929  45.0229571  37.1558541
   8.8878174  45.1493007  38.6122329  29.3293764  36.5593861  46.5352316
  28.5709111  36.1149679  46.9576820  29.6145506  37.1696699  47.2782137
  18.9285840  27.8591596  17.5978881  19.4345043  28.5531937  17.1976682
  19.6021333  27.0833400  17.5640286  20.9460037  37.1808140  50.2092071
  20.5754411  36.4723292  50.8130106  21.3272518  36.6092015  49.4860105
  24.1863512  31.9926986  51.3786508  23.3472309  31.5502787  51.1384796
  23.7854087  32.8827180  51.6274688  26.8146454  36.7786162  58.1253070
  26.1899543  37.3953424  58.6434019  27.6420998  37.2735576  58.3717926
  36.6908597  41.3970523   8.6694924  36.5069010  40.7384748   9.3338006
  36.0672625  41.1860958   7.9591141  17.5849107  14.7930656  54.4433833
  18.0214967  15.5535705  54.7879712  16.8734281  15.1680702  53.9022316
  18.5861955  28.4647487  45.4562688  19.4069234  28.5142324  45.9970492
  18.8914883  29.0447964  44.6972632  22.4220238  25.8578191  48.5408698
  21.9456075  25.5213885  49.3260013  21.6439063  25.8709284  47.9082113
  16.4552813  26.8844968  46.8215858  16.8263400  26.0874195  46.3288197
  16.9037799  27.6189410  46.3429334   8.6792981  42.8280420  46.2348303
   9.0294577  42.4780683  47.0958491   7.7166269  42.6873273  46.3928535
  18.1584807  26.4366964  43.6862737  18.2610830  26.9925285  42.8353472
  18.2659767  27.1032184  44.3412025  20.2610564  25.1205284  46.8844583
  19.6926895  24.3986118  47.2938977  20.4728489  24.7325865  46.0502055
  18.6931129  28.1931809  41.7047648  19.1192436  28.7737895  42.3938311
  19.1909940  28.6009390  40.9526779  41.3904311  38.2011325  46.2485400
  40.8822399  38.9553770  46.6665130  41.9551957  37.9108309  46.9859374
  36.6862126  43.2281215  44.1310766  36.1685588  43.9614829  44.6053926
  37.5516512  43.6615037  44.1816814  24.4662387  26.9377572  47.0514010
  23.9205391  26.6893080  47.7557695  23.9312946  26.9465260  46.2690988
  32.5553533   8.8247772  54.5530330  33.2016212   9.5074584  54.3438584
  32.6754235   8.6960743  55.5336636  27.0336117   5.4253494  49.7573152
  27.1259872   4.9725487  50.6293849  26.7841593   4.7138918  49.1896041
  28.3147829  20.0526198  53.4982183  27.5973470  19.5013813  53.2185703
  27.8049584  20.8946631  53.5164484  20.7345490  12.9946751  48.8384897
  20.2006987  12.1510133  48.8093584  20.0684593  13.6349234  48.6709995
  23.9150108  19.8188817  53.9993611  23.1510271  19.6824847  54.6284535
  23.3673951  20.0338249  53.1867951  29.6937477  13.7216134  63.9075041
  29.2730843  13.5253675  63.0579625  30.6233047  13.8558715  63.7003232
  18.8934306  21.4139919  58.9558951  18.3651575  20.7328984  58.4398723
  18.1532305  21.8478774  59.3984174  26.3260077  22.2648329  40.7868060
  26.1550157  22.3186833  41.7416785  27.2609875  21.9840184  40.7565357
  26.2025896  20.9296466  38.2414409  25.4462561  21.2002402  37.7252799
  26.1448775  21.5347429  38.9911016  18.8678696  20.9270970  32.4989780
  18.4608190  21.6345959  31.9186580  19.6791198  21.2951042  32.7402227
  37.1257698  36.6045054  40.6961807  37.8333111  37.0871023  41.2121129
  37.6415617  36.4042920  39.8848267  42.9076210  34.9840248  44.6081172
  42.9816408  34.7474307  45.5753996  43.6524745  34.4980447  44.2013263
  35.1917259  20.3613319  38.1478647  35.8601944  20.7082719  38.7409304
  35.6690312  20.5668825  37.3056400  28.0139790  42.4062506  34.9081524
  27.4891680  41.7113313  34.4474748  28.8373255  42.2633359  34.4693464
  31.6233933  16.3563768  43.4563990  31.9509290  15.6379156  44.0019581
  32.1394224  16.3328230  42.6654229  41.1648469  34.0412801  30.5778668
  42.1022758  34.1063858  30.3277344  41.0136381  33.0778764  30.4476301
  40.6459156  39.9667410  33.1313642  41.1897143  40.7298213  33.4517404
  40.3771451  40.3172783  32.2642519  43.8323864  38.9952787  36.2458754
  43.0549045  38.5512313  36.7016539  43.6389693  38.7856228  35.3155454
  42.8345908  37.0403372  48.6995178  43.6486505  37.2732215  49.1744183
  42.1416995  37.4808897  49.3512651  48.5696260  38.6746274  17.5317293
  48.8805031  37.8375794  17.9309937  48.7983210  38.4160414  16.5721697
  45.6654258  44.5232939  15.6772040  44.7880119  44.8951908  15.4436057
  46.2017473  45.3400663  15.4303629  36.8200370  35.9701906  19.2925687
  37.4277821  35.3172311  18.9029562  36.0422178  35.4551152  19.5705599
  41.5727288  37.0869833  43.8993938  41.3376119  37.6141280  44.7107448
  42.0200233  36.3146259  44.3362669  37.2016884  52.3219201  15.7175740
  37.8075237  53.0571193  15.3816904  36.3352386  52.6821782  15.5394254
  39.5655395  37.7397200  42.2258911  40.2797356  38.0258872  41.5815480
  40.1844866  37.3636728  42.9042911  53.7423768  43.4568807  23.7824892
  52.9764585  43.9264809  24.0946834  53.5328307  43.4219720  22.8209486
  55.2144894  54.8900078  18.8300747  55.6129122  54.2024571  18.3734567
  54.2586559  54.6684504  18.9773958  36.7341537  21.0939332  31.2709425
  36.5096336  20.1728926  31.4346464  36.8763799  21.3925752  32.1771610
  33.2009957  17.9806277  38.1009447  33.5882443  18.9139624  38.0277745
  33.0131686  17.9261511  39.0596884  40.9237080  34.5784023  42.1415257
  41.7148029  35.0644820  42.4507005  40.1701722  34.9875739  42.5874159
  32.0755291  18.3076995  41.1342913  32.1652646  17.4403082  40.7648675
  32.7425514  18.2631051  41.8906977  32.6813151  15.3668707  38.3173896
  32.4603349  14.9745337  37.4449498  32.9884617  16.2668177  38.0539046
  36.4410354  18.3278016  32.1610144  35.9722580  17.6543140  31.5973775
  37.2598443  17.8755803  32.3549583  65.0322817  58.0986347  49.0223396
  65.6030722  57.9659351  49.8492515  64.4624605  58.7941219  49.4421144
  22.6803555  16.7903533  36.6654562  23.1190179  17.4918651  36.1198009
  23.3266669  16.0437511  36.5775095  30.4384326  40.3937550  19.1604532
  30.1801012  39.4681768  19.2502870  31.4023056  40.2790244  19.2523856
  36.0374460  39.7197451  20.8311978  35.4979509  40.0396007  21.6244529
  36.5680137  40.5091882  20.6406214  40.0780684  36.0237880  29.2149185
  40.0097286  36.5429316  30.0264133  40.2780891  35.1463179  29.6113066
  43.6594828  23.8514822  20.1302617  43.0124975  23.4315020  20.7896385
  44.2919159  23.1245947  20.0915821  29.1415059  53.9891643  36.9275265
  29.8093027  53.9201909  37.7218187  29.6562263  53.3666386  36.3493893
  40.1317913  39.3038823  29.8271040  39.6036879  38.7654096  30.4048878
  40.3116571  40.1465613  30.3217426  44.7717350  33.9489677  25.6831363
  45.0348315  34.4503384  24.9590754  45.2765757  34.3362310  26.4215976
  37.9699049  32.0644481  17.3655176  37.1733350  31.7685867  17.7886848
  37.7847121  31.9153375  16.4366266  45.6513829  36.5136622  25.4429579
  45.7922197  36.4258691  26.4113524  46.5806726  36.3071650  25.1365608
  45.6248472  40.2077833  17.1464049  45.9875575  39.3670239  16.9012230
  44.6932707  39.9571936  17.3385392  39.5085038  37.0162875  18.5770088
  40.2005303  37.1748790  17.9070365  39.2686200  36.0587198  18.2927930
  46.9199995  38.3100042   7.9291474  47.9067717  38.4509286   7.8426757
  46.6615255  39.2187420   8.2036096  40.8224802  39.7663187  22.4831943
  40.8513852  40.6532104  22.8951418  40.9207539  39.2054457  23.3117723
  42.8294301  48.2157807  22.7464538  42.3510749  47.7756109  22.0949946
  42.1419476  48.5129559  23.3877455  33.2935422  51.6456528   9.1573460
  32.5468830  51.3370908   9.7082054  32.7892660  51.8757075   8.3303551
  33.9704577  47.8665811  22.0777925  33.2971293  47.4299218  21.4868480
  33.4045743  48.4475450  22.5891492  33.1265825  40.2080665  19.2356132
  33.7046163  40.4360313  19.9846605  33.3338103  39.2142211  19.2183897
  33.6523854  42.4279017  17.6268718  34.5026453  41.9334186  17.6599174
  33.1183385  41.8190033  18.2317854  28.5715845  51.4963326  13.0652388
  28.6334498  52.0828627  13.8338955  29.4400238  50.9918449  13.1582260
  32.2506527  50.9896147  16.4492886  32.5098948  50.9491026  17.3731756
  33.0474209  50.7934094  15.9315851  19.6943477  64.9109904  12.1599790
  19.7419430  64.1587915  12.8214614  19.4744294  64.3681262  11.4025337
  27.2866712  48.4155825  12.0856406  26.7132150  48.9239531  12.7307911
  26.9633542  47.4874489  12.2306347  34.7102823  59.6047802  18.2875934
  35.3624189  59.8843901  18.9577253  34.2559633  58.8729211  18.6735432
  31.5136531  65.5374965  16.0293912  32.4260621  65.8899090  16.2654173
  30.9975223  66.3499384  16.1540321  38.6173652  54.5743450  15.4972172
  39.3835866  54.3888620  16.0716364  38.1874642  55.2663450  16.0845903
  53.7996562  48.9483764  43.4428726  53.9901214  49.2024683  42.5365074
  54.6827574  48.6302371  43.7882142  54.6536838  53.7400534  12.9437614
  53.7581291  53.3512432  12.7893078  54.6060394  54.4649388  12.2803111
  61.4858714  38.2223191  44.4071637  60.7864113  37.5176201  44.4363202
  61.6666261  38.2942052  45.3769138  45.6104353  64.5221325  23.6255446
  46.2300931  65.2510619  23.6496492  46.0052334  63.9313401  22.9241585
  33.2365104  53.8484589  11.1313955  33.5842289  53.2814018  10.4017800
  33.7781518  54.6440696  11.1212382  40.7113720  35.5098733  84.5628102
  41.4939494  36.0998994  84.7067994  41.0843495  34.6783871  84.8148138
  52.1798989  62.0901695  25.4732141  52.0751258  61.1651234  25.6682959
  52.4497983  62.4791804  26.2926658  58.5360437  56.4711305  28.6448479
  59.2660765  56.6775442  29.2923984  58.2834747  57.4215761  28.4201992
  63.0939597  62.6511581  23.6011842  63.8293914  63.2932929  23.8509991
  63.3254854  62.4664164  22.6908375  56.3245086  55.2682832  29.7764235
  56.1078671  54.5227919  29.1457093  57.1497961  55.5911727  29.3945102
  50.1087135  55.3515408  33.7269448  50.6646316  56.0849161  33.3295304
  50.4432552  55.3830985  34.6580498  50.9944786  55.5078593  36.1872136
  50.7612367  56.4047926  36.3903857  51.7986726  55.3340310  36.6890379
  55.7058417  60.0727760  34.5752577  55.9175080  60.5930027  33.7989469
  55.5144409  60.7740947  35.2229540  47.8058409  73.5314050  36.1567728
  47.4955685  73.2975212  37.0543653  48.5416271  74.1209906  36.4653082
  48.2034832  46.0221181  19.1666516  47.9269305  45.2158260  18.6862232
  49.1051203  46.1636056  18.6795170  50.4668366  67.9577026  25.1901113
  50.1528432  68.4029328  24.3826687  51.4119584  68.0096242  25.1039150
  53.7409258  23.6517168  31.9368563  54.4753165  23.0469139  31.9227316
  54.0416958  24.3555413  32.5083166  61.6903616  19.3833589  33.8680605
  62.6376311  19.5134575  34.0817571  61.3785569  19.4992565  34.7894581
  46.7151602  43.7023973  40.4213760  47.0370439  44.3238280  39.6953397
  47.3218366  42.9551340  40.1813586  43.3480309  37.3309566  41.6318176
  43.0015192  37.3878231  42.5517058  42.5277069  37.5925105  41.1496837
  59.6142689  63.2027157  18.1870358  58.7075831  63.2686745  18.4969443
  60.0024779  62.7286197  19.0167199  52.2548150  68.3729835  31.2463172
  52.7539896  68.9272280  31.9348963  51.3961965  68.7933686  31.3441999
  49.5691997  69.5791799  32.6025201  49.5295858  70.5338559  32.6549135
  48.6206703  69.3442492  32.4732132  36.5568808  67.8707379  26.3402563
  36.6052428  67.1497537  25.6049363  35.6052841  67.8896939  26.4495009
  34.4310238  65.1207373  25.3590403  34.9826610  64.6263294  24.7282842
  33.8916586  64.3597636  25.6952879  33.3445894  66.2852192  35.6682256
  33.7433351  65.5690634  36.2161076  33.7966079  67.0766544  35.9968278
  29.7563239  68.7817661  26.7817167  28.9872632  68.5551136  27.3507270
  30.4214333  68.8988217  27.5041934  38.9565974  64.0673715  33.3024127
  38.5480579  63.4344203  33.8936005  38.2556074  64.4909700  32.8399935
  43.7827505   9.1376645  24.4201711  43.2776742  10.0007295  24.2330511
  44.3321208   9.4949384  25.1632917  47.9811350  50.0368341  31.6022197
  47.6375130  50.7662719  32.1437049  48.7481888  49.7813906  32.0911930
  47.1122591  46.8221679  36.3785477  46.7580000  46.0600927  36.8185290
  47.9970748  46.8514046  36.7627344  46.6448780  48.1624697  34.2012269
  46.7685412  47.4114417  34.8026274  46.6852792  48.8586646  34.8820498
  54.4647172  47.8440471  47.7533539  54.2558986  48.2706169  48.6514459
  54.3122920  46.8801986  48.0197956  48.3992600  42.1126672  38.8904211
  49.2250542  42.6557318  38.9302790  48.4091103  41.9081369  37.9549407
  60.0309474  41.4053156  45.6687752  60.1821285  42.0970380  44.9627796
  60.6326893  41.8620675  46.3573431  51.0285365  48.5242124  43.3736758
  51.0218304  48.0038992  44.2351114  51.9894091  48.6397748  43.2490132
  48.5072939  54.1582775  54.0315931  47.8332048  54.5513707  53.4093664
  47.9836233  53.3073864  54.2029614  53.2506033  59.1682323  50.7359094
  53.0039193  58.9234309  51.6389524  53.7335609  59.9796092  50.9065340
  40.1707651  62.3060061  51.7641321  40.4646093  61.9570789  50.9364230
  39.6658657  63.1143129  51.5565081  39.2571495  64.2642163  44.7332718
  38.3116002  64.0413999  45.0269205  39.1607957  65.2084471  44.9114233
  50.8360226  17.8803855  61.0071869  51.2945296  18.4251630  61.6635381
  49.8794139  18.0387319  61.2145682  62.2714662  50.4257215  42.6933657
  62.2581780  50.3329070  41.7123237  61.5696781  49.7476081  42.8723104
  37.0239931  57.4306954  46.8120520  37.9190620  57.0679528  46.5383671
  36.5831147  56.5771222  46.8796427  38.5654268  63.1125101  48.0829418
  38.4192619  63.3778896  49.0214095  39.0437717  62.2742018  48.2379607
  42.6871553  50.8337066  45.8569892  43.3691031  50.6807248  46.5672120
  42.6266846  51.8013587  45.9477684  46.2924550  53.0801177  51.4401922
  45.8517662  53.3587210  52.2794869  46.9506138  53.8420033  51.3627671
  44.8491264  45.3218714  44.5826856  45.7786567  45.2834545  44.9279467
  44.3859077  45.7074319  45.3514514  44.9636705  47.1967972  46.9505116
  45.7693141  47.3578649  47.5147990  44.7156866  48.1243393  46.7050985
  37.2342493  45.0321502  47.0797637  38.0498740  44.6178321  46.7191408
  36.5779831  44.8389317  46.3858862  46.6300315  44.6089927  37.7777614
  46.9709217  43.7661471  37.4387118  45.6661697  44.3495199  37.8701961
  44.5114550  44.6781567  42.0225152  45.3517169  44.5239405  41.5413901
  44.8173860  45.0338882  42.8782673  43.0060847  45.6420367  39.8889350
  43.2476465  45.0961897  39.1330501  43.5136110  45.1281881  40.6067739
  32.8765831  40.0246973  45.9529041  33.2557218  39.2605188  45.4231939
  33.4174216  40.7484366  45.5216703  44.8695024  50.2262898  47.6631939
  45.5892799  49.6231372  47.8549523  45.3509159  51.0604099  47.9154160
  35.4184187  38.1586879  44.5565042  35.0841388  38.0613231  43.6182381
  36.3491660  38.3677868  44.3473163  29.9353276  56.2863479  49.1943478
  29.4091256  56.4764011  49.9324940  30.3470326  55.4180015  49.4560333
  34.5128445  63.4396339  52.1053286  34.4316296  63.3836824  51.1129332
  33.5434853  63.4065024  52.3262184  17.8345875  57.3007423  39.9096677
  17.7070156  58.2005465  40.0634877  18.8192926  57.2102740  39.9873058
  24.0762468  58.5019154  36.3892838  24.8378496  58.8966460  36.9117727
  23.3612256  59.1247817  36.6917577  34.7889437  68.1023992  39.0777238
  35.3111959  67.7113952  38.3321771  33.9112414  68.1912127  38.6346905
  36.9081210  64.0672971  46.0878957  37.2460915  63.5478390  46.8203512
  36.8072175  64.9723845  46.5274880  37.3626633  68.3320255  34.0585066
  36.9133212  68.2060233  33.2123572  36.6305240  68.3480070  34.7173855
  40.9582086  41.6782367  31.1014846  41.1110758  42.5969769  31.5164698
  41.8756702  41.5871255  30.7496150  34.6060425  44.1935207  38.5696723
  34.1970461  44.5539314  37.7758565  35.5231640  44.4923357  38.5311938
  32.5901262  44.0924023  30.9317801  31.6553486  43.7719331  30.7407770
  33.0352500  44.3554448  30.0973951  27.9807755  45.4112112  34.7545584
  28.8953176  45.7728099  34.9190172  27.9850841  44.6181520  35.2789479
  25.7000254  51.7348197  36.3052772  25.6074351  50.8252282  36.7151436
  26.1975992  52.1798888  36.9673077  29.4150145  56.4483756  35.6192638
  29.5847233  56.8507293  36.5146002  29.1661944  55.5595448  35.9193629
  52.2361849  49.9825245  26.7218461  51.5717964  50.4454759  26.2191250
  51.8365861  50.0449897  27.6372445  52.4779525  42.8761391  21.4355113
  51.5547572  43.0412258  21.7658063  52.3439239  41.9330268  21.0946785
  48.1371245  41.6400091  36.2772453  47.2114950  41.3187672  36.3928337
  48.1682054  41.7461743  35.3318904  45.6544432  40.9636508  35.9053389
  45.2580406  40.0904472  36.0027723  44.8354797  41.5183470  35.9832294
  63.9697618  27.7405379  36.9674401  63.1049193  27.4260810  37.3669659
  63.6438316  28.5776172  36.6169910  62.6124296  30.5718602  37.2895989
  63.4157102  31.0125372  37.7442795  62.8146502  30.9953412  36.3663945
  62.6094186  24.4362569  50.5543712  62.9811217  25.1206993  49.9443804
  63.2055939  24.4949432  51.3074643  54.4341120  23.4095142  40.5480910
  54.5140370  22.4506999  40.7517316  53.6119188  23.2976830  39.9548725
  70.8495411  38.2917223  45.2941549  71.5887558  38.9558793  45.4207598
  70.2326394  38.7037320  45.8895259  66.3668221  43.4475266  44.0932930
  66.6844433  43.7884547  43.2130939  65.6839956  44.1562734  44.2856441
  59.1029698  36.6441317  45.0803194  58.7411481  36.2898953  45.8672968
  58.4075472  36.4832683  44.4381876  59.3665942  39.9243369  43.6810005
  59.4310866  40.3443111  44.5782671  60.0625479  39.3087274  43.7440670
  61.0722420  41.8976885  42.4453588  60.8851583  41.9295653  41.4861493
  60.3555762  41.3799219  42.7926562  58.6862945  48.4958443  31.9774597
  59.3902573  47.8534624  32.2392693  58.1129159  47.9907574  31.4294407
  50.9387175  39.9977978  29.2913994  51.0171257  40.9369501  28.9617160
  50.3112620  39.6257403  28.6442591  42.5163731  37.4252314  27.7019734
  42.2640765  36.6048034  27.2466724  41.7435316  37.4142973  28.3382833
  46.7681326  42.2794229  33.5776190  46.1472951  41.6803030  34.1397099
  46.0966049  42.9446498  33.2877038  44.7307898  43.5849832  32.4791228
  44.2033629  42.7746826  32.1927820  44.0129241  44.2921252  32.3403986
  36.5334544  48.3908958  21.0189126  35.6588080  48.4502313  21.4641973
  36.2058991  47.9862508  20.1671796  32.4829312  55.7620242  29.7238672
  32.6816637  56.2819406  28.9254300  32.3491423  54.8624224  29.3242143
  28.0684449  53.1676892  30.5581545  27.9946285  54.0606942  30.0958774
  27.5763742  53.3582076  31.3708213  32.5650551  49.8433534  23.7232658
  32.5289032  49.6897353  24.6938416  32.6541247  50.8305432  23.7891673
  30.2261490  46.6890930  31.3077834  30.5013210  46.2891918  30.4256035
  29.6592287  45.9347718  31.6191567  25.9376991  61.1225630  13.1045876
  25.2577423  60.4726101  13.4139124  26.4730651  61.1943426  13.9010924
  32.1239615  57.9258803  20.8852905  31.2012510  57.6317718  20.7842730
  32.5737271  57.5202539  20.0543231  31.0078299  59.1799211  26.3932253
  31.3502999  59.3689101  25.4764137  31.7468216  58.6140332  26.7087826
  25.1092593  75.2160060  27.9588042  25.5551572  74.3272884  28.0290650
  24.1796741  74.8811805  28.2570269  30.3562477  55.5587509  25.9561914
  30.0978729  56.0741626  26.7558231  30.3701620  56.2022067  25.2300907
  31.5244153  62.1036652  23.5875891  31.7616602  61.2330053  23.9930654
  32.2707494  62.6000912  23.8396390  30.0437565  56.8071847  23.7653332
  30.9112904  57.2184496  23.7036800  29.5783022  57.1079269  22.9937459
  43.2751255  63.9781031  25.6868123  42.7513514  64.3785990  24.9814368
  44.1950672  64.0806134  25.3149874  65.1997780  45.5893806  14.8282824
  66.1597866  45.8115891  14.8569656  65.2842768  44.5771315  14.9271184
  56.9023942  51.4205696  25.4382803  56.3469700  51.5787485  24.7024613
  57.2996977  50.5782855  25.3382135  56.0586843  48.4676517  23.3688149
  55.3758710  48.1324366  22.7556660  56.6396828  47.7556703  23.5187587
  46.6823499  48.7505550  18.7348826  46.7930065  49.0281649  17.8130874
  47.3246472  48.0010269  18.7251313  36.7610472  45.9346837  12.0141037
  37.7199046  45.6098880  12.1785365  36.4822688  45.0456618  11.5900423
  58.9169434  30.7116461  14.8879990  59.3125377  30.4169915  15.7351094
  59.6655284  30.7338349  14.3172948  49.3583482  38.7728274  27.1886316
  49.3153589  39.2794277  26.3379291  49.6387018  37.8996181  26.8740586
  43.8179344  34.6675428  29.4015904  44.6400607  34.7102482  28.8151673
  44.1615798  35.2236666  30.1501804  50.7086076  40.6268632  19.1506003
  50.0968569  40.2447707  18.5062853  50.8371015  41.5132055  18.8536482
  43.7409307  38.3940009  24.6742166  43.0193899  37.8701492  24.3420323
  44.3172354  37.7582770  25.1534259  42.3929925  34.4879307  26.9153569
  43.1017094  34.1330560  26.3516775  42.6583420  34.2495609  27.8135558
  48.8030115  30.9075256  24.5248368  48.1879074  30.2410120  24.1716230
  49.5839091  30.3387345  24.5922813  54.6451308  31.7516917  35.9284113
  54.1923437  32.3859473  35.3718055  53.8992957  31.1975162  36.2128149
  42.3399391  41.8216399  33.8803787  42.2368373  42.7375425  33.4381253
  42.9896097  42.0810356  34.5836943  51.9133910  30.2798058  36.0379711
  52.2476175  29.9810505  35.1817818  51.2283561  30.8631911  35.6774810
  46.1470759  37.0124565  41.8958652  45.2008636  37.2617236  42.0565822
  46.0550646  36.8083361  40.9413141  47.0360198  19.9430820  33.0064761
  47.9591307  20.1533837  32.6152616  46.5764274  20.5356575  32.3097994
  46.4293599  18.5743121  37.9681776  45.6975714  17.8991332  37.9401599
  46.4159985  18.8908264  38.9048265  43.3385688  20.4868975  37.5957348
  43.5397994  19.9417788  38.4260748  43.5832101  21.3734963  38.0494666
  44.0005016  16.8774562  37.7447141  43.6197634  17.3359995  38.5232606
  43.4605681  17.3691932  37.0373995  39.2340257  17.4486497  42.1044746
  39.5653944  18.2534480  41.6201451  38.9428243  17.8699634  42.9655887
  37.1283159  20.1223909  40.2148314  36.8075933  19.4962690  40.9140286
  38.1054921  20.0389021  40.4619694  41.4022381  18.3957523  48.5258516
  41.8314230  17.5313304  48.7792394  42.1169381  18.9640437  48.2162856
  29.1251792  18.9193524  41.1664028  28.4351999  18.3085729  41.3977887
  29.9499609  18.4022546  41.2443271  38.5575844  16.5713955  32.2799630
  39.0023793  15.8825235  31.7857934  38.3866297  16.0336803  33.1106236
  36.7803658  21.2648787  36.0723558  37.4588322  21.6863886  35.5345591
  36.2713267  20.7175183  35.4131448  43.3606022  21.1448714  33.3185553
  43.4288662  20.1327340  33.0937078  43.9097182  21.4859574  32.5759108
  39.4492800  36.8944936  26.8776716  38.4751575  36.8551718  26.9247926
  39.6658552  36.5594481  27.7926880  39.1220893  27.5006724  32.5988123
  38.8224653  27.9359835  33.4072592  39.5534871  28.2716272  32.1198163
  47.5082912  21.1565596  27.9737836  48.2716850  21.6997424  28.3243226
  46.8879963  21.1487647  28.7278815  31.8051655  10.2773628  20.9562333
  31.2682214   9.8937404  21.6687257  31.9554681  11.1873637  21.2183168
  53.7494555  19.6727424  27.5703664  53.2060171  19.1264278  26.9503891
  53.2073714  19.4837817  28.3730534  45.3005481  21.4068769  21.1536263
  45.0202086  21.2761207  22.1003729  46.1294036  20.9464222  21.1495207
  44.5684198  35.8919952  22.7884769  43.6868161  36.3352337  22.7669917
  45.0170222  36.3458920  23.5355105  45.3113378  21.0477272  31.0647323
  45.2578383  20.2458272  30.4526347  45.4039925  21.7424078  30.4107300
  45.5047521  16.4945255  30.0311762  45.4551729  15.9399229  30.8320109
  45.2257596  15.8325269  29.3465903  48.6039373   9.3711183  23.3204626
  47.8306536   9.8285219  22.8159171  48.0776320   9.0049102  24.0700739
  47.5546798   7.8629759  38.4965555  47.9891519   8.4840220  37.9231001
  47.2550261   8.4542075  39.2224889  42.0874996  14.6453107  30.4885787
  42.2534642  15.6223321  30.3574181  42.9340308  14.3145087  30.1596534
  44.4010568  16.9043107  34.0631434  43.8650771  17.3464745  34.7585348
  45.2363788  16.7433948  34.5966545  40.2447663  15.0226377  41.1589644
  41.1800352  15.2412633  41.0778769  39.9242653  15.7931064  41.6905595
  47.0253500  16.9936517  51.5926209  47.7012644  17.5682313  52.0559916
  47.5942637  16.2050793  51.3997507  43.8284782  14.1808369  58.9450069
  44.7739067  14.1725548  58.8952457  43.7654695  14.3621678  59.9551336
  59.4628061  20.7721651  45.6059544  59.9432091  20.6993356  46.3985388
  58.5586895  21.0051972  45.9286160  36.1421077  19.6086451  52.8715846
  36.6319942  20.1815636  53.4287090  35.1841073  19.8157194  53.2801918
  36.6708902  24.7517897  53.8096023  36.7658865  24.7160948  52.8612704
  36.9486328  23.8169897  54.0788673  40.5025078  38.0504101  65.8076863
  40.2828028  38.8867446  65.4428896  40.2146445  37.4410066  65.0544561
  36.8501278  30.1880118  56.4177804  36.0836913  29.5946398  56.2857263
  37.4604401  29.5842529  56.8722963  46.1878340  38.8384524  52.9900850
  45.4332131  38.4899684  52.4471885  45.9278414  38.4367230  53.8572506
  37.3897426  35.9727838  51.6454843  37.5705534  36.4391436  52.4400556
  37.8785792  36.5146038  50.9388056  34.9490006  37.7358599  47.1780857
  35.9189318  37.6936946  47.2255119  34.8623379  37.8277344  46.1877926
  45.1935831  34.0759227  43.0849984  45.2526098  34.8882000  42.5031148
  45.8740691  33.5157604  42.6021657  51.0354586  17.4900465  48.9195689
  51.1574440  17.5264548  49.9128933  51.5158917  16.5792464  48.8210569
  55.0016970  23.1720774  50.3015902  55.6167367  22.8946983  51.0502941
  54.4126826  23.7831597  50.8094001  59.4498942  26.4714550  47.6503249
  59.9046062  26.1960317  48.4828330  60.1558008  27.1370383  47.3912466
  54.4497778  24.0151077  43.2623144  54.4132274  23.7777977  42.3311887
  54.9393987  24.8587845  43.1846750  46.4524674  22.3718992  58.5966819
  46.7449742  22.3017938  59.5607769  47.1766949  22.8594590  58.1794635
  55.0793382  21.2932315  48.3462644  54.9270087  21.6967805  49.1983021
  54.2152853  20.9646073  48.0708416  44.3968291  24.8710781  60.6246465
  43.4720531  25.0168604  60.3032023  44.4113943  23.8771075  60.6117972
  45.2099738  16.2461144  56.9436717  45.2768727  15.3449675  56.5715641
  46.1642244  16.4267116  57.0668306  41.7159767  27.1616415  68.7991734
  41.2436133  28.0585580  68.9439881  41.1667878  26.6089976  69.3736288
  49.3172550  29.8960614  59.3598544  49.1273630  30.4422420  60.1638576
  49.0620736  29.0397567  59.7696937  60.4218691  22.3659567  74.6069938
  60.6310274  23.0329589  73.9078176  60.7319996  21.5852491  74.2226000
  46.4910407  33.0383829  67.8590631  46.8251592  32.1987406  68.2326390
  46.9149365  33.0277267  66.9664646  56.4665750  34.9695809  65.8624826
  55.5037693  35.0717776  65.6185385  56.3442430  34.9713536  66.8587253
  54.2046159  28.5710878  61.2026923  54.0687259  27.6388658  60.8873381
  54.0467259  28.3848365  62.1746445  63.3185627  40.4466764  63.7081724
  63.5389137  40.8973041  64.5843631  64.1998643  40.6584622  63.2332130
  73.3992076  37.2835458  51.9374916  73.5074884  36.3830269  52.3122662
  73.5380941  37.8085530  52.7360600  78.6824508  46.0425392  52.9658252
  78.5197930  45.6915747  52.0375045  77.9104871  45.5708669  53.3879193
  61.6329912  31.7444993  50.1231247  61.3302277  30.9066456  49.6635104
  62.5781712  31.6679333  49.8707478  62.4396728  38.9807756  46.7420402
  62.6452495  39.6198591  46.0511706  62.0800142  39.5183459  47.4749995
  52.9801224  50.7128448  50.1935548  53.1841711  49.7557062  50.2169643
  52.7365069  50.7806948  51.1819818  58.1528631  53.4698525  56.9615143
  58.7931424  53.3042488  56.2394958  57.3823265  53.0215030  56.5702681
  52.6554166  51.9397999  52.7323506  53.3300590  51.9330683  53.4254322
  52.2239472  52.8138558  52.8962039  61.1390690  59.6467238  58.9490340
  61.7486159  58.8960927  59.3286359  61.3236820  60.3377527  59.6084341
  67.6218284  45.3335162  62.0909041  67.9779511  44.7303970  62.7395548
  68.2862828  46.0886813  62.1562538  65.2135528  54.3045499  64.2030005
  65.1364147  54.8069072  63.3801645  64.2563895  54.0357679  64.3670159
  49.9832363  43.7204104  66.1611399  50.5101477  42.9294890  66.4496082
  49.4271297  43.8958496  66.9525667  44.5539478  38.1383840  75.0338615
  45.0279041  37.4536417  74.5020496  43.6540606  38.0234410  74.7269189
  53.8571507  34.5268263  66.3612900  53.6639168  33.6273609  66.0229485
  53.4903448  34.4262730  67.2684772  33.5398648  42.1012861  78.1577932
  34.0580756  42.7636523  77.6728828  33.8832881  41.3142597  77.6377219
  56.1915520  34.8227618  68.6840756  56.6644914  35.3003544  69.4765515
  55.2478058  34.9514366  69.0957849  52.5776772  43.9806879  78.4179385
  52.9106550  43.6470014  77.5296891  51.6602994  43.8568036  78.3353275
  58.6248722  41.9948147  75.2949993  59.3465684  42.3848371  74.8099244
  58.9947197  41.1016073  75.4755804  61.7648900  35.5232291  71.2112083
  61.6772433  36.4691074  70.8988413  60.9151034  35.4009105  71.6759703
  59.1017723  39.0983204  74.9692358  59.6409874  38.3147486  74.9785565
  58.1767282  38.7354894  74.9556500  58.0333643  35.5861501  77.0524243
  58.2382750  35.7107974  76.1541324  57.9421565  34.6044586  77.0973674
  66.7854288  52.2317513  65.1684906  66.3178375  52.3113537  66.0111000
  66.3381201  52.9574423  64.6842559  54.1597745  47.5936418  61.1483678
  54.9442126  48.0943421  60.7478037  54.6719546  46.8184580  61.5246946
  55.9715623  32.0807433  68.4835146  56.8624695  31.8007242  68.3109951
  56.0381955  33.0366243  68.6640346  66.3166731  42.5024107  64.4439969
  67.1821305  42.9861318  64.2273510  66.3717974  41.8569838  63.7009642
   0.6856911  42.2439275  66.2767221   0.8634029  42.2351863  65.3001247
   0.3826613  43.1636871  66.4079684  64.4119277  29.3475133  54.4278494
  64.0813295  30.0796958  53.8568072  63.5926727  29.0048230  54.8961982
  60.0425340  25.2018050  49.8605088  60.9888487  24.8401620  49.9633999
  59.5502317  24.6399136  50.4470808  55.0379521  35.6979395  51.0073651
  55.5299211  34.8896265  51.2394358  54.1942339  35.6102746  51.4561916
  59.1488099  31.2056391  48.1402282  59.7399569  30.4780960  48.5346017
  58.8350264  30.7794338  47.3720165  61.9977266  41.9033465  47.2709107
  62.9294753  41.9988673  46.9753245  62.0865636  41.2683048  48.0109422
  42.8860191  34.6446428  47.3226676  43.1200305  35.5791405  47.5818907
  43.1428075  34.2867920  48.2390336  53.6340186  48.1705087  50.4810776
  54.4821811  47.7559076  50.8173762  52.9440202  47.6252299  50.9360708
  60.0851758  40.6473861  50.9045575  59.8018973  41.6087362  51.0308611
  59.3149242  40.1636837  51.1343476  47.3744578  45.2773663  45.9955598
  48.2156018  44.8622405  46.1285225  47.3146555  45.7622033  46.9067068
  53.3919202  57.4142475  58.7597869  53.0525815  58.1163822  59.3638490
  53.9809970  58.0103066  58.1652340  63.4872719  53.1962529  39.0339428
  62.6108825  52.7301442  39.0987453  63.2329966  53.9455887  38.4450097
  49.5153544  48.8110035  57.9132934  49.1710825  49.6056597  57.5462936
  49.7434129  48.2794300  57.0609184  47.7002332  40.3927663  51.3624504
  47.2311545  39.9578223  52.1239765  48.0440601  41.2216550  51.8291574
  41.3319289  42.4110315  64.4563352  40.4548046  42.3484128  64.0805812
  41.6166804  41.4529600  64.5241521  48.4151122  46.9218849  59.6135068
  47.6828541  47.4508217  60.0245968  48.6467488  47.4789744  58.8107480
  52.1761664  36.7828337  65.7976305  52.3419128  35.8750375  65.8257003
  51.8390176  36.9824216  64.9105244  56.7671078  52.0057041  63.6895822
  56.3060815  52.5646801  63.0486223  56.1519153  51.2601390  63.7188458
  36.9145669  41.0658213  56.7531304  36.4639095  40.5950491  56.0712306
  37.2231010  41.8887375  56.3095273  28.7482071  40.9810339  30.1305668
  29.6914446  41.1706798  30.2530852  28.3141400  40.4343922  30.8432208
  27.8392034  44.9307149  31.6153258  27.7367294  45.1605107  32.5227804
  27.4099927  45.6266413  31.0505436  31.9295683  41.5550529  28.2271843
  31.8870286  41.4342310  29.1809509  31.4538876  42.4192064  28.0458969
  27.1008106  54.3622898  33.2104128  26.2710561  54.3102705  33.7470953
  27.4910720  55.1716128  33.5634064  54.1540431  27.2854273  82.1352524
  53.9951853  27.7945507  82.9777101  54.6150911  26.4894024  82.5644578
  55.5515040  33.8977378  83.6329721  55.0993488  34.7175491  83.5027931
  55.0031963  33.4311852  84.2624776  56.4909572  22.9514263  69.4379408
  56.2070235  22.8205698  70.3427442  57.1505169  22.2673909  69.2773981
  75.4894499  68.9740034  22.9815089  75.3171533  68.2196698  22.4119111
  75.2978808  68.5217433  23.8718571  52.1742476  23.9315639  73.2617498
  51.8469517  23.1584681  73.7197447  51.5615901  24.0722156  72.5816539
  21.7729884   3.3641670  20.6938438  22.5531276   3.8390715  20.9580312
  22.0622059   2.4951301  21.0144420  69.2807572  63.7166475  28.3855100
  70.2079901  63.7814268  28.6599153  69.4241046  63.6007571  27.4412187
  45.9075673  26.2647848  75.3340687  46.5520320  25.7120826  75.7621488
  45.2398663  26.2838438  76.0969631  71.0001621  66.1836071  28.4019315
  71.3547458  65.2464952  28.5982893  71.7595933  66.7420344  28.6691986
  36.1303519   2.5006954  25.1309805  36.2512665   1.6917877  24.5858800
  35.7060005   2.2036654  25.9227660  13.1944927  65.7818530  39.2252401
  13.1553726  66.5011289  38.5662609  14.1547788  65.5524179  39.1091917
  53.2271045  42.7717064  75.9518421  54.1726006  42.9691717  75.8973470
  53.3080459  41.7654319  75.8509578  63.2805061  67.5045056  22.5334102
  63.6589461  67.6008169  21.6586639  63.7787809  68.1901804  23.0205854
  30.9279699  -1.2682326  22.5517732  31.2329341  -0.5364288  23.2041828
  30.2884920  -0.7105625  22.0457523  49.3735442  37.9223528  83.3457132
  49.5009822  37.8799166  84.2920285  49.7742673  38.7866193  83.1542803
  69.8855817  51.4166771  10.6505290  70.7780254  51.6643128  10.8110236
  69.5835789  52.1123017   9.9846424  57.1933303  32.5393601  76.6767641
  57.1870179  31.6945214  77.1846778  58.0945115  32.6050109  76.3148720
  26.5029750  -0.4401273  21.7822073  26.9564464  -0.0193236  22.5510074
  25.9616155   0.3259485  21.4570239  54.8028831  34.1554091  79.1911148
  54.5905109  34.9735366  79.7662187  54.1188887  33.5711662  79.6058202
  43.2556002  32.2490034  75.4896319  42.3642536  32.0130221  75.7920201
  43.6948291  32.3200202  76.3726920  46.4613593  26.6956660  79.0768150
  46.6759998  27.5169908  78.6349597  47.2842336  26.5816880  79.6219877
  29.9150416   3.9038263  16.6637419  30.6313935   3.7235013  15.9766990
  30.4120366   4.3538814  17.3060630  39.6581390  50.2892766  79.8306537
  40.5894430  50.3145118  80.2214250  39.2288272  50.1394362  80.7108627
  47.9147957  41.6827684  78.4923242  48.2228666  40.8293557  78.8137690
  46.8985249  41.4084811  78.5476694  50.7094979  40.0674616  82.2220086
  50.5175475  39.9664082  81.2464112  51.0109855  40.9821975  82.2438378
  71.9484553  69.3475408  34.6160284  72.0886117  69.6794815  35.5183296
  72.6249937  69.7924212  34.1142134  44.3905647  43.6229851  80.9275482
  43.6217666  43.3043114  80.4287481  45.0785379  43.5418108  80.2385090
  21.1862395  72.3801583  17.3746518  20.7007660  72.1942230  18.2230514
  21.9181191  72.8728652  17.7403621  37.9203967  38.5063921  84.7964956
  38.7758232  38.7390496  85.1299645  37.9399093  37.5219503  85.0275841
  45.6029496  35.7504017  82.7871875  45.8788883  35.9841794  83.6735464
  45.9077400  36.5492057  82.3070511  42.8682157  36.6878324  81.0467861
  42.7365381  37.5476637  81.5834682  43.6844920  36.3944492  81.4890394
  46.6060197  30.0498323  77.0611017  47.0530597  29.6581121  77.7884735
  47.0478974  29.5784614  76.3313126  34.4658684   3.3872573  29.0889204
  35.0947097   4.1143779  29.0113078  33.7069096   3.6826253  28.6061797
  56.3945290  14.8981603  65.5038872  56.2349115  15.8841001  65.5946493
  57.3094771  14.8899647  65.8325319   6.1605604  32.9063007  18.8057632
   5.6513549  32.8321327  17.9968107   6.8968746  32.2820488  18.4550484
  48.1144723   3.7488832  69.1947630  49.0449026   3.8530445  69.3957079
  47.9408870   2.8749779  69.6605176  49.8978921   8.2604579  53.4642474
  49.1173435   8.1911154  54.0771289  50.1741432   9.1543591  53.6570525
   4.3665024  40.7738969   6.4844212   5.2857178  40.9157125   6.2062616
   3.9288244  40.6516153   5.5810348   8.8991948  52.7613757  10.5496351
   8.2193972  53.1334117  11.1660075   8.6391562  53.3342004   9.7759078
  75.4796236  40.9520005  13.3992869  76.0632171  40.1333016  13.6503818
  74.9542015  40.9362438  14.2379152  42.2069361  18.3267346  65.0484558
  42.1606039  18.7620569  64.1652822  42.6488138  17.4838247  64.8068633
  12.0432350  37.3637214  14.6848564  11.8511621  36.8784458  13.8907635
  12.4229144  38.2114853  14.4125923  10.3621050  52.8534417  17.8763767
  11.2767279  52.7060830  17.5006211  10.6533126  52.8752770  18.8260243
  57.0119786  17.3420169  75.7434682  56.5186629  17.6619870  76.5263771
  56.7092946  16.4143566  75.6503030  55.0427812  18.7851063  71.8777326
  55.7613037  18.8907634  72.5796786  55.3591480  19.4098921  71.2044652
  58.7474588  12.1877740  64.4480940  59.0690663  11.3597077  64.7785881
  57.9271743  12.2850458  64.9593257  69.1262353  37.6438721   9.3794147
  69.2706913  37.2499338  10.2767334  70.0462909  37.9863906   9.2832306
  48.8679303   3.7588358  64.8589247  48.9498761   4.5818945  65.4428574
  48.6707754   3.0975867  65.5927791  19.8971374  69.3299795  64.8089387
  20.1775226  69.8025399  63.9631206  19.4347700  68.5590108  64.4279327
  50.0486888  17.2489617  54.7838873  50.7869950  17.4809294  55.3586358
  50.4123915  16.4923468  54.2852904  71.2805155  36.6981150   5.9929066
  70.4956057  36.1167051   5.8768060  71.7704068  36.2915483   6.7347234
   3.5706133  38.4878085  12.2078554   2.9673214  38.3346600  12.9370784
   2.9850620  38.8296280  11.5456091  50.5412677  17.0590044  78.1255378
  51.1573850  17.2812477  78.8237492  49.7259280  17.4196659  78.6111752
   4.9297321  48.6127457  15.8329201   4.2554168  48.7450221  16.5457438
   4.6843896  49.2364748  15.1567273  64.1708945  25.8175702  68.4096281
  63.8888133  26.5421406  67.8164382  63.7041572  25.1309126  67.9634108
  54.1283778  19.0128496  61.7598887  54.1162020  19.6325401  61.0583203
  54.4750340  18.1989556  61.4442605  13.7378829  52.6522620  11.8883475
  13.2780919  53.2237386  12.5240916  13.0048340  52.4915377  11.2581578
  49.4164528  30.3372566  75.6000117  49.7029276  30.4290206  74.6439059
  48.8538419  29.5483654  75.4662785  51.3628400  19.8816136  69.8210210
  51.5331224  18.9873322  69.5454434  50.8888648  20.1988724  68.9783135
  57.1038826  25.5734534  70.1804045  56.9267998  24.6257316  69.8888366
  56.2151795  25.7200355  70.6340512   8.9609698  49.6175741  19.1691956
   8.3577982  50.0275258  18.5863306   9.0347362  48.7044995  18.7866379
   3.2622548  38.9479001  17.4242168   3.7358213  38.5491765  16.6510310
   2.4119729  39.1259521  16.9808566   0.5342939  43.9281653  16.5260066
  -0.0050864  44.4460496  17.2069458  -0.2319207  43.8927312  15.8526264
  68.1199841  56.6835797  13.7591199  67.3907621  55.9644164  13.7581169
  68.3106209  56.7056355  12.7895678  58.9762968  25.8846278  72.2989706
  58.2604559  25.9696929  71.6750406  59.1232449  24.9126927  72.3085930
  17.1496310  56.7597094   5.7119969  16.5099403  56.5875658   5.0157277
  16.5392507  56.8309879   6.4824066  62.0163423  19.5814620  66.4363853
  61.5401894  20.4116720  66.3578533  61.3918785  18.9437572  65.9929222
  48.8632930  23.5762320  82.0638946  49.7046700  23.8226987  82.5250856
  48.2347080  23.4485381  82.8148549  12.7657947  65.5511698  15.8876856
  12.0886171  65.4860592  16.5777938  12.2100386  65.6489581  15.1155603
  62.8905424  28.8009268  74.4292695  62.5353729  27.8673595  74.1977249
  62.3382541  29.3485964  73.8676653  54.7969101  33.5889818  76.6185160
  54.7888946  33.8892175  77.5773886  55.7493590  33.2075568  76.6379655
   4.3152874  60.9934858  18.1559672   3.5797465  60.3509066  18.3259531
   4.9792222  60.6397559  18.7625406  65.8274994  62.3454782  19.1963075
  65.5698453  61.4600544  18.8674828  66.7706706  62.3548606  18.9239574
   6.8560575  62.3141012  22.9705951   5.9815164  62.0207949  22.5447319
   7.3007840  62.6081642  22.1750082  45.9823306  15.5301971  75.0997799
  46.1280146  15.6840602  76.0381211  46.7120911  14.9632371  74.8684419
  77.6332288  44.4534655  20.2324174  78.1493275  43.6395404  20.2665195
  78.2658003  45.1277755  20.5555940   9.6623256  36.6758480  12.7667037
   9.9780299  37.6038159  12.5656378  10.1850804  36.1599583  12.1159039
  59.3031625  23.4035961  67.6192280  59.0318332  22.6098428  68.1938929
  59.3236377  24.0805905  68.3341452  22.5581760  55.6602069  11.7459895
  22.0203845  55.0078995  11.1976207  22.5624149  55.0742409  12.5678440
  11.8368682  44.9489732  15.7501022  11.5905303  44.5964954  16.6050160
  11.3350903  44.2932357  15.1631973  14.3625547  45.6443079  15.8973381
  14.4684646  45.2737575  15.0055683  13.4158953  45.4656591  16.0282818
  47.6967674   8.2066253  55.1551255  47.6557005   7.8782178  56.0123841
  47.0947462   8.9957551  55.1340069  47.5033540  13.5720191  61.8286911
  48.4415070  13.4579995  61.5483026  47.3987516  12.8387845  62.4055867
  61.6162187  31.7242943  70.9314426  60.7664920  31.5241907  71.3757289
  62.2172782  31.5915879  71.7459758  66.7273662  26.0325162  72.0464657
  66.6617944  26.9921542  72.1083236  67.6862388  25.9245025  72.1768907
  54.7029753  24.2748397  73.2229403  53.7639388  24.2261578  73.4859180
  54.9577208  23.3431241  73.2300515  61.7894379  27.9912848  77.2987162
  61.8128384  27.2153056  76.6159500  60.9314673  28.3604186  77.0604472
  50.0464973  31.3923993  66.8295012  49.3061580  31.3101938  66.1902135
  50.2439550  30.4904731  67.1048829  51.7358680  28.2724919  79.4486574
  52.5019028  27.8813174  78.9314976  52.1809486  29.1292180  79.7438314
  12.5535418  60.1333931  14.1590790  12.3997913  61.0763769  13.9392649
  12.2102170  59.7339520  13.3531223  52.2164448  23.7841539  67.7686720
  51.3174101  23.6167456  68.1262088  52.0404926  23.8305356  66.7939179
  56.6352113   7.4556483  68.8608655  55.8030673   7.4994955  69.3749607
  57.3389051   7.4347911  69.5050810  54.3659726  21.4032284  74.2352065
  54.7548413  20.7233422  74.7979455  54.0088999  22.0296536  74.8967299
   1.4017471  41.2837869  13.0029001   0.6681183  41.5138769  12.4228682
   1.0847686  40.4493289  13.3895689   2.5231952  61.7032420  23.6770118
   1.7359695  61.4328909  23.1661971   2.2382829  62.5974494  24.0228973
  57.6554230  20.8655435  71.9777979  56.6914463  21.1159240  71.8671557
  57.5708804  20.4865400  72.8841341   5.4048531  57.5835162  15.1787155
   5.8820517  57.0023065  15.7661314   5.5512547  58.4823000  15.5585917
  15.3854100  70.4601822  24.8317208  15.6797859  69.5183746  25.0059998
  14.3948692  70.3141684  24.8403901  59.7416203  18.6432047  74.1093691
  59.1091421  18.6055916  74.8717918  60.3058180  19.4158491  74.3486404
  14.8168179  55.3276381  14.7826317  13.9476261  55.7505194  14.6751544
  14.8295178  55.1228310  15.7755161  58.5515449  31.5498575  68.5352265
  58.8491306  32.2743661  69.1332864  59.3764478  31.2739307  68.1036317
  39.1385087  40.9015121  78.5710644  39.9772297  40.9636065  78.0144519
  39.5892923  40.6913687  79.3913079   5.8766818  43.4509416  11.6500815
   5.1052936  42.9877390  12.0608503   5.5727061  43.8822966  10.8554076
  31.9565407  22.9099642  67.7614038  32.0531267  22.5188757  68.6176863
  31.5263373  23.7611974  67.8986635  56.2065347  28.3818308  71.4261454
  55.7651454  29.0963688  70.9311531  55.6234901  27.5744638  71.3162535
  53.2755859  21.9053182  69.9368350  52.7038144  21.1052891  70.0929122
  52.7991916  22.1910952  69.0653634  56.2534095  25.8983913  74.8136590
  55.7357200  25.1207792  74.3865841  56.8740209  25.3574560  75.3116176
  24.7365240  52.5570665  11.6672432  25.2684946  52.6080949  10.8533350
  25.4397231  52.7353239  12.3560422   4.0273184  50.7357365  13.9924223
   4.1814944  50.7478607  13.0146926   4.7622297  51.2710842  14.3234162
   9.9904868  56.9332163  10.7271172  10.0939273  56.0128006  11.0186478
  10.3867822  57.3936175  11.5277228   9.0630990  55.9526861  20.3353251
   8.1738011  55.6057397  20.5658120   9.6249221  55.3170836  20.8614871
  46.9183546  29.9378129  73.0673953  46.6561365  29.7828023  72.1217194
  47.8936634  30.2048586  72.9050510  55.6671396  30.6896523  85.1377670
  54.8806601  30.5061811  84.6379797  55.3750959  30.9235073  86.0088632
  49.8066712  23.0880745  68.8756118  50.2103826  22.9494124  69.7516719
  49.0329400  22.5227749  68.8911137  26.3523402   1.2340112  18.9691464
  26.9310966   1.8956305  18.4996113  25.5388669   1.7973616  18.9456987
  50.0246654  30.5911618  82.0658554  50.9754849  30.2995054  81.9457828
  50.0768920  31.3042238  81.3325825  58.2959070  16.7489443  72.6776287
  58.3739283  17.3594550  73.4418321  58.5910766  17.3682896  71.9430420
   1.4179811  47.4198779  19.9988861   1.0993784  46.8490089  20.7661093
   0.5136960  47.6916501  19.6715257  59.3592033  29.2287657  76.3998930
  58.9503632  28.5903438  75.7454176  58.9350625  30.0809639  76.1967764
   4.4487515  47.5827037  11.7442222   5.1695211  48.2897477  11.5572014
   5.0524525  46.9839131  12.2997859  70.0527030  21.6175430  65.8657188
  69.9227354  20.6678250  66.2009253  69.6476993  21.5367716  64.9599119
   3.1859516  56.9309846  16.9618312   3.3932236  55.9827521  16.9407565
   4.1073777  57.2789805  16.7569443  11.4713956  52.0081487  10.3947935
  11.4249529  51.1108513   9.9547560  10.4860504  52.0791455  10.5399669
  36.7369714   9.9512507  15.9344532  36.8509770  10.8546938  15.5478113
  37.6326599   9.8276956  16.3300605  63.8018202  22.1202146  68.6284878
  64.4866138  21.9275941  67.9498899  63.1110364  22.5143014  68.0413085
  62.5386190  29.1121783  70.8249422  62.9904021  29.3769168  70.0645098
  61.9687827  29.8602294  71.0787129  12.2542934  54.0626487  13.9507206
  12.0183321  54.6172684  14.7401190  12.0049471  53.1506619  14.4068819
  10.0568952  67.6606811  18.3666702  10.9821498  67.6712549  18.5954284
  10.1559989  68.1855227  17.4439870   1.5893530  56.2548228  20.1550290
   1.9252264  56.6216945  20.9372109   1.7913036  55.3000485  20.2236151
   7.5202501  65.5186352  17.3581941   7.2199208  65.7124549  16.4598653
   7.7665191  64.5785997  17.2978046  50.3311846  18.8996875  75.6947099
  50.5174093  18.2778505  74.9453809  50.2275847  18.2773629  76.4556833
  17.4556785  61.4243438  10.9445123  18.1933681  61.5444348  11.6203705
  16.7775724  62.0055527  11.3709814  57.1843798  27.0936338  79.9398029
  56.6401769  27.4897758  79.1594362  57.2627319  26.2043819  79.4579588
  17.4126180  62.5528797  14.3485258  16.7336056  63.2104921  14.0097660
  16.7674249  61.8288804  14.6528508  61.1905216  21.3785404  70.4932544
  61.9775486  21.0359395  70.9824842  61.4585181  22.3448823  70.4183685
  59.1951243  33.8472491  69.8872504  59.6781273  33.7881905  70.7518219
  58.4977686  34.5152139  70.1362789  15.7353514  60.4006755  14.3776934
  15.9039874  59.4521801  14.1949181  15.2422325  60.6813473  13.5939005
  26.1666062  75.8167399  66.8530358  25.5611949  75.9547204  67.6222115
  25.4398746  75.4661118  66.2557274  76.8477690  50.2256409  14.8863408
  76.7949704  51.0630415  15.4255889  75.9655463  50.3462272  14.4188283
   6.3155213  46.1323317   6.2799266   5.7832331  46.6225118   6.9156676
   6.6497770  45.4045696   6.8986755  53.0251150  30.2746145  80.8887130
  53.1372777  31.2224314  80.6250444  52.9625564  30.3794374  81.8757779
  52.4788516  25.7501683  76.5313055  52.9058964  26.5781127  76.4240431
  51.5085359  26.0478803  76.6431868  56.5249437  21.4161131  59.5118513
  56.9676152  20.8482691  60.1904304  56.8357315  20.9138516  58.6939975
  13.4334708  56.8558142  10.7841086  12.7189723  56.4708746  11.3817768
  14.1266599  56.1903577  10.9232695   8.7698022  55.2899550  17.5262155
   9.0343074  55.4154425  18.4748025   9.1789465  54.4180316  17.3787391
  15.4991174  52.4364657   3.1699210  14.6254099  52.5158471   2.7568980
  15.4529593  51.4965181   3.4590215  15.2661272  55.0857960  11.1382114
  14.7519880  54.3731652  11.5280173  15.5158083  54.5996988  10.2644192
  12.6429590  24.8054122  12.9363753  12.9857375  25.3443724  12.1535040
  13.4373229  24.7690580  13.4628453  53.1306340  30.6878350  83.4632310
  53.0454595  31.5476707  83.8750993  52.3969697  30.2645524  84.0067293
   7.2535027  57.5731295  32.3679514   7.9518510  57.5133784  31.6858084
   6.5212447  57.1366262  31.7847146  56.9089202  30.3471095  78.6994470
  56.2866897  30.1986692  79.4596044  56.6017544  29.5886666  78.1471103
   5.9405056  56.8473175  19.6987719   5.9436499  56.5097255  18.7833676
   5.5890087  56.0871904  20.1716939  68.4411736  38.4341135  70.8720838
  68.1611060  38.2490883  71.8056759  69.1940574  39.0912384  71.0856692
  67.0278249  40.7682740  75.2171470  67.2853436  41.0892695  76.0967191
  67.6887492  40.1582542  75.0197511  64.1765450  30.1516966  76.3575630
  63.6534761  29.5523604  75.7684014  63.4109572  30.7208481  76.6282333
  26.3836619  76.1005153  10.8747227  26.2601157  75.8468610  11.8067300
  27.3329375  75.8109577  10.6745021  65.8969594  32.3546574  59.1817508
  66.0392492  33.1745790  59.7354226  65.2834107  32.7033983  58.5078896
  62.8590649  31.5491843  73.5245729  62.9739118  32.4481096  73.8803580
  63.5769038  31.0407717  74.0254562  72.9103697  42.7332320  68.3612442
  73.0768384  41.8759883  68.8345640  72.0246145  42.5593755  68.0327581
  62.2504173  35.4121886  75.7216145  63.0279717  34.9793332  75.1972184
  62.5263802  35.1795245  76.6099377  64.6687237  37.9388701  61.5738053
  64.9352330  37.7898706  62.5616005  63.7671498  38.2348386  61.6364123
  26.2698368   6.6064385  19.0013679  26.4927720   6.2122092  18.1435676
  27.0821746   7.0640088  19.3231515  62.1017999  38.1165908  69.9847717
  62.4957873  37.9252456  69.1226783  62.0692891  39.1222120  69.9296379
  70.2407279  30.9063752  72.0992185  70.4180337  31.4237185  72.9229462
  69.2713782  30.9735812  72.0419082  67.2577896  55.7514665  65.1840282
  66.5421280  55.0697364  65.0485223  67.4866626  55.8400551  64.2591117
  64.2136665  34.2486982  74.2291565  64.6526798  34.3408632  73.3307051
  65.0426401  34.3841629  74.7514815  64.7534839  22.9929252  60.5346587
  65.7230660  23.0945459  60.6744314  64.4822950  23.8772543  60.3400239
  26.0210458  -4.9969258  23.1156908  25.7975004  -4.0584604  22.9795833
  25.2218333  -5.3037036  23.4777220  65.8620971  27.0101808  64.4760459
  66.5563891  26.9589260  65.1628549  66.4646845  26.7811948  63.6803255
  32.6931430  -1.5426319  17.6681631  31.8592733  -2.0010488  17.5375785
  33.2688899  -2.0544976  17.0909161  62.3953669  55.0921457  64.3358319
  63.1181797  55.6633406  64.6550556  61.6150982  55.6464365  64.3974694
  51.2522443  42.5044691  74.2163516  50.8670736  41.6691252  74.5249683
  52.0235056  42.6036306  74.7520228  43.2075704  43.8946706  76.0129689
  42.6229467  43.8109570  75.2215314  43.6335148  42.9536256  75.9067369
  64.9584609  40.3020122  69.3996056  65.3464801  41.1194139  69.0879354
  63.9817392  40.4892565  69.3231740  26.6047596  57.6960581  13.4517932
  26.6259425  56.8311522  12.9113864  25.6648666  57.7060323  13.7259073
  67.2925575  35.7904926  64.5090947  66.5683044  36.4358634  64.3699116
  67.4139500  35.9408516  65.4638731  67.5488509  21.6920339  67.3295126
  66.9742049  22.3032206  66.7974466  68.1238130  21.4533399  66.5816532
  69.5212643  41.4248769  70.1813769  69.4848781  40.8711688  69.3222066
  70.3934836  41.7656226  70.0059360  64.3293189  31.2421535  61.2369672
  63.8818331  30.6219136  60.6337324  64.8544573  31.7791372  60.5873070
  63.5660012  27.2626742  65.8330265  62.8027813  26.9354240  65.3831027
  64.2191819  27.3208695  65.0946623  69.1815133  33.2337022  63.9464967
  70.0390496  33.7085783  64.2250868  68.6315545  33.5879230  64.6881570
  41.1008659   7.8394028   8.6846093  41.8399274   7.1814098   8.5128364
  40.6570791   7.2283718   9.3575057  59.1511117  31.5997144  79.6283561
  59.2663240  30.6799421  79.3586414  58.2046365  31.7121918  79.5017477
  70.1365228  32.7227176  68.9972601  69.6479656  33.0879491  68.2378362
  69.8218829  31.7828371  68.9492650  50.4686119   2.1316294   9.3577952
  51.1106274   1.8986154  10.0815745  50.6940595   1.5153154   8.6893055
  69.4792450  34.6635753  76.2564256  69.2189321  35.5416237  76.6613179
  68.8873765  34.1272585  76.8686932  67.3527942  31.2394493  72.3413798
  67.4133149  32.1128378  71.8816462  67.2858417  31.4806994  73.2770819
   8.5204914  60.8419419  18.9211432   8.9094748  60.0259202  19.2787221
   7.5664442  60.6700433  19.1560164  67.4585794  44.9416258  69.8907741
  67.2157179  44.9730946  70.8574190  68.4204687  45.1855690  69.9550114
   3.6096225  55.0640272  13.9649578   2.6504597  55.1584524  14.1984550
   3.9876142  54.8146243  14.8294151  62.7187749  34.6163016  65.7339328
  62.9847023  33.8578691  65.1499400  63.2318842  35.3237665  65.2485759
  57.7023433  24.8169283  78.5962778  56.9582081  24.3030143  78.1647710
  58.2168017  25.0515428  77.7845184  58.3063984  28.5223417  68.2293518
  59.2621060  28.1830019  68.4704750  58.3728438  29.4134222  68.6627952
  53.7354924  30.1654218  70.8477958  52.9000969  29.6381415  71.0512006
  53.3058862  30.9601508  70.4807301  67.0861368  43.2452194  59.9348379
  67.5033102  44.0145305  60.3865772  66.4496263  43.7979666  59.3835229
  71.8171271  51.9009169  65.1602528  71.0120241  52.2469507  64.7523207
  72.5401183  52.1937061  64.5287694  77.4006481  38.7782586  70.4942355
  77.1334788  39.7513412  70.5705891  78.2351479  38.8552671  70.9711237
  10.7428861  52.5539380   7.5996465  11.1419653  52.6724218   8.4745068
  11.3258518  53.1496819   7.0372485  41.2386797  30.8629577  82.6477633
  41.2684084  31.5976044  82.0572623  41.4596984  30.1066167  81.9861785
   0.2508464  59.5600774  19.7471717   1.1001472  59.2690168  19.3974787
  -0.1620226  58.7621703  19.9789310  74.5946774  44.2960861  60.3950599
  73.6994281  44.2491105  60.7820602  74.9058701  45.1632966  60.7644133
  62.2558688  46.8607806  68.8447731  62.2637381  47.6760995  69.2918887
  62.2001941  47.1536704  67.8732228  25.8417012  61.2695642  -0.6466723
  25.9628211  60.3120422  -0.6584303  25.9777361  61.4950340  -1.6326286
  22.2101448  65.6884972  11.6052668  22.4877672  65.2926247  10.8234026
  21.2539434  65.4368023  11.7573005  43.6471823  11.1741570  13.5138478
  42.9206207  10.5962915  13.2103921  43.5682502  11.9434001  12.8885147
  69.8192620  52.9119492  63.7123081  68.8649618  52.9288081  63.4669167
  70.1369241  52.9412616  62.7555560  31.6282851   7.5542735  16.2051046
  32.2195378   6.8491762  15.7957205  32.3231483   8.2060227  16.4220245
  62.7199533  38.1440648  74.6653008  63.0031484  38.2528389  75.6129799
  62.3365711  37.2519406  74.7475395  10.8252610  68.2949551  15.3735240
  10.5219524  67.3881091  15.2341455  11.5423287  68.2602376  15.9415593
   8.7662244  47.9636694  13.3456866   8.3658440  48.7720907  12.9126258
   8.9489210  47.4351479  12.5560236  59.3830219  36.1621398  74.7679054
  60.1917391  35.6976806  75.0422692  59.4356969  36.0660784  73.7878092
  57.0481150  32.4811055  71.4933190  56.5700666  32.2546413  70.5999348
  57.1249372  33.4348852  71.4169494  63.4186499  52.8360759  61.7111410
  64.2837571  52.3737703  61.8721678  62.7706261  52.0918664  61.8681721
  59.5660157  26.8962821  60.1498804  58.7250367  26.5857534  59.7768362
  59.3499483  27.7985106  60.4715204  69.2216979  34.4231538  55.2918595
  70.1150533  34.4438175  55.7154155  69.3631369  33.8446971  54.5410907
  64.2230559  38.3226282  71.8301439  63.5011384  37.9432016  71.2335967
  64.1209177  37.7719267  72.6164671  54.0303816  13.8835295  75.1207103
  53.4114896  14.4704391  75.5455681  53.7322661  13.8157243  74.1930883
  70.3697060  32.2801088  74.2945925  70.5730607  33.1326251  73.9405364
  70.9857764  32.1543805  75.0955295  29.4935570  -0.9383952  26.0979111
  30.4504517  -0.7742089  26.0294233  29.4414280  -1.7323565  26.6515631
  67.0601935  29.9999956  66.3017646  67.8906080  30.0136858  65.7442023
  66.4203952  30.2431721  65.5793692  35.0961179  69.6348330   9.3645841
  35.2620480  70.5073336   8.9286106  34.2731335  69.9883001   9.8525264
  35.6617386   7.9604305  19.0999734  36.2417855   8.3726551  19.7629274
  35.8349715   7.0043882  19.2464567  29.3412515  76.3519341  22.8647221
  29.2970842  75.7852828  22.0647207  28.4452509  76.6733094  22.8726464
  39.4857971  43.4204211  79.4865825  39.1329017  42.5636604  79.2000033
  38.8232453  43.9969186  79.0774009  34.1487325   0.0316193  22.7582210
  34.5574009  -0.3744473  23.5528320  33.3622077   0.4252946  23.0815153
  33.8001753   0.7568542  19.3019475  34.0846524   0.1265608  19.9825525
  33.4203095   0.1171938  18.6504462  52.7438568   8.0112434  17.4753935
  52.2626221   8.3520318  18.2838958  52.4376804   8.6392782  16.8415754
   5.9548525  65.2729749  19.9980516   5.4404426  64.8014824  19.3001704
   6.5960246  64.5209889  20.1808647  58.8028059  28.5202430  71.2689198
  57.7858145  28.5161565  71.3948649  59.0305613  27.6408880  71.5173321
  65.0307685  49.0334379  60.6474856  64.2147283  48.5029985  60.7934086
  65.6201198  48.3372896  60.3707932  69.5315892  47.4073802  62.0020475
  69.2931604  48.2690335  62.2761423  69.8464417  47.5856797  61.1044512
  74.1824958  39.8571376  58.4305142  73.9575165  40.4684863  59.0909605
  75.1197269  39.9693570  58.2495487  70.6047255  41.1174508  65.4518264
  70.3417396  40.1840999  65.3994099  70.4625304  41.2792870  66.4046662
  64.2928985  37.2103854  68.5148393  64.0505633  36.2951506  68.9042948
  65.1904713  37.2895851  68.9552274   9.2004999  65.7546249  20.1181113
   9.4831770  66.4044181  19.4986387   9.8403337  65.7873370  20.7975992
  56.9990444  33.5346528  81.3680758  56.3588870  33.2739847  80.7232775
  56.5374695  33.4248505  82.2203343  66.3485680  19.5004593  56.8702812
  65.6915515  19.9243345  57.4746035  67.1668972  19.5387469  57.5069073
  74.0073455  63.0342757  24.0227568  74.8649898  62.6437501  23.7539887
  73.7391631  63.4662636  23.2143414  37.2849504  38.8393596  78.6170095
  38.1284540  39.3497344  78.6062677  37.4237695  38.2301920  79.3607221
  29.0906362  -2.8388431  28.2354713  29.4173514  -3.4389747  27.4938591
  29.5532884  -3.3153955  28.9821618  42.2763360   8.1222786  15.5760639
  42.0481179   7.5066611  16.2590046  42.6965949   7.6324217  14.9007553
  22.3800974  67.6503364   5.5187962  21.5094215  68.0858488   5.7022723
  22.9218431  68.4531956   5.5342140  72.9446276  20.6550339  60.8838704
  73.7029825  20.6045476  60.2726585  72.2318913  20.2696129  60.3439269
  72.6947374  32.3908371  69.7622255  72.7575277  33.0992133  70.4396762
  71.7212715  32.3622072  69.6060475  68.5988022  35.9257919  69.6534061
  68.3337383  36.8454730  69.9070115  69.5845731  35.9776777  69.7327110
  51.3535934   5.3901957  72.6650025  50.5627488   5.9541909  72.7528404
  51.9661320   5.9589742  73.2697265  51.9147155  12.1994984   5.8860092
  51.9237893  11.2319360   6.0351770  50.9924272  12.4217165   6.0457820
  41.9306185  10.3761818   8.4859692  41.6271163   9.3997975   8.6018635
  41.0404463  10.6769660   8.1786302  52.0883793  14.8000487  12.2005122
  51.2120439  14.5940467  12.5537242  52.3322952  13.9600358  11.7287799
  36.2373996  15.1572120  12.3473399  37.1248213  15.0499385  12.7095913
  35.9479782  16.0253839  12.6252953  68.6616036  35.4625477  73.1273665
  67.7631254  35.7065973  73.3242673  69.0914513  36.3434032  73.4449037
  76.9685042  45.0312642  64.3765579  76.5351163  45.5842061  65.0155985
  76.2829644  44.4366351  64.0551834  46.9663198  17.9814061   1.4634635
  47.5311012  18.0634389   0.6510271  46.1281441  18.2009190   1.1084492
  51.5798784   7.1994004   6.2554885  51.2662528   7.9552692   5.7761600
  50.9399942   7.1691577   6.9972186  58.4116082  17.9722358  12.5584026
  58.1136110  17.6941972  13.4747197  59.3449375  17.7785148  12.6711482
  68.6711327  43.7173058  64.1588045  69.4658026  43.3527521  63.7090377
  69.0485173  44.0310614  64.9731445  10.1584966  51.7032619  60.4999155
  10.4415508  51.9532054  61.4033739  10.9159123  52.2199027  60.0570686
  72.8818474  46.6635038  67.8160112  71.9558895  46.9982969  67.7801685
  73.3368395  47.5194745  67.7958881  39.0515509  11.0649579   7.7991834
  39.0214218  11.2499558   6.8562365  38.1865505  11.4481218   8.1065778
  45.0313092   7.7598103   8.7085343  44.4264152   7.2968515   8.1149344
  44.3816450   8.2002467   9.2997978  30.1218323  77.1446429  68.1125185
  31.0175659  76.7643492  68.0926420  29.7416092  76.7857681  67.3110539
  56.2711571   6.2723716  63.7127383  55.3953973   6.4752246  64.0579224
  56.7113020   6.4236490  64.6377101  32.5085981  78.1131605  57.1235980
  33.0498481  77.4240039  56.7893852  33.1037049  78.4798354  57.8141396
  57.8347831   9.0704122  48.4672448  57.4888666   8.6287115  47.6685448
  57.2391418   8.7696181  49.1772790  30.1856935  76.6177619  57.0743264
  31.0314604  77.1509823  57.0316291  30.2154247  76.2389013  56.1087842
  19.6929823  47.2886273   6.7100996  18.7762899  47.5314711   6.7887660
  19.7835432  46.5541418   7.3678479  45.5074281   4.4274531  52.1767125
  46.2951300   4.2015665  52.7302575  45.4867435   5.3699012  52.3096224
  47.6129742   1.8940905  59.0600881  47.9663160   1.4865017  58.2200542
  48.5132511   1.8783732  59.5363617   9.0605084  33.0458645   7.6389188
   9.3314445  33.8540675   8.1119572   9.1104119  33.3941444   6.6948141
  50.8213514  12.5318837  76.1361864  51.2992530  13.3437137  76.3302228
  50.7471516  12.5366993  75.1809241  52.2539914   4.4958309  63.3493369
  52.0527711   5.2827512  63.8975722  53.2023581   4.4027257  63.3925596
  33.9965995   8.4716574  59.4988492  34.4221116   9.3613636  59.6557898
  33.2457004   8.6125836  60.0600440  48.2892236   8.7643414  66.1000594
  48.8458002   8.8111532  65.2801849  47.3946953   8.8279838  65.6143756
  27.4184681  72.9182257  62.8657837  27.2623968  73.8575808  62.6437071
  28.4087691  72.9641127  63.0080389   1.3482837  48.7475063  16.3995499
   1.7489734  47.9026957  16.5756459   2.1560867  49.3078945  16.4558492
   4.8972654  44.6827560   9.3724771   4.8438758  45.6074506   9.0569820
   5.5589122  44.3378064   8.7747283  69.5632820  16.9782098  59.1147119
  68.8716371  17.4334730  59.6210551  69.3062755  17.2669819  58.2125356
  13.9697652  68.1250524  12.8448062  14.3110267  68.1981339  11.9724129
  13.0378940  67.8658130  12.6684141  70.6764018  24.8323450  48.4145459
  71.2167782  24.2219377  47.8669002  70.3209879  25.4691227  47.7356887
  68.1310029  13.5006133  54.1245659  67.9029628  14.0433864  53.3465722
  68.6737481  14.1305720  54.6295683  61.3704385  19.3862991  51.6761763
  60.7288606  19.5613992  52.3979434  61.4642181  20.2651964  51.2792491
  63.5565405  24.4669659  56.7686277  63.0414822  24.9259261  57.4043051
  63.5548212  24.9911671  55.9467904  11.5107264  51.5135928  14.4753781
  11.7246556  50.8356495  13.8574334  11.3628966  50.9484894  15.2870437
  69.1312871   8.7003453  55.7210715  68.4502683   9.0656029  56.3056693
  69.8632807   9.3369507  55.9286958  28.9745246  76.0830128  59.6184759
  29.5441369  76.4676334  58.8794902  28.4366963  76.8917871  59.8064172
  48.2193746  81.4022201  57.4719715  49.0157647  81.4905999  56.9303031
  48.0138549  80.4232140  57.3385921  59.2651839  13.4284110  70.7105166
  58.7681737  13.1295764  69.9426968  60.0716003  13.8010241  70.2692050
  58.8844449  24.1939190  60.8133673  58.9898543  25.1779316  60.8773332
  57.9044702  24.1953004  60.6155940  62.9284151  23.1467197  73.9135252
  63.1837760  22.5801461  73.2188372  63.7728265  23.7130978  73.9258902
  11.2585087  49.8117525   9.0710648  11.6318078  49.9948939   8.1811293
  10.4340387  49.3327167   8.8530296  10.0072043  48.7725409   4.6929867
   9.1749710  48.4176538   5.0359233   9.7660408  48.7118573   3.7089710
  10.1949760  42.1027599   3.9166546   9.9920456  43.0124114   4.2873499
   9.6170140  41.5857649   4.5092965   9.9271617  44.6427959   4.6018861
   9.9126932  45.5064657   4.9608902  10.5417192  44.7288590   3.7895274
  60.1592051  10.4053860  68.6673150  59.3308261  10.2912040  68.1460589
  59.9701819   9.8103124  69.4545542  65.5475414  30.6455652  64.0943251
  64.8112195  31.2071016  64.4229797  65.6933222  31.1354332  63.2543579
  62.1919103   7.8357306  59.8527946  61.7991413   7.4610927  60.6808234
  62.5669590   7.0426036  59.4535248  12.5972674  47.6676935   4.4631496
  11.7163103  48.0817717   4.5869728  12.5345639  47.2086155   3.5606556
  64.0102333  18.8282008  59.7161422  64.1383154  19.7356717  59.3347278
  64.5866986  18.8702592  60.5016204  50.9263349  14.7898639  61.0290337
  51.6978496  15.3239001  61.1204396  51.2890407  14.0932650  60.3654863
  38.8679842  72.7704218  57.4860151  38.2712586  73.3258197  56.8842810
  39.5871043  72.5891478  56.7523690  31.5227107  55.5973415   8.4511577
  31.1623485  56.4459792   8.0533901  30.6225248  55.2435665   8.7682369
  22.9722972  52.2513250   2.5925208  23.1462737  51.3645922   3.0444180
  22.8068525  52.7870756   3.3761051  38.8214222  76.4412058  56.3900867
  39.3174082  76.4490836  55.5700760  38.3666750  75.5779771  56.2813737
  60.2720913  19.7236140  59.8133688  60.5295133  19.5994549  58.8709088
  61.1564673  19.7838506  60.2281764  70.0677681  16.9482071  53.8603032
  69.5939352  16.4325962  53.1806712  70.7720142  17.3935652  53.3309859
  65.4076373  15.6556771  67.0793193  65.5295540  15.4203069  66.1510882
  64.5317164  15.2150733  67.2644496  26.0260549  45.0212829   2.6145750
  25.5830725  45.8873914   2.5254117  26.9074444  45.3160421   2.3276882
  71.1723287  14.7520974  61.1686009  71.4610524  14.3397493  60.3373272
  70.7385931  13.9609985  61.6073999  71.2974921  10.4274350  56.0682717
  72.2529505  10.1153274  56.1169220  71.4014088  10.8639158  55.1833752
  32.5758287  73.0622711  55.0300704  31.8794030  73.1442041  54.3956808
  32.6837893  72.0510145  55.0117383  63.9294810  10.3844291  64.9502431
  63.9935104   9.5414371  65.3961117  64.7580264  10.2804313  64.3539065
  15.2407559  49.8510313   3.1675607  15.1214822  49.3064275   3.9624199
  15.3894768  49.1605376   2.4930363  55.4536990  12.4750660  60.5025786
  56.4437522  12.5549509  60.7275352  55.3440090  13.4100404  60.1877815
  25.4739566  54.0801772   1.7783151  24.5627558  54.4518028   1.8432515
  25.4903264  53.7001227   0.9151127  55.6148832  29.6346027  81.1189426
  54.6590416  29.7673031  81.1255153  55.6382425  28.6503200  81.1993830
  67.0043560  26.9630228  56.2400390  66.2225197  26.7747053  56.8296823
  67.0156739  27.9306308  56.2224632  39.8112802  68.7394733  58.2244027
  39.4854958  69.4474065  58.8097725  39.3179139  67.9445049  58.5372003
  42.1378743  76.3418446  54.9829355  43.0113551  76.7745587  54.6938325
  41.7944151  76.3500749  54.0104677  65.8525424  28.8193460  71.7409488
  66.5426927  29.5174660  71.9396069  65.5239676  29.2485547  70.8698811
  71.0007162  28.6193899  52.1484576  71.2076623  29.1411548  53.0076046
  71.6502472  29.1609348  51.5557915  14.7448609  46.4819493   5.7194449
  13.9275060  46.8661799   5.3452211  14.4637818  45.5172722   5.5834585
  24.4551088  47.7885596  -0.8489698  24.6652924  48.2476342  -1.7228130
  25.2158797  48.0298947  -0.3307441  59.8101120  22.7133451  58.6255640
  59.3003022  23.3290708  59.2160410  59.8601490  21.9435623  59.1881991
   4.0684257  40.1231872   9.1290815   4.1757962  40.3166164   8.2043865
   3.1554871  39.8604134   9.2167986   5.0755932  47.3821857   8.4170237
   4.3073823  47.9270650   8.1441415   5.1991375  47.6875476   9.3525608
  68.0165445  29.3792614  61.9736778  67.9286341  28.9291731  62.8263325
  67.5697911  30.2147208  62.1327951  71.5688262  12.5469980  53.6532122
  72.3345425  12.6560931  53.1114457  71.6398453  13.3496171  54.2139143
  23.2593331  42.2238491   6.0881600  24.2380805  42.3490323   5.8350293
  22.8836839  43.0184930   5.5924532  14.2654119  44.6790013   9.1944091
  14.6221587  45.5683887   9.2801771  15.0529443  44.1438084   9.4922443
  16.2590920  47.8167397   1.0712853  16.9796417  47.6143148   0.4056492
  15.9115482  46.9159574   1.1387547  20.7782256  61.0302391   5.6609349
  21.7186013  60.9309712   5.8768931  20.5841983  60.2995278   5.1254529
  69.2916303  21.7498389  51.3985599  68.5332609  21.3616888  50.9169233
  69.1645326  21.5935330  52.3086732   6.0291535  55.7000399  17.1302024
   6.9975994  55.4825915  17.0386278   5.7811362  54.7971322  17.5242190
  64.5982179  21.1271230  58.6919353  64.6635324  21.9273412  59.2830648
  63.8834900  21.5006174  58.0843896  43.8057554  16.1305416  64.5243046
  44.2974856  15.7112438  63.8014384  44.0511150  15.5765995  65.2675702
  62.0790063  19.7359156  62.1382354  62.0517513  18.7713731  62.1969626
  61.2834280  19.9744628  62.5936065  16.9222696  48.2194207   5.9506643
  16.2155468  47.5493005   6.1546506  16.3238880  49.0130761   6.2129563
  11.9870931  54.4921416   6.2640365  11.8256352  55.1276689   5.4858941
  12.3141387  55.1749048   6.8964239  15.1391386  45.3095444   1.4022618
  15.2880766  44.3687420   1.5280627  14.2696626  45.4283535   1.8171869
  62.5619260  14.8804039  56.9268210  62.5346741  15.6591677  57.5235083
  62.4652813  14.1605785  57.5687399  71.5649924  10.2108092  59.9556894
  71.0717040  10.0997326  59.1676946  71.7306938  11.1918896  60.0248470
  55.5894791   7.5086754  61.2089213  55.4972652   7.0416435  62.1368304
  55.5614167   8.4552559  61.5735159  25.5276926  65.4785391  10.4215028
  26.1560704  65.7102872  11.1074015  25.5830818  64.4937820  10.3735733
  57.1276428  19.5356278  74.3645025  57.0829657  18.6047632  74.7798872
  57.0944301  20.0634289  75.1695761  18.0095377  47.2996319  -0.7149924
  18.8363142  47.1012385  -1.2714226  17.3380730  47.3305534  -1.4268268
  67.4276858  12.8321735  56.9285847  67.2533267  13.7964824  57.1165661
  67.8906334  12.9285606  56.0814705  21.5132545  52.9830241   0.1226879
  21.4905920  52.9495487   1.1049027  20.7772456  52.4664437  -0.1210333
   9.9613292  43.9558393   7.6186296  10.3737380  44.5905546   6.9823995
  10.7761508  43.4857918   7.8345156  27.1296938  55.3074077  12.0988216
  27.8275143  55.0651355  12.7216512  27.1330122  54.5257549  11.4939532
  23.5177930  60.9109075   9.8094408  22.6225917  61.2580409  10.1516395
  23.7722248  60.3469533  10.5416409  57.7897889   8.9112435  63.0827360
  58.5898296   8.9521165  63.6470525  58.1523014   8.5390576  62.2469738
  58.0863357  14.6124109  67.9500464  57.8126739  14.9975500  68.7462137
  57.7892029  13.6900813  68.0513550  55.8487019  18.0383218  59.4643380
  56.8235290  18.0673752  59.2522863  55.4375427  17.7928192  58.6390607
  28.5446588  45.6652316   2.0857577  28.8235169  46.3103578   2.7903543
  29.1375929  44.9031174   2.2824683  56.9098303  15.6265816  62.1403306
  57.8748031  15.6243097  62.2148203  56.7118291  16.5669413  62.4407427
  42.1303685  77.8210093  64.2890811  42.9282789  78.3456524  64.4613845
  42.2024267  77.6216657  63.3640119  66.5439950  14.5287546  60.4474312
  66.0145434  13.9445562  59.8112382  67.4077860  14.4345427  60.0146830
  63.5804180  18.9804986  53.5888403  63.2353702  18.1301788  54.0472178
  62.8524110  19.0120633  52.9187634  76.2333352  12.7483880  56.5230313
  76.0235016  13.6886291  56.8960935  76.3561495  12.2823688  57.4285294
  68.9834741   8.6551393  58.8515403  68.1643084   8.8423922  59.2757213
  69.1969480   9.5360135  58.4641700  15.4755213  44.5235725  -1.8570932
  15.4433616  43.7813910  -2.5094360  14.8326348  44.1221838  -1.1583037
  47.1818283  11.0550660  68.0618236  46.5876119  10.3434505  68.4129309
  48.0318385  10.5399923  68.1905366  62.8331630  14.4516258  67.5002231
  62.4128695  13.6406482  67.1552887  62.4590763  14.5101685  68.3900951
  62.8874025  20.6720102  72.6633241  62.6974586  20.3701562  73.5847597
  63.5784434  20.0440126  72.3775858  52.2637883  13.9375834  67.1129588
  51.8611321  13.2740584  67.7456025  51.7370791  13.6882129  66.2782668
  57.0169635  18.6142045  67.4079715  56.6143171  18.1860546  66.6202301
  56.4007973  18.2851503  68.1103461   6.1433986  49.4857537  10.9637167
   6.2655957  50.0177359  10.1172241   6.9574370  49.8096943  11.4019974
  53.1751402  16.3981234  59.9863837  53.4559526  16.6425455  59.0758101
  52.3972156  16.9843567  60.0596735  62.3748298  12.6987006  58.7836899
  61.9083043  11.9617794  58.3056996  63.2664712  12.2979848  58.9848533
  43.3965609  77.6348141  50.4214328  43.0623284  78.5657600  50.2726133
  44.0470155  77.6367152  49.6796968  22.0097268  43.4953358  -0.3402147
  21.2237986  43.4479888  -0.8941954  22.4627977  42.6336975  -0.6305148
  31.8118171  47.0201567  -0.4684689  31.8244773  47.9917554  -0.2320362
  32.3163563  46.6607435   0.2399605  47.2099526  71.5922792  52.6348189
  46.3322908  71.9807728  52.6858518  47.3212944  71.3876042  51.6785817
  78.3394906  21.3904181  52.3280131  78.8394684  22.0594248  51.8034762
  78.5142547  20.5992277  51.7487755  19.4136385  61.9093784  12.9961337
  19.7390072  61.2037537  13.6105457  18.7953925  62.3871082  13.5750431
  70.1158757  21.8521953  47.2392006  69.2567714  21.8576827  47.7138263
  69.8265630  21.5404784  46.3429713   0.2942640  42.9407811  49.4273800
   0.1415372  42.7222806  48.5121124  -0.1117681  42.2103865  49.9229419
  76.1899389  35.3449076  58.1616087  76.9674396  34.8042833  57.9927430
  76.4636213  36.1804182  57.7418970  73.7989303  33.6085984  66.8536694
  74.6255643  33.1263237  66.7670670  73.3952695  33.1517640  67.6339567
  10.9168362  26.4816653  58.0559164  10.2458137  27.0877746  58.4641536
  10.3510865  25.8140292  57.6696513  72.7423859  37.8406381  63.4104878
  72.0624589  37.3527072  63.9617746  72.2356673  37.9368839  62.6091585
  75.5516564  23.0836674  60.3646040  75.3289160  22.5735821  61.1608760
  74.8376162  23.7382869  60.3562343  14.6581589  22.7146295  58.6854286
  14.1690041  22.5515435  59.5205946  14.1706410  23.5618498  58.4136374
  75.8916736  32.8585059  62.7875505  76.6822885  33.0416695  63.3375549
  75.6903856  33.7490839  62.4123430  73.8578054  31.9684030  63.9941580
  74.1657228  32.2549406  64.8506413  74.4070548  32.5008226  63.4036794
  78.1422788  24.4788085  61.0206036  78.1914288  25.4943562  61.0901855
  77.2206061  24.4061085  61.1872466  61.4762161  25.1752937  59.1274449
  60.8322351  25.6630576  59.6633504  61.1132577  24.2896904  59.1199637
   5.4570061  32.9096653  60.6005255   6.4188341  33.1646673  60.4426048
   5.4532390  32.0413737  60.1136740  26.9277725  67.9214846   4.8140370
  27.9061897  67.6270834   4.7189778  26.6844588  67.9893186   3.9127217
  71.9620651  27.4364906  59.8388608  72.8117386  27.5652203  60.3071631
  71.9479631  28.2215223  59.2516831  29.8291391  54.2853866  -3.6585978
  29.5404118  54.7165376  -4.4607076  29.1464840  53.5610031  -3.6774440
  69.5328776  19.2441773  66.9016414  69.7588338  18.3587434  67.1337570
  68.5595972  19.2651024  67.0281816   1.7544242  25.7815472  59.9465012
   0.9569463  25.2833179  59.6946523   1.4734237  26.7230857  59.8480866
  70.3890769  26.3051022  55.7468234  70.9005149  25.4723795  55.8447336
  70.0260757  26.1566436  54.8433458  13.2895994  18.3385939  58.8554624
  12.6854645  18.4072452  59.6249622  12.6883603  18.4525740  58.0995786
  62.2525166  38.0614495  64.1100523  62.5956980  38.9347530  63.9500446
  62.1703304  37.7017723  63.2054537  70.9658045  28.6471698  63.1873992
  70.7252238  28.6034765  62.2596295  71.8892862  28.7424412  63.1527589
  69.5711872  30.0635848  68.1902161  69.3500541  29.1532235  68.4709366
  69.5277427  30.0195424  67.2778002  69.9832016  32.9527556  53.0638913
  70.8592958  32.8447407  53.4855304  70.2162774  32.5457936  52.1648337
   2.7249247  19.6769525  54.7300295   1.8157986  19.3186436  54.9755264
   2.6473917  19.4450247  53.7521564  73.8337044  31.4068062  58.0645523
  73.3988341  30.5919701  58.2012344  74.2316072  31.4031086  57.1701275
  29.5977692  59.8846547   7.9914200  30.1455564  60.5403194   8.4622597
  28.7438677  60.3183218   7.8896517  78.2074016  30.0082386  62.1859885
  78.4743584  29.1862005  62.6953551  78.9828653  30.0465876  61.6241672
  68.1999798  20.0637019  58.6561944  68.4311678  19.6809278  59.4909087
  69.0041580  20.5068496  58.3891786   4.3254966  24.7532086  59.4318915
   3.5599399  25.1832405  59.8106309   4.9734563  25.4376658  59.2935873
   1.2859191  22.5985565  61.0245692   0.5198245  23.2855348  61.0600026
   1.8335553  22.9753584  61.7252605  75.2767636  37.2623347  63.8434696
  75.1023699  37.0906951  64.7934772  74.3345831  37.3577538  63.5622263
   6.1250051  22.6890024  49.6139723   5.2052504  22.3373905  49.8232863
   5.8318830  23.5571362  49.2101378  78.1336195  32.0694915  54.8463766
  77.7467821  31.5758945  54.0876628  78.9121280  31.5124000  55.0663378
  63.2541328  28.9914624  67.7403362  64.1559493  29.3612678  67.9559774
  63.4939461  28.4016772  67.0056449  73.7854750  28.7071330  64.3293322
  74.4465974  28.7669224  65.0796745  74.0658502  29.5897577  63.8818560
  30.4701492  50.7173286  -5.6179056  30.4357615  50.1157860  -6.3812181
  29.4940705  50.8829481  -5.5014220   3.5157335  23.1091384  62.3882741
   3.6261123  22.5508963  63.1818598   4.2894216  22.7694892  61.8775578
  63.3461287  44.0240604  71.5688863  64.1800541  44.4786097  71.9282804
  63.6688855  43.0815112  71.6369026  16.7360059  62.7522888   8.2790512
  17.0483827  62.1148514   7.5836776  16.7788751  62.1721812   9.0621446
  25.0006610  69.5278375   8.2390939  24.7283166  69.5815231   7.3197032
  25.0160353  70.4236358   8.5465977  68.6702867  29.2012393  59.3003671
  68.4572022  29.1840324  60.3086010  68.6826046  28.2495931  59.1167040
  14.5851588  55.7224737   5.3494931  14.1082982  56.5037247   5.5913324
  14.3191264  55.6844642   4.3375416  14.6704289  62.1805603  12.4723320
  13.6933817  62.3178228  12.6327835  14.9094166  63.1238700  12.2529212
   8.5096511  39.0275551  61.7493018   7.8801336  39.5390225  62.2628277
   8.4010430  38.1358244  62.0995175  23.5316166  68.0272943  10.9032173
  23.3412895  68.7217897  11.5708709  22.9531678  67.2941992  11.3065560
   4.0252776  36.5755318  66.5653185   4.2911923  35.7523350  66.2304914
   3.1950196  36.7318778  66.0231260  74.6659316  10.7399317  48.8835173
  75.4712233  10.8233605  49.4292814  74.9854237  10.2389238  48.1454940
  15.5778250  54.2804277   8.7461972  16.1010042  54.1522125   7.8805955
  15.2480044  55.1711829   8.6423736  67.9699829  26.1089510  66.2653213
  68.6094703  25.8650530  66.9519504  68.5970737  25.9165739  65.4819599
  76.6303402  40.3749666  66.3786512  76.8568674  41.2348043  66.7587337
  76.6715657  40.6643498  65.3903186  76.7123868  37.8657288  56.8410599
  77.6093241  37.4726347  56.6707506  76.9666788  38.6681681  57.3531657
  73.1037455  24.7017792  65.3371238  74.0372504  24.9788142  65.1325568
  73.1830929  24.9503664  66.3401898  26.3204839  72.3298659   9.1267489
  25.9811379  72.3417108   8.2097926  27.2590707  72.1544399   8.9494375
  10.1715498  35.1831247  60.8429390  10.0445687  35.9643511  60.3168927
  10.8032389  35.4718369  61.5624781   3.1801692  33.5118046  55.3699754
   2.8765133  34.0104766  54.6083327   3.1685919  32.6306269  54.9647101
  62.3417758  32.9570568  68.5286595  61.7538502  32.4286384  67.9732192
  62.3016469  32.3530137  69.3455363  70.4014522  34.9658326  61.3718817
  70.8378649  34.2250735  61.8331469  70.2378518  34.5817808  60.4776259
  13.7106692  52.5311980   5.5431213  13.1852517  53.1650606   6.0013214
  13.5461416  52.8089380   4.5817240  46.0558446   1.1907866  15.8431123
  46.3249409   0.3540452  16.3416186  46.8598268   1.7209219  15.9781588
  65.7414815  29.5493090  68.5991237  66.2083702  30.0781036  67.9041726
  66.2658729  28.7671514  68.6155156  76.2279138  42.0956202  60.9807851
  76.9865560  41.9426455  60.3461814  75.8977558  42.9545094  60.6949912
  21.1768386  58.5924365   1.3736319  21.1322149  58.7964919   0.4270455
  20.5196339  57.9539385   1.5099589  21.9658520  59.3659654   3.8397691
  22.3454880  58.5165034   4.0177173  21.6971621  59.3035959   2.8671253
  40.5027253  66.1686471   8.2217813  39.8501157  66.8755868   8.0755141
  40.4738073  65.7696748   7.2811356  20.2613340  55.7346226   1.8675327
  20.3934880  56.2084189   2.7383713  20.0688958  54.7697128   2.2862934
   6.1204923  18.2609145  59.4066115   6.9910517  17.9385778  59.5114861
   5.6152059  18.0524996  60.1949921   1.2969232  16.1967201  56.8507797
   0.9789838  17.0967003  56.7298611   2.2577607  16.1929920  56.8042837
  72.2708332  24.4791994  62.8184897  72.4630266  24.6021075  63.8064345
  72.1955482  23.5029411  62.8491349  12.7539582  64.6428006  12.4446239
  12.6792854  64.9872923  11.4932117  12.5706005  65.4580307  12.9503547
  23.2632554  48.6066055  -5.2830203  23.9340855  48.7396374  -4.5254919
  22.8448069  47.7912159  -4.8573551  49.1966826  11.4820167   3.3132785
  49.7727729  12.2724635   3.1676865  48.3652846  11.8474317   2.8590046
  67.1758521  32.2546342  62.3029437  67.9981126  32.7893034  62.3434126
  66.5780349  32.8017303  61.7542448  67.3516343  22.6671209  61.0637132
  68.3190683  22.7484171  61.3172148  67.3489470  21.8163611  60.6259631
  72.2773586  41.5878791  71.9498568  73.0231959  41.3938621  71.2679314
  72.5827042  42.4287477  72.2286452  71.2401953  32.5015942  62.3347130
  70.3808907  32.7220034  62.7354864  71.8950222  32.7857168  62.9643608
  70.9690087  38.8868302  52.2066521  70.1196820  39.0782137  51.7978129
  70.7880725  37.9638243  52.5349336  24.6966807  69.6111910   5.2258416
  24.5445561  69.7104797   4.2299793  25.3635768  68.9384518   5.1832824
   5.0947832  23.2912045  57.3086039   4.8390209  23.7780790  58.0970239
   5.3997695  22.4454876  57.6954916   5.0405355  36.3164207  53.1325737
   4.6692940  36.5606480  52.2510953   5.0841516  37.2343422  53.4772296
  71.9124141  29.2834062  57.9407047  72.1467313  28.6765899  57.2590223
  71.0726706  29.6845789  57.6209519  10.2628832  17.1247539  48.2264993
   9.8891236  16.3555102  48.6405491   9.6407272  17.8437905  48.5584238
  62.8822360  28.7720186  63.2814034  63.7908674  28.5764557  63.4629139
  62.6529941  28.2662656  62.5376385  59.9701759  32.0429642  75.4529416
  60.7315597  31.7859350  75.9465179  60.3356676  32.1317605  74.5382974
   7.9879347  28.0224706  53.5806070   8.4423796  27.2456210  53.2248208
   7.0704327  27.7204813  53.6884517  56.1648273  24.2960522  60.1328877
  56.3157538  23.3237111  60.0531374  55.3735400  24.2730593  60.6787822
  71.7768672  34.3566490  56.1759423  72.1550815  34.1697691  57.0574999
  72.3591650  33.7218770  55.6619105  23.3026177  65.2170038   4.4361289
  23.1780508  66.0160322   5.0399796  23.6289860  64.5768540   5.1284047
  73.3343218  25.9019744  67.7961924  73.2301924  25.3982296  68.6373076
  73.3085093  26.8042466  68.2866587   7.3349552  40.0039970  72.1931883
   8.1790196  39.5152065  72.3884040   7.0776888  39.5336297  71.3827713
  73.4757804  41.6102982  60.3857108  73.1850981  41.2564661  61.2410153
  74.4648780  41.6028976  60.5770753  32.8788250  46.2262106  -3.0979429
  32.2269965  46.6821849  -3.6420041  32.5542522  46.4189925  -2.1967239
  12.6547475  35.7787035  74.0869390  11.6618051  35.5835518  73.7991332
  12.5912590  36.7520488  73.9666208   2.9550004  33.7682466  67.7274122
   3.8862789  33.8332170  67.6747293   2.7465627  33.0255448  67.1193467
   1.8272028  36.3154588  68.5681031   2.1581863  35.4560947  68.1668931
   2.6887101  36.7853607  68.5618084   2.3464579  41.0747117  68.1081260
   1.7159876  41.4626382  67.4644054   2.6524857  41.8704113  68.5665250
   8.8699112  54.9663024  62.8016094   8.3020928  55.0357210  62.0235214
   9.6703431  55.4960309  62.4915566   3.5835506  37.3026687  56.6895121
   4.3329188  37.4128718  57.3716281   4.0330544  37.8126047  55.9858037
  69.6971416  45.3427744  66.1746674  69.8355986  45.9948310  66.8452886
  70.3914539  45.6086640  65.5093479  76.6507527  33.0955211  66.9212375
  77.1084799  34.0007769  66.8888917  77.0789144  32.7437309  66.0877578
  53.5022077   5.2605967  14.2065615  53.9708051   6.1107450  14.0484839
  53.4309805   5.3152718  15.1895277  76.4421840  42.8008882  57.5904249
  76.7024939  42.9802109  56.7029145  76.2499334  43.7524190  57.9289921
  11.2423765  39.6827637  67.4134298  10.3455839  40.1068064  67.2790405
  11.7252335  40.1070628  66.6728508  71.4722210  34.2318837  64.9531266
  71.4425013  35.0823332  65.4503447  72.2094739  33.8156377  65.4205778
  49.9105843  11.3145140   9.8503412  49.6143893  10.7620339   9.1384896
  49.2058281  11.2601251  10.4726747  46.2756109   4.1180044  10.9139042
  45.7792275   3.4969077  11.3997262  46.7380203   3.5920259  10.2675713
  12.0014069  43.5034421  73.1534327  11.5617834  42.9053129  73.8815566
  11.7631212  42.8311017  72.4244735  71.5526004  37.7667568  68.5069948
  71.4173565  36.8540384  68.9594638  72.1434453  38.1209067  69.2256189
  47.7862106   2.2739378   9.8453834  48.2718418   2.2483435  10.6811797
  48.5108830   2.1109258   9.2499951   3.2033069  43.5987227  68.5254762
   3.3951161  43.9847498  67.6010113   3.7890825  44.2644835  69.0154563
  78.1190215  11.7163996  55.0054367  78.6976088  12.5373580  55.2108584
  77.3356291  12.0649187  55.5541964  23.1838145  55.4994653   1.7174014
  23.2550682  55.6930212   0.7278546  22.1852205  55.5518974   1.8127591
  76.5802167  12.9802645  36.1565393  76.0618568  13.2742942  35.3863184
  76.9972871  12.1773148  35.7026267  74.4321388  25.9243702  56.7342267
  74.5644653  24.9711907  56.8331240  74.7972813  26.2903106  57.5531530
   9.0094118  17.1344012  53.7064336   8.3828524  17.1136375  54.4512488
   8.5054521  16.8055667  52.9443327   2.5470133  12.4840110  52.7255143
   3.1198749  12.7614961  51.9685637   2.0486107  13.3137801  52.8745300
  52.6235509  83.5970789  44.4405117  52.7760646  84.3515778  45.1066586
  52.6244267  82.8213962  45.0031617  29.9945348  44.2251441  -3.3493930
  29.7017198  45.1495814  -3.7253128  30.7813789  44.0794988  -3.9396621
  21.6128803  46.7994301  -4.0044969  20.6454536  46.7655333  -4.0912428
  21.6756048  47.0303480  -3.0431221   9.4161073  13.2142534  52.2119025
   9.4534876  12.8176812  51.2907324   8.5918262  13.7115448  52.1624047
  24.2927419  52.2197243   0.0840011  23.4735468  52.6837327  -0.2674946
  24.0785062  52.1667658   1.0112608  58.4915345  17.7863130  58.9872129
  59.1500125  17.9216720  59.7206224  59.0403885  17.1382627  58.4460399
  55.5251160  77.7629879  52.8294538  55.8170009  78.5677871  52.4039862
  54.7874778  77.9749355  53.3928862  62.1750139  11.8251381  66.4322001
  61.4879725  11.1693865  66.3554025  62.9157566  11.3319796  65.9811981
  75.1182524  20.6291091  45.7068765  74.9666318  19.6431957  45.7637754
  74.3746667  20.9333000  45.1056408  76.5877585  10.7539203  51.1739087
  77.5052027  10.5653979  50.9308342  76.5982223  11.7600832  51.1145929
   7.6896651  22.2850564  47.4806948   7.2322076  22.5283613  48.3227051
   7.8158956  23.1239483  47.0102300  16.0493046  14.2736841  50.6295705
  15.7793865  14.9316125  51.2581637  15.8945240  13.4211823  51.1212870
   5.4683859  28.0372470  58.2117347   5.1163356  27.3148175  57.7052106
   6.3536408  28.1280061  57.8551031  49.4067257  79.9668200  48.4781040
  49.4395219  79.1101423  48.9930941  50.3882330  80.1513127  48.3735541
  69.5594234  11.1137592  58.0133610  70.2220673  11.1729655  57.2838050
  68.9555757  11.8543029  57.7055319  27.3119623  47.9818487  -4.4253354
  28.1814167  47.5223679  -4.5746909  27.2928492  48.0827373  -3.4944086
  12.1745420  17.2076151  50.2898824  11.8936200  17.4515249  49.3556646
  12.1618914  16.2448083  50.2287278   2.5163041  21.9668189  56.3617351
   2.6173147  21.1713730  55.7499162   3.4708300  22.2226449  56.3603741
   2.9909572  10.0170122  53.4113310   2.4188086  10.0015677  54.2257720
   2.8455842  10.9167845  53.0982844  25.5218701  59.5659839   4.6208916
  25.8637261  59.3232810   5.5123963  24.6691113  59.0989228   4.6773894
   5.7222939  20.8632552  58.5556812   5.8243177  19.9178339  58.9218489
   4.8367880  21.0300980  58.9558682   3.7570198  30.6733396  56.5231246
   4.2598837  31.1973637  57.0968078   3.0033513  30.2978914  57.0738358
   4.3372083  20.4598018  46.7147484   4.2513299  20.1385788  45.8098886
   4.3497798  21.4444455  46.5503419   1.3089810  28.4261469  51.8702935
   2.2502059  28.4194471  52.0517486   1.1253118  27.4800268  51.8323119
  15.8650964  26.0187647  60.7165807  16.4432942  25.2832705  61.0341174
  15.5522956  26.3652117  61.5543004  70.2713435  35.3056461  43.2788109
  70.4850471  34.8526885  42.4097507  70.3899045  36.2227275  43.0759204
  26.3027632  42.9359196  81.5082544  26.9342123  43.6946912  81.7949124
  26.5357018  42.2863329  82.2315750  47.0735174  75.2967709  18.4618096
  47.2592473  75.8392153  19.2288892  47.5339757  74.4812271  18.7234556
  55.9208254  72.7980971  20.7995094  56.3105658  73.5784230  20.3617853
  56.3281083  72.0521471  20.2963832  68.5765971  12.8579331  26.8341640
  68.5588993  12.8238541  25.8600275  69.4595170  12.6889675  27.0618763
  30.4772039  56.2685905  79.6485409  29.8217102  55.5331157  79.7863399
  31.2935161  55.7895887  79.8563136  19.1822430  51.2831101  76.0655405
  18.9581540  52.0183968  76.6239204  19.5650988  51.6888543  75.2698065
  30.5081557  43.5154671  82.7967418  30.7860948  43.5432272  81.9029212
  29.9681359  44.2892142  82.8880916  33.6407584  50.5529877  69.6427708
  33.7029441  50.0957307  70.5096858  33.3608485  51.4668669  69.9197409
  27.0655050  43.0197259  78.8981321  26.8186224  43.0543190  79.8406132
  27.1136252  42.1019537  78.6730462  26.1757074  46.8736345  76.7799288
  25.7797549  47.5746631  76.1730313  25.5357869  46.8503825  77.4852704
  11.2211613  16.0972912  24.3226591  11.1114048  16.3630443  23.4101100
  10.9062921  15.1452156  24.2367520  37.2749524  45.0912333  84.6203267
  38.0725533  45.1942462  84.1230429  36.5835199  45.4187802  84.0574219
  33.4153360  49.3438155  80.0371210  32.6654283  48.7303960  80.2386374
  34.0600891  48.6745307  79.6325198  63.5119841  74.9156906  36.0942541
  64.2252819  75.0791397  35.4151618  62.7513359  75.3251406  35.5444206
  35.7126979  39.9665610  84.2948794  36.6594124  39.6596864  84.3462322
  35.5146848  40.0151560  85.2533733  45.7918678  57.9041830  12.3897070
  45.9706622  56.9576737  12.1892132  44.9498619  58.0396835  11.9112862
  24.7212857  44.8637329  64.3914660  25.1999282  43.9821740  64.1727230
  23.8624218  44.5697539  64.0177450  33.8249164  38.0956337  78.8522829
  33.1617660  38.1839396  79.6005405  34.3002991  37.3031992  79.2125444
  33.0366242  28.5052542  75.0931542  33.2672467  28.0991450  75.9509047
  32.0588412  28.4718612  75.1405321  33.9729212  33.2305512  70.4478151
  33.8181227  33.8493035  69.7170271  34.8143750  32.8070342  70.2046283
  54.3000682  80.8828073  25.0438728  54.7613405  81.5490764  25.5310356
  54.9610322  80.5774387  24.3673812  36.9933474  48.6511653  79.0994233
  36.9462012  47.8040384  78.6405374  36.8978760  49.3056137  78.3815501
  47.1423682  36.4161130  85.4916363  48.0582050  36.6829494  85.6496293
  47.1424417  35.5271787  85.9130639  13.1729196  21.8601974  31.2028134
  12.1714350  22.0200246  31.1536385  13.3293962  22.5685641  31.8440512
  10.8651998   8.4483546  23.1340663  10.4727391   8.6050724  22.1938751
  11.2025641   7.5653327  23.0063352  21.4673364  22.0759228  17.0948058
  22.2401723  22.5490812  16.7291628  21.3420508  22.5670916  17.9360771
  78.2777454  18.7698871  29.3371737  78.9584361  19.1334644  29.9278912
  77.5073568  18.7756542  29.9557627  11.4093054   5.1561425  28.2109953
  10.9481751   5.8939096  27.7157077  11.8575920   4.6781273  27.5196361
  35.4066701  54.5039079  79.0499376  35.5433309  55.3427460  78.5723672
  36.1223795  54.5513856  79.7593835  33.7511218  44.9416744  80.5671951
  34.5743762  44.4324956  80.3756235  33.9009175  45.7411629  79.9864517
  42.5749261  49.3285480  79.0389438  42.4806360  50.0613810  79.7217549
  43.2955504  48.8577069  79.4808506  60.7441783  69.1629018  26.4507710
  61.1534002  69.7541399  25.7861971  60.9659183  69.6793791  27.2719750
  29.3949900  45.1048323  70.3188357  29.2492232  46.0660183  70.3100622
  28.8569067  44.8820593  71.1314445  26.3657683  34.7561482  79.1332486
  26.6289326  33.8299926  79.3890558  26.7478541  34.7588062  78.2235918
  36.1731074  24.4080648  65.4632617  36.2613432  25.3605198  65.2580931
  35.2461586  24.4468887  65.8747627  37.8502580  23.4545310  73.0015869
  37.1794145  23.2516594  73.7302091  37.3560073  24.2606180  72.6737566
  22.1016718  30.0773725  55.2554059  22.2987771  30.7813588  54.5746431
  21.3793460  30.5877953  55.7256126  32.0521409  23.0384873  63.7543249
  32.3485124  22.2384640  64.1755855  31.1473198  23.1177574  64.0958922
  30.8318187  14.2781421  56.4026158  31.8332130  14.3962912  56.3048447
  30.6848887  15.1507357  56.8492609  56.2846633  59.4789928  15.4963271
  56.1823319  59.7495683  14.5108450  56.9083129  58.7668084  15.3096980
  40.4981122  31.9116649  71.0657437  40.7308826  32.7505886  71.3951452
  41.2102921  31.3482451  71.4339115  59.5845642  58.2522959  22.5851155
  59.4721446  58.6862120  21.7346826  59.9760527  57.4246298  22.4027829
  43.4992598  33.9548356  82.9548574  44.0755460  33.1651019  82.7028852
  44.1019626  34.6885558  82.9788629  33.1748827  24.3292380  76.0549201
  32.5357454  23.6590441  75.7307700  33.0564297  25.0293178  75.3275647
  43.0583787  24.4530685  67.6919254  42.8895926  24.5147993  66.7232920
  42.1641214  24.2992509  68.0099457  46.1401434  24.5235101  72.8852892
  45.7576208  25.2661147  73.4033152  47.0586201  24.5459499  73.2477624
  24.0543917  31.4387129  64.4831794  24.3229035  31.5399868  65.4359272
  23.5032878  32.2450471  64.4119939  29.6852807  34.3205750  74.9417541
  30.0584913  33.6447073  75.6085151  30.5048443  34.7009264  74.6207770
  38.4328258  31.5979944  69.2538919  38.9661676  31.4838548  70.0393817
  37.7759544  32.2073563  69.5797009  44.1837834  47.1188278   1.9755222
  44.6361761  46.8538652   1.1372643  44.4486118  46.3695635   2.5426332
  34.1989471  23.8933866  71.7839181  34.2548996  24.7302636  72.2969672
  33.5986497  23.4031765  72.4029952  45.1824985  18.7887176  65.8727228
  45.6172531  19.2603977  65.1375559  44.4754405  18.3597391  65.3546750
  50.3861177  46.3321279  11.4798465  49.4305290  46.0755544  11.4041118
  50.3377588  47.2842187  11.2686103  39.0003210  38.1524086  80.5499023
  39.1764892  38.8778462  81.2024052  39.5992789  37.4388189  80.9795070
  33.3544876  29.8112594  78.9685164  33.5580110  30.5445271  79.5646521
  32.3995048  29.9167401  78.8363753  29.1920028  37.1474134  72.3097862
  29.1912695  37.9915940  71.8465744  29.4125218  37.4474281  73.2160359
  36.2494849  47.9485737  81.7671458  36.4763090  48.1008054  80.7785331
  35.8415055  48.8008934  81.9482942  35.4747767  35.7559627  79.3902446
  35.5966328  34.9302744  78.9476189  36.3434765  36.1836551  79.2932279
  43.6855627  38.1963464  71.4747351  44.0988311  37.3148740  71.6072633
  42.9863322  38.1644468  72.1430013  54.0422805  78.6703286  21.1248594
  54.9602526  78.9553091  20.8292206  54.0022863  79.1266078  21.9862145
  33.1860422  17.7414237  68.2431055  33.4386368  17.1953288  67.4471937
  32.9391489  17.0267707  68.8873737  64.9508455  59.8543735  18.3164137
  64.9079852  59.5764774  17.3522957  63.9875184  59.7384138  18.5180850
  39.2496069  37.1880916  71.6916036  39.5028506  37.6740184  72.4906057
  38.8318880  37.8310891  71.1135064  42.6342273  37.3119266  85.3532711
  43.4978690  37.7406326  85.2401184  42.0207972  38.0673661  85.1298520
  47.5453781  30.6536624  69.0425134  48.2754304  31.3068493  69.3546091
  48.0584501  29.8197113  68.9988310  40.1539533  34.3536450  79.0719202
  40.5786634  34.4874889  79.9814474  39.4038061  33.7996480  79.3464593
  47.9525874  32.9867014  76.1899110  47.3487679  32.7897512  76.9479157
  48.4368553  32.1366184  76.1545273  28.9154389  32.1634286  61.8282955
  29.3520973  32.3749074  60.9730905  28.6366903  31.2589617  61.7116346
  58.9223017  69.5704611  19.8951394  59.8895221  69.3595067  20.1704141
  58.6771479  68.6006518  19.8919708  48.6284452  28.7778987  78.6262202
  49.4981207  28.4826582  78.9293611  48.3297839  29.2999326  79.3896439
  31.1307285  28.7230441  60.1250971  30.6342943  29.5110875  59.8528916
  31.2067193  28.9102034  61.1201782  34.7827674  32.4513412  81.1065664
  34.6515570  31.7356523  81.7293285  35.5167183  32.1781424  80.5044796
  25.8375937  46.1139954  73.9849606  25.0304125  46.5217647  73.8430960
  25.8490785  45.6484884  74.8085466  49.7234122  33.2896756  72.3461658
  48.7565033  33.4988847  72.5878669  49.5636701  32.9951026  71.4287702
  22.0948076  44.0658397  72.4682466  21.9199265  44.0354953  73.4362993
  21.3126397  44.4629762  72.0742206  34.7984420  38.8935626  69.2034386
  35.3012857  39.5649019  68.7246729  35.4949186  38.1375656  69.2200548
  49.0208758  27.8398904  83.3545049  49.8244825  28.4016403  83.3415989
  48.9120674  27.5849409  82.4284084  34.5702562  35.0573488  72.7438113
  34.4654249  34.6114782  71.8548266  35.3084579  35.6859441  72.5062649
  59.0227692  78.6578277  23.7729132  59.2649826  79.6463697  23.9386706
  59.6225566  78.2088858  24.3706106  35.3341515  34.0458157  75.6592106
  34.6611873  34.6678062  75.9993779  35.4466378  34.4456142  74.7779939
  31.7868753  35.2472904  78.4032190  32.5814341  35.0524427  77.8923519
  31.9638456  34.6766642  79.1525618  54.1894871  60.3389579  17.1152530
  54.9345548  60.0880179  16.4673840  53.7789913  59.4310743  17.2291195
  59.2592813  66.9019104  19.7579966  59.7060957  66.2449886  20.3599366
  58.4049543  66.4221162  19.5972334  54.5314015  30.4900991  76.8244625
  54.9637912  31.1611407  77.3890534  55.3106698  30.2026326  76.2832607
  35.2278417  49.2375233  76.4240057  35.7648288  49.1680003  75.6445968
  35.4039422  50.1339283  76.7952486  31.9919701  35.5694510  73.5323443
  32.0201589  36.4456377  73.8512537  32.9422349  35.3186090  73.3561572
  38.8030522  26.3931101  75.7472244  38.7988449  27.2335946  75.2735870
  37.8286706  26.3464624  75.9546373  35.2339791  54.5442617  75.3614552
  34.3472953  54.3516449  75.7610823  34.9896199  55.0399709  74.5260568
  69.4498639  73.2309564  26.4441878  69.2656556  73.6224907  25.5748505
  68.8104782  73.6324164  27.0250283  48.8171217  67.5699915  13.4894974
  48.1251975  67.9965886  14.1021066  48.2199264  67.0444153  12.9485728
  38.4927713  29.5485238  62.5870662  38.1101039  29.3412869  61.7226518
  38.5893330  28.6468837  62.9841404  48.0350206  20.6776531  77.9760576
  48.8498474  20.1694642  78.0177619  47.7496639  20.5705460  78.9121616
  37.0799481  37.2216343  69.7391522  37.7438228  37.6935453  69.2041224
  36.8693877  36.4745194  69.0964507  40.0754819  25.2108679  73.7380571
  39.4331551  24.4421984  73.7027297  39.7104584  25.6634869  74.5163805
  34.6041832  43.8439708  70.3252286  33.7247094  43.6247344  70.4755831
  34.5874924  44.7526389  69.9390749  32.3998983  42.5427810  71.9078636
  31.7802468  42.6891872  72.7043416  33.0332290  41.9965879  72.3235119
  62.3577707  60.1507823  19.9468563  61.5853243  60.7821453  20.1167730
  62.0974297  59.9146977  18.9887738  33.2520017  39.6881702  71.0983876
  33.8449351  39.3997304  70.4033153  33.8390748  39.9019220  71.8224530
  71.1334001  63.5301051  18.1820219  71.1070250  62.5795133  17.9558893
  70.1917582  63.6038000  18.5714000  29.0875227  14.7710507  69.1453370
  29.9178277  14.2715286  69.3771240  29.1026151  14.7557600  68.1524007
  38.2157005  31.6383269  66.6526188  38.2412605  31.5504125  67.6520662
  38.6953704  32.4789152  66.5159764  42.1409134  42.8515573  70.9728766
  41.4942718  42.9088262  71.6625062  41.7658295  42.2541900  70.2903595
  35.1947452  27.9025769  73.0530489  34.3263309  28.3946613  73.0691964
  35.7679669  28.6558257  73.3086019  43.8425837  26.4681414  78.1852371
  44.7770145  26.5237585  78.3892418  43.7114402  25.4853820  78.0815666
  33.4045527  23.5628707  61.6653740  33.2480478  22.8958895  60.9711417
  32.8255694  23.2683277  62.4223231  59.5105819  72.3521768  21.2546175
  59.3768638  71.8421578  22.0550387  58.9810172  71.8012678  20.5885881
  41.5195771  29.5999839  75.6011453  41.7828759  29.2236399  76.4592088
  42.4456754  29.3594391  75.1572889  35.0930672  37.8587128  65.9452834
  35.0580490  38.6657398  66.4344638  34.3555259  37.3504348  66.2805576
   1.0690578  51.0906829  14.4287338   1.0664772  50.2427812  14.9215348
   1.8474272  50.9966066  13.8707910  31.1560622  40.3529820  76.1658670
  30.7660527  40.5709549  77.0561591  31.9993243  39.9446011  76.4423766
  40.4550958  46.2264344  82.1966926  39.7521197  46.9593246  82.1609651
  41.0092959  46.6044669  82.9462857  40.5588412  30.7095820  63.8318509
  39.8024136  30.2782716  63.3268482  40.4221754  31.6350879  63.6355402
  38.3234654  31.8395477  79.7146928  38.6111854  30.9409630  80.0045282
  38.3285266  31.6951898  78.7598044  32.8220481  40.4409414  83.5825829
  32.9036001  40.9889764  82.7955433  33.7889642  40.4470844  83.8822051
  41.1243774  28.4726541  72.3286213  41.3284636  29.1197623  71.5770146
  41.9347044  28.7565923  72.8882715  32.9630360  45.0664127  74.8071870
  32.1401931  44.6717589  74.5225047  32.6691417  45.7028645  75.4982412
  39.1062125  22.0561352  68.1842253  39.6542648  22.3353465  67.4121993
  38.3002075  21.7978817  67.7032279  30.6513055  30.3897661  78.5784507
  29.8406137  30.1190800  78.1279572  30.2973304  30.2034903  79.5017885
  35.8238451  23.8867042  62.8657637  34.8620478  23.8997415  62.6610254
  35.7840085  23.9251232  63.8486135  37.8851837  34.7755377  71.5636591
  37.8197927  34.5696219  72.5083893  38.2258422  35.6918191  71.6079139
  60.0660621  75.1324397  21.2073207  60.4005413  75.0669051  20.3075958
  59.7339715  74.2390425  21.3808578  42.3726933  42.3324763  79.7036024
  41.4435708  42.6687515  79.6927817  42.1792153  41.3905605  79.5360775
  37.1810184  38.6079032  75.9417403  37.8570758  38.0463325  75.5841817
  37.3421025  38.5869361  76.8983551  28.8606555  43.7224199  74.8472429
  28.7938234  43.6396472  75.7745941  29.5462965  44.4913362  74.7622668
  26.8901127  37.5421514  74.6831098  27.8497463  37.7285742  74.6753541
  26.5608961  38.3844767  75.1013107  30.3425536  45.5389638  73.6346709
  29.5751440  46.0591682  73.2403002  30.9585952  45.5202934  72.8653234
  20.7342639   1.3691579  24.8900041  20.5775864   1.9461614  24.0825034
  19.9243929   1.5561779  25.3858240  13.9560187   4.9832090  24.5008451
  14.7530146   5.4144397  25.0320239  13.9553295   4.1173304  24.9332393
  38.2267086  13.0943116  71.1401547  38.7862847  13.8790320  70.7878260
  38.7853790  12.3759245  70.6645634  58.0531052  76.2582333  22.4485329
  58.4467622  76.9953024  22.9869981  58.8640187  75.8957470  22.0253774
  23.8308040  39.4637077  67.6788494  23.1383211  39.3158894  68.3895378
  24.6122473  39.4332831  68.1832446  24.7648239  44.2425436  75.9637221
  24.8729752  44.9573505  76.7138199  24.5589392  43.4678468  76.5623569
  54.9095667  74.5352747  18.1910299  55.6899728  74.8994051  18.6434686
  54.1893446  75.1186985  18.4976715  62.8154131  57.0991921  15.0606470
  63.5731802  57.6903103  15.2455961  62.1242225  57.4855801  15.6472527
  53.5812084  30.8682246  67.9355880  54.5264780  31.0463005  67.9562100
  53.2308915  31.5657566  68.5491858  33.5682669  39.7137710  76.9414439
  33.6637636  39.3393984  77.8523235  34.3000822  39.3790622  76.4641601
  30.4089034  43.5710067  68.3057998  29.5588103  43.5458622  67.8585717
  30.1572635  44.2532326  69.0406689  54.0746677  62.8577290  12.9138648
  53.2592457  63.3240943  12.6828097  54.2030113  63.1744205  13.8107191
  30.3192975  42.3763214  64.7037340  30.0533634  41.8742415  65.5431650
  29.9353511  43.2552913  64.9420352  57.9934028  71.8158305  18.7937659
  58.2972084  70.8745314  18.9156426  58.7850362  72.1381869  18.2061596
  32.3103942  35.2467478  64.0591554  31.4874228  34.8242217  64.2801508
  32.0381977  35.5794517  63.1570323  43.0887115  33.6782906  79.5779702
  43.3759825  32.8967854  79.0488099  43.5483364  34.4115097  79.1560476
  36.5587444  33.4941544  78.0315733  36.2180218  33.9648537  77.2511937
  37.1013849  32.8209736  77.5974439  47.8664673  41.8673312  82.4863488
  48.0794023  41.4013843  83.3251154  48.6657638  41.7791416  81.9882764
  25.8919848  31.2986566  69.6493430  26.1371322  31.8005941  70.4834150
  24.9699525  31.0232166  69.8833800  36.3609782  40.7970377  63.0341742
  36.1957411  40.1682079  62.3471011  37.3243973  40.5641010  63.2851522
  64.7046452  73.2009006  21.1372656  64.7320976  72.3280886  21.5630747
  65.5099686  73.0865835  20.5893004  23.2578471  22.9532629  61.7053627
  22.4307979  22.4388377  61.5189459  22.8835469  23.5794316  62.3704395
  40.4429333  38.6952875  86.6938587  40.3846731  37.7122158  86.6737073
  39.8173076  38.9253936  87.4171817  44.2948057  27.3524282  69.7686742
  43.4581265  27.6088779  69.3700882  43.9795795  26.7471396  70.4284525
  35.6437783  34.9664775  67.8131417  34.8039107  35.0456582  67.3590267
  36.2614049  35.3207282  67.0619701  30.8367834  44.1023017  80.0712903
  31.5929031  44.6806823  79.7960266  30.2312830  44.7352258  80.4507304
  65.4649153  68.5533031  29.9572297  65.0634308  69.1339690  30.6449453
  64.9805237  67.7198600  30.1972779  35.5876306  43.5625090  77.1935189
  36.0881683  43.9029893  77.8985755  35.8985325  42.6118077  77.1705401
  71.2439953  56.3695235  18.7683944  71.8177236  56.6468512  19.5037882
  70.7151399  55.7237200  19.2819309  42.2006401  37.2069285  68.1264968
  42.6408252  38.0133321  68.4885825  41.6821572  37.5415314  67.4403925
  36.2323339  46.6975580  72.1707235  35.3112461  46.5266383  72.4051367
  36.3824002  45.9380135  71.5874578  55.8485602  51.3721110  13.4377826
  56.7882939  51.5000184  13.7328236  55.6301373  52.2995171  13.2215092
  50.0772030  45.0370142  74.9935149  50.2697244  44.1790613  74.6303154
  50.8405833  45.2876999  75.4805853  42.7863750  30.2623409  70.6154121
  42.8821316  30.6716298  69.7023263  43.7174038  29.8698866  70.6142429
  27.2269280  12.8363198  19.1342389  26.9502099  11.9539044  19.5524732
  28.0151452  13.0444164  19.6506048  16.3887741   0.7534717  34.6392255
  16.0838566   1.0893256  33.7637048  16.3376665   1.5406592  35.2319844
  15.0571331  13.2462936  19.3861839  14.8089503  13.6615354  20.1923542
  14.4747870  12.4429759  19.4087776  28.5502105  29.6698572  65.3843820
  27.7636499  29.8801823  64.9349548  29.1779467  30.3444887  65.1712805
  34.6589535  54.5667334  72.5817598  33.8827571  55.0250681  73.0840345
  34.1542328  53.9623599  72.0305298  27.9610093  34.5327511  72.7582085
  28.6459053  34.2696461  73.4327296  28.1759237  35.4805453  72.7551242
  56.3629098  69.7154928  16.3044167  56.1299375  70.6699054  16.2866050
  57.2736021  69.7590317  15.9960434  57.2328542  75.2080789  20.0037229
  57.9591728  75.8201984  19.8168955  56.9903585  75.4976348  20.8681014
  31.3798938  35.8069918  61.4367778  32.1210660  36.2523835  61.0209769
  30.7142348  36.5391687  61.5060804  50.3500482  35.7583122  81.8034260
  51.2830932  35.7000515  82.1016662  50.0325847  36.5617743  82.2784752
  42.0029059  30.9521368  78.9329602  42.8985677  31.1348238  78.6960652
  41.9204369  30.0405447  78.5037563  72.1333302  62.2614679  25.8267643
  72.7410894  61.6736068  26.3787289  72.7564227  62.5387174  25.1518673
  39.8722140  26.2753088  70.8228651  39.7428591  25.6355446  71.5400041
  40.4690544  26.9133781  71.2501665  41.2056392  24.9723483  77.0231433
  41.2310952  24.9394744  78.0121062  40.3770303  25.4772474  76.9337669
  38.3818385  43.8212430  74.9196142  37.5685435  43.7109942  75.4220055
  38.8445838  44.5827152  75.4425192  42.6515497  45.1111195  67.0871024
  42.0097376  45.8552842  67.1760622  43.1998047  45.3411251  67.8777050
  34.9960254  40.8410576  73.1822778  35.9153716  40.7501683  72.9909803
  34.8602072  40.2244111  73.9793105  59.3304080  30.9395696  72.1440857
  58.5096910  31.3631382  72.1721673  59.1000383  30.0043160  71.9003921
  39.9311520  33.6493303  66.3824807  40.8328975  33.8795886  66.3805904
  39.5183303  33.9886114  67.2128526  50.9562214  24.7811788  83.5546210
  51.7659135  24.8413742  84.0450729  51.0260493  25.5208987  82.9237909
  71.0614982  50.0711211  17.7541764  70.1454752  50.0712194  18.1474304
  71.4204510  50.7685163  18.3915124  52.6379132  28.5269306  76.0660703
  53.3597293  29.1936827  76.1286231  51.9723579  29.0349526  76.6468398
   4.6130521  63.6227172  18.3032556   4.8066270  63.8792919  17.3502586
   4.4298644  62.6793165  18.1644611  40.0720461  25.8260680  62.0199769
  40.7049616  25.7818247  61.2396941  39.2241955  25.7904950  61.4954420
  33.5617394  25.3419715  69.3788923  33.6915584  24.7259654  70.1125560
  33.9141401  26.1865079  69.7756650  29.8674588  17.0676276  70.6839337
  30.7697910  16.7563803  70.8215094  29.4608001  16.2819461  70.2759909
  37.5092884  28.8834576  60.1424314  38.1041043  28.1515679  59.9218862
  37.3912428  29.2497033  59.2130777  50.6586379  23.9154654  78.9071024
  50.3232662  24.0650963  77.9975505  50.6986186  22.9067948  78.9271541
  58.1956916  27.8280113  74.3346424  58.7828390  27.2914778  73.7874057
  57.4435480  27.2057840  74.4676840  26.5332727  42.0672413  71.0948306
  26.1074085  41.9750383  72.0197378  27.1137082  42.8329300  71.2640471
  32.6496186  32.9511675  79.6537721  33.1356812  32.5957667  78.8927288
  33.4640063  32.9270653  80.2908056  51.3457752  34.2090103  74.1211326
  50.7794948  33.9541508  73.3834122  52.0658699  33.5673883  74.0524195
   2.8213205  58.6549640  19.0410854   2.7818086  57.8457646  19.5837251
   2.7116923  58.2026880  18.0900013  25.3396321  51.6728457  75.9658060
  25.3018456  52.2052359  76.8152568  24.7576099  52.3067972  75.4277564
  39.5268938  40.2723694  69.7941500  38.6163892  40.5229934  69.7523114
  39.7049092  40.3469854  70.7484794  39.5242841  34.8652809  68.7674174
  39.3454186  34.8080062  69.7295385  39.5124241  35.8178212  68.5753786
  59.4501653  70.6603006  23.4066205  60.3317274  70.6158147  23.9254854
  59.4006768  69.6945699  23.2884963  51.1070558  38.8127046  78.8353108
  51.5483311  38.1534838  78.2577601  51.8598792  39.0789055  79.4299862
  14.6918226   8.9962031  24.0677768  14.8034588   8.7564496  25.0073615
  15.5816473   8.8341604  23.6804940  48.5225828  40.2240647  68.8095415
  49.0929465  39.8953186  68.1199306  49.0822447  40.9447782  69.2075514
  35.4274744  21.4561874  60.7616542  36.2501448  21.9042178  61.1778434
  35.8566140  21.2801969  59.8849635  66.4693125  54.4060551  13.3073963
  65.6844449  54.4057365  13.8910445  66.0326539  54.5121326  12.4638977
  62.0460122  76.4081463  27.5988976  62.7219053  77.1276275  27.7346443
  62.5633625  75.6841684  27.2017825  30.7433780  45.6863140  85.9703459
  31.1488361  46.2648124  86.7062578  31.4856943  45.1643504  85.7555411
  58.3075020  58.3497658  13.9241859  59.1150765  57.8219869  13.7693982
  57.7756034  58.0710918  13.1557715  52.4725818  50.0446876  63.6853829
  51.5710912  50.1229057  64.0649642  52.3979284  50.7875309  63.0224448
  59.6301383  50.8526401  72.1793881  59.4418610  50.3640735  73.0726349
  58.8866266  50.4830615  71.6521017  50.1607070  40.1241286  75.0701513
  49.7328242  39.3788387  74.5728160  49.3081945  40.5581719  75.3609404
  34.9365295  12.9802707  15.4721150  34.2109296  13.4905281  15.8520764
  34.6510350  12.9312462  14.5609362  25.4132335  26.8355532   9.3872181
  25.8495869  26.4996709   8.5602667  26.2269843  27.4683448   9.6518960
  49.3488080  46.8499666  63.6950542  48.8597346  46.3683919  62.9813879
  50.1332164  47.0606425  63.2237104  22.9590023   8.2907528  17.3511086
  21.9737393   8.2217468  17.2225695  23.2307710   8.6924470  16.5254460
  55.2029032  54.7224164  71.6815564  56.1079629  54.3543054  71.6903737
  55.3188776  55.4135929  72.3922765  32.5391991   7.5293800  12.9753930
  32.7882062   6.7659690  13.5654556  32.5502020   7.0851288  12.1172407
  37.3075753  47.6528265  74.4374277  36.7413300  46.9936277  74.8507515
  37.1768868  47.5020182  73.4700923  46.0554225  49.4432781  74.7151043
  46.4323087  49.1921350  73.7994823  45.1723169  48.9655094  74.6009618
  50.4033214  46.5436423  69.4800953  49.7093992  46.0053405  69.8255915
  51.2024922  46.2863238  70.0487887  48.6360432  45.5989417  77.4003431
  48.5156510  46.5842221  77.2461964  49.2841302  45.4501317  76.6658585
  63.1729302  39.2810229  77.0719552  64.0091711  39.4984001  76.6972599
  62.6852559  40.0828373  76.9282764  43.4003558  39.3485093  69.1655916
  43.5491846  38.8726195  70.0124660  44.3128095  39.7768907  69.1177448
  49.1228402  50.4666100  75.1170578  49.1681477  49.4845124  75.3873899
  48.1526118  50.5189337  75.0147596  35.0362488  15.6448928   6.7201110
  35.6290678  15.3503789   7.5104121  34.2278452  15.1685367   6.9997733
  47.5557468  49.3413136  72.1557755  47.8594256  48.4533179  72.4279881
  47.4569402  49.1647065  71.1914170  39.4017452  49.7828711  67.6857046
  39.3129628  48.8865013  68.0614929  38.5086685  50.0076765  67.4293133
  43.9927040  59.3150198  65.5016195  43.6328397  59.7386976  64.6634798
  44.7995471  58.8847716  65.1905527  32.2896412  12.9080940  21.6097195
  33.1573479  12.6064763  21.3858825  32.4814300  13.4441582  22.4003965
  61.1225119  39.9310172  73.3683738  61.7847849  39.3067282  73.7493302
  60.3316133  39.6639109  73.8213523  46.3714109  43.6364629  79.2268066
  46.1958304  43.7324564  78.3108625  47.1351968  42.9463987  79.2192129
  33.7384165  36.0320153  81.4309853  34.1638859  36.7024045  82.0485953
  34.5613074  35.8310652  80.9037586  42.8546972  44.6140815  64.4365268
  42.2708778  43.8018722  64.3831959  42.7970652  44.6961936  65.4568837
  47.9535309  43.8868312  73.1774432  47.4164901  44.1744276  72.4356077
  48.8265183  43.9207452  72.8125601  54.8337888  50.3115916  65.0250309
  53.9909043  50.4706804  64.4665408  54.3311038  50.1429756  65.8964257
  47.0748552  44.3400396  70.6434271  46.7969150  45.0216178  69.9691201
  46.2475679  43.8672861  70.7589158  39.4374310  46.0102026  75.9941651
  38.9823243  46.8715576  75.8070248  40.2844022  46.1230423  75.5398343
  55.9213931  66.1137754  16.8943636  56.4297171  65.2695585  17.0506155
  56.3030964  66.6693562  17.6013446  42.8480306  54.2067305  72.2170816
  43.7284335  54.3575415  72.6610167  43.0990705  54.6333592  71.3353901
  32.6894933  39.6829197  67.8367584  32.5913042  40.5983879  68.3063747
  33.4156615  39.3163710  68.3831456  38.1163601  44.4018920  72.0592994
  38.5053276  45.3454227  72.0603200  38.0957992  44.2292983  73.0084657
  46.2106024  37.8023835  81.1418999  46.2660061  38.0363328  80.1877193
  46.1791993  38.6743098  81.5150418  46.2240035  38.7037128  77.2863078
  45.6919641  38.4917873  76.5153663  47.0938564  38.3396703  77.0035426
  23.0071041  14.4595495  15.0912963  23.4336239  14.8372027  14.2340863
  23.6728479  13.7408478  15.2503524  52.3216753  54.7502046  60.1095222
  52.6498500  55.5375017  60.5796905  51.5518235  55.1679967  59.6267857
  49.3440716  36.0221578  73.9648020  49.7216990  36.2117780  73.0853439
  49.9675857  35.3460228  74.2706518  51.2549823  29.4631704  85.1101273
  51.2740505  29.2547271  86.0651646  50.3617300  29.6945809  84.9417842
  11.1264326   8.4254838  25.8988324  11.9323665   8.9813199  25.8936303
  11.0607282   8.1389045  24.9376091  36.5277470   6.8471838  15.6149552
  37.1874220   7.2319037  16.2173498  36.0672232   7.6044210  15.2719421
  27.6927234  15.0819708  13.4389219  27.9824556  14.2751188  12.9484351
  27.3226696  15.6184506  12.6961584  36.1194359  43.6600650  80.5733336
  36.7180395  43.8970253  81.2895891  36.1324921  42.6909265  80.5271208
  45.6640528  29.4856926  70.6319205  46.3735717  29.8367628  70.1170078
  45.2189102  28.8110070  70.1111944  59.9960776  52.5998663  67.4413216
  60.8032509  53.0970168  67.1909227  59.4704106  52.5766893  66.6082942
  48.3779802  37.4886577  76.2404711  48.6062390  37.2921508  75.3160412
  48.9464771  36.7171487  76.6576197  55.9948767  42.5657113  75.1511456
  55.8588226  42.3743054  74.2056108  56.9624807  42.4537157  75.2215776
  49.6253610  51.5471115  56.5797335  50.5660151  51.6814288  56.5839721
  49.2973661  52.0041093  57.3184870  47.3874151  52.4953939  68.5073688
  46.5685266  52.0846517  68.9229825  48.0074501  51.7607822  68.6015195
  19.0893619  15.5943766  15.3060238  18.7587886  15.6829398  14.4137763
  18.2493014  15.8300767  15.8059482  30.7941808  13.5582357   9.8895964
  31.1870435  13.8588076  10.7184430  30.3899442  14.4187844   9.6461712
  52.0816465  54.2442913  68.7378762  52.4161033  55.0646775  68.3256752
  52.1429454  54.5739959  69.7088789  14.2630695  10.7242606  20.4883994
  14.2611943   9.7295544  20.6760019  13.4928040  10.9915981  21.1008341
  36.5456780  11.7548594   8.4774934  35.8342290  11.1094667   8.3578435
  36.6392363  11.7309181   9.4602477  26.0642798  15.6654073  20.5952230
  26.5262751  15.4271066  19.7450571  26.7794149  16.2776760  20.9680148
  40.9371717  34.8887524  71.6591974  41.4585463  35.1643142  72.4851532
  40.2753201  35.5781823  71.6654979  42.0884101  48.8748649  62.8999749
  41.3777061  48.8016887  63.5422726  42.4630309  47.9400457  62.9764630
  49.2465952  50.1987906  68.7686814  49.8766651  49.6587186  68.1932306
  49.9414311  50.8378129  69.0768994  50.5642567  43.8650893  71.9955241
  50.7430722  43.2777804  72.7380058  51.3752861  44.4062553  71.9934177
  40.7862082  59.8325290  69.0006001  40.4810119  59.2192183  69.6598266
  40.8526259  59.2891350  68.1732888  43.9083854  45.5483426  69.4664354
  44.1150452  44.7669589  70.0199598  44.5603051  46.2135142  69.7781079
  63.2704053  68.3353290  32.2118820  64.2418710  68.3567516  32.3865452
  62.9609651  68.9652458  32.9004917  16.5959383  19.0835221  13.2089231
  16.2961597  18.1256726  13.2808885  16.5977665  19.1682695  12.2165058
  44.6172795  40.8053383  72.5731310  45.5332610  40.8058326  72.6901171
  44.3881674  39.9935310  72.1057343  17.1666062   8.3321533  22.6549723
  18.0043815   7.9763743  22.2276018  17.0498303   9.1062748  22.0391814
  48.7363150  35.0392399  79.6799706  48.9098726  35.2849809  78.7678159
  49.4193257  35.5407593  80.1603680  45.5274201  40.5722209  79.0746204
  44.7284289  40.6486827  78.4765250  45.9317952  39.8361446  78.5253563
  21.2703192  23.4203205  11.6597782  20.4807947  22.8757331  11.9271666
  21.8971235  22.9346424  12.2601005  54.0001307  45.8540758  77.4673867
  53.4827020  45.2865611  78.0610929  54.6000137  46.2540304  78.1399224
  37.3728652  45.7947871  78.2100504  37.5997955  45.5483740  77.2990113
  38.3358895  45.9467008  78.5270760  51.1360300  62.3391636  59.0548195
  51.2041068  62.3062679  60.0253804  51.2052611  61.4645460  58.7850727
  40.4496015  42.4135414  73.9155604  39.5449713  42.4919384  74.3074192
  40.5915183  43.3112381  73.6093659  44.6856120  59.6670803  61.5363645
  44.0915062  59.0334020  61.0403388  44.0752325  60.0415958  62.2013109
  16.1965422  37.6939632  73.5855705  16.8442884  37.7887333  72.8473558
  15.5281223  38.3573985  73.3110426  47.9190053  48.3294277  76.5976924
  47.1203327  48.4475255  75.9993378  47.7060944  49.0806734  77.2188641
  54.0703063  52.6452134  68.0176352  53.8115853  52.4937356  67.1123068
  53.3735141  53.3311161  68.2568222  54.9713666  49.3047490  75.2667987
  55.7647755  49.6696064  74.8964271  55.2592733  49.1014966  76.1876504
  38.8827395  16.1703908  19.3997496  38.3923413  15.6277681  20.0766687
  39.7231226  16.3332548  19.8659858  33.3590058  42.1303257  81.3112365
  33.4581032  41.7836655  80.3979876  33.3947447  43.1126929  81.1447483
  32.1682377  11.3930948  16.2871534  32.9134153  10.7672134  16.5240137
  32.0942637  11.1101693  15.3177508  45.7430978  51.5524040  60.7647578
  45.3754081  52.3575266  61.2315319  44.9836674  50.9228048  60.8833271
  40.9942261  40.0538636  76.0774780  41.1838698  39.2209758  75.5731579
  41.7320658  40.6284069  75.7467817  28.1990158  21.3985842  17.2020502
  27.6805321  20.8339706  17.7930043  28.8488105  20.7034167  16.8849962
  44.0678802  51.3401481  75.3148349  44.7054339  50.6668930  75.1752908
  43.2697290  50.7065907  75.4780679  45.7288344  46.9405740  73.2261383
  45.6551249  46.3668367  74.0801758  46.7097579  46.8561659  73.1809048
  36.7417161  52.3099742  75.1447249  36.1170084  53.0964506  75.1315503
  37.5916328  52.7969238  75.2073862  36.3625336  49.4838617  68.7855728
  36.2685242  49.5495384  67.7788641  35.4039241  49.5491980  68.9830832
  34.9304787  45.7650636  83.1612141  35.5094575  46.5111154  82.7354728
  34.6977647  45.3295353  82.3303911  31.3421721   6.7299573  22.0790050
  31.4561980   7.3010542  21.3245689  31.5649385   7.3683825  22.7895694
  33.6837633  38.4894849  63.0925319  34.4662045  38.7343641  63.6771319
  33.0700334  38.4060022  63.8962658  47.7436288  41.3186884  75.5741858
  47.3151108  42.1860356  75.3535248  47.9206943  41.4422405  76.5175129
  29.1967579  -0.6035932  29.5525496  28.7315792  -1.1623946  28.9468241
  30.1144871  -0.8596041  29.3602756  51.2518848  48.0202048  73.5683869
  51.7794585  47.4999151  74.2384249  51.3454809  48.8788433  74.0290743
  44.5764779  53.7836936  76.3857015  44.4968088  52.8371243  76.0307740
  43.8146638  53.6190085  77.1229142  47.6558933  41.2524562  72.0696407
  47.7235963  42.0799294  72.5324903  48.2897816  40.6577550  72.4982044
  53.1617479  46.9409422  75.1704248  54.0435314  47.2559151  74.8921538
  53.3405236  46.5593938  76.0356246  42.4258084  34.7763329  69.2573831
  42.0680800  35.6592350  68.8756345  41.8096633  34.6517046  69.9891057
  48.7730049  43.7338905  68.5678584  48.2991430  43.9920444  69.3596435
  49.4226287  43.0813352  68.9155970  44.6505267  43.2675891  70.9494835
  44.7311365  42.4181405  71.4906213  43.6434576  43.3077957  70.9607285
  12.9166066  10.2249399  22.5735619  12.0926261   9.7388418  22.8633579
  13.5212607   9.6161232  23.1372769  40.0584570  40.2180574  72.5584336
  40.5310958  39.5046190  73.0928466  40.3294065  40.9791566  73.1460046
  32.8296002  13.7534493  16.9961544  31.9486976  14.0180185  17.3262498
  32.5919743  12.8602323  16.6635311  28.6065046  16.8024456  15.4050010
  29.5508759  17.0805375  15.1770838  28.4885372  16.0946092  14.6794062
  20.0883072   5.7964044  23.8629824  19.3308001   5.9262364  24.3720530
  19.9235998   6.3108713  23.0656969  50.2439899  42.0270605  69.8644696
  50.3050419  42.6053174  70.6487620  50.7822734  41.2609104  70.1365497
  43.6850522  41.1973619  75.1758238  43.5215713  40.9796559  74.2379000
  44.3378582  40.4319230  75.3717618  64.8758766  52.6130064  66.9974123
  63.9914899  52.5911810  66.6014855  64.6751463  52.7113070  67.9447486
  52.4129575  52.7161665  65.3796917  52.1352173  51.8485300  64.9787179
  51.5274037  53.1299375  65.5085846  69.1357048  70.3787731  36.2935462
  69.8679026  69.9203048  36.6928396  69.2886310  71.3096135  36.4333056
   9.1798831  10.3670656  25.2027239   9.9088664   9.7656460  25.5155705
   9.3061957  11.1145796  25.7946778  39.0291846  44.4714218  69.1183441
  39.7125246  43.8773841  68.7827691  38.8646312  44.0453255  69.9693669
  17.1989798  24.1524804   9.1988849  16.5350731  23.7695202   9.7662725
  16.8117596  25.0610444   9.0560210  44.1921560  46.0116227  81.8904769
  44.1578546  45.0792144  81.5992228  43.7476375  45.9354564  82.7557612
  51.0540625  59.8088232  63.6043764  51.2210645  60.7080707  63.2115644
  51.9748247  59.5697268  63.8103408  36.2041153  37.3458601  72.4132673
  36.4135070  36.9583073  71.5595155  36.6708563  38.1942132  72.3371950
  46.7925055  43.7066239  76.5463957  46.5024992  44.2928972  75.8204604
  47.4876595  44.2612529  76.9590172  36.8581768  29.8245487  65.0361144
  37.4192435  29.6940028  64.2494366  37.4629318  30.3397720  65.6152932
  27.1926682   5.3995410  16.1383644  26.9071595   5.8143017  15.3024537
  28.0055596   4.9460044  15.7774274  34.8733555  55.9888411  66.8153246
  33.9722792  56.3959623  66.8962143  34.7491003  55.1517028  67.2328033
  48.4264386  39.3664670  79.6813269  48.2499645  38.6686189  80.3260914
  49.1903875  38.9454513  79.2278683  53.9177617  54.9332920  64.8267163
  54.2941324  54.6170170  63.9695779  53.4179815  54.1114323  65.0113022
  29.1470514  15.6366354   9.3884548  28.9071325  15.9639755   8.4910304
  28.2742952  15.7690704   9.8280727  21.9176658   9.9239653  26.8079025
  21.6085080   9.1111875  26.3460652  21.2710847  10.5799920  26.4704394
  36.8915904  40.9917738  80.6839806  37.4155334  40.6326086  81.3785739
  36.8404540  40.1956511  80.1097795  38.5716828  54.3318186  74.8769788
  39.3218563  54.2030735  74.2638338  38.0240869  54.9536469  74.3495116
  39.8123974  36.3774161  77.1588967  40.6174649  36.7416868  77.5140997
  39.7710344  35.5055413  77.5830628  22.8986347  39.6801625  79.0641204
  22.4479391  38.9331626  79.5407621  23.7267245  39.6465600  79.6593134
  30.3766878  41.6786512  84.9716111  31.2182809  41.1682595  84.8515339
  30.5794350  42.4224239  84.3231759  31.8202501  45.0497738  71.2930189
  31.0405286  44.9375030  70.6481972  31.9948988  44.0914192  71.4263262
  37.6169492  48.8303684  71.0509347  36.7608087  48.3572521  71.3001737
  37.4257977  49.0527341  70.1339507  30.2599544  19.5969510  16.0671780
  30.5705571  18.9560078  15.4188001  30.0683940  18.9676618  16.8559221
  52.1875073  34.8464041  76.5592338  51.7682629  34.7199711  75.6579919
  53.0359682  34.4253310  76.3355852  15.9876968  12.9959523  22.7222583
  16.2327341  12.4055385  23.4439750  15.0196253  13.0754742  22.9075040
  60.6504906  48.7229325  67.2667913  60.3853350  48.6889969  66.2969078
  61.4966934  49.2034243  67.1709818  57.2750903  50.7872318  70.9103638
  57.7065667  50.6634749  69.9881358  56.3430571  50.7608365  70.5495669
  37.4480875  39.7503799  72.3122470  37.4397577  40.4263193  71.6138800
  38.3905503  39.8289296  72.6490317  26.7280499  20.8827211  14.0494423
  26.8200083  20.3092588  14.8031287  27.4954398  20.5936664  13.4728630
  55.7113421  57.4580086  69.6877247  56.4751950  56.9193674  69.7765107
  55.7347185  58.0081241  70.4859076  49.9697397  49.6275920  61.0314237
  49.6366067  50.2712815  60.3976183  49.2153207  49.3043455  61.4687235
  69.4926519  69.4090055  25.9743997  70.0526728  68.6115639  25.9743201
  69.6179580  69.6172096  26.9339867  36.4077762  25.9580552   3.0382294
  35.6424256  25.4121616   2.7621727  36.0009134  26.6713728   3.5536742
  50.8182022  48.4418427  67.7720769  50.2010901  48.1232085  67.0667057
  50.5539809  47.7414730  68.4293901  27.2920056  26.6474868   4.2885036
  27.8672348  25.8861114   4.3026795  27.6717836  27.2391286   4.9562825
  50.1789751  50.7843595  65.0045339  49.7462282  51.6067550  64.7945721
  49.4034110  50.4266755  65.5684992  51.5231268  62.0219811  61.7274180
  51.2935293  62.8431883  62.1486822  52.5300894  62.0540769  61.8338813
  24.8861594  20.8995534  10.2590537  24.9052387  19.9655974  10.5102971
  23.8555690  20.9801525  10.2112594  31.1348461  32.3769970   6.2470184
  31.8810741  33.0160685   6.3792300  30.3524540  32.9873821   6.5007164
  58.9409991  50.5223181  68.6241964  59.3479505  51.3408373  68.1282100
  59.6229686  49.8867142  68.2993661  32.7475042  24.6200359   7.1987043
  32.1349572  25.0503552   7.8530805  33.4380935  24.2793054   7.8452875
  29.8268898  17.1889006  11.6380704  29.8576430  17.6877649  10.8329568
  29.2655903  16.4399466  11.3358555  53.8709062  65.5552347  66.5340578
  54.0174757  64.9990926  65.7411633  53.6830729  64.8445266  67.1665768
  37.4034388  23.7838364   4.6183111  36.4515626  23.5875021   4.7801554
  37.3372597  24.5296513   3.9509146  31.1984458  27.7191514   6.5636412
  31.5703260  28.4518285   7.0634654  31.1844614  27.0362085   7.3047707
  26.7405453  18.4856092  16.0906324  27.3715490  17.7737115  15.7850446
  25.8946408  18.0295695  15.9690758  50.9288930  52.0200254  69.7555680
  51.3871595  52.6748210  69.1651770  51.3971038  52.3284573  70.5528044
  47.2209002  50.7815529  66.1103444  47.5678365  49.8765528  66.0102817
  46.3931321  50.7090665  65.5372951  30.3349294  -3.7634478  58.6221609
  31.0982204  -4.2905582  58.9741623  29.6890626  -3.9769984  59.3249273
  17.8378984  70.3317721  54.4710043  17.0913968  70.8025589  54.1456885
  17.4797466  69.8053627  55.2168258  76.2448961  68.3114215  51.1210856
  75.9730468  67.6973445  51.8512300  77.2630595  68.1109959  51.1486193
  36.1979768  14.1885256  60.8164598  37.1394419  14.2326031  60.5049378
  36.1279324  15.0612846  61.1925080  29.9727699   0.0291871  53.0159597
  29.0271750  -0.0987496  52.6445452  29.9241440   0.9987867  53.0508164
  32.1309643   5.9298653  58.4977254  32.0853041   5.4060921  59.3365702
  31.5125040   6.6519942  58.7208633  45.2218946   2.1098708  41.4268311
  44.7538122   1.2943564  41.3461606  46.1446666   1.7939972  41.4958185
  41.0584837   1.2554431  60.2620136  40.5037261   1.5706058  59.5579620
  41.4877107   2.1021525  60.5886568  57.4219156  36.0154264  -1.1735817
  56.5897292  35.7438112  -0.7576088  57.9498599  35.2011851  -1.0836584
  55.7526170  44.5112064   0.9498839  54.7614256  44.4806277   0.9449345
  55.9349002  43.5329655   1.0040756  34.1736126  -2.9569402  55.4597009
  33.6786302  -3.5119482  54.8286886  35.0122577  -3.4349926  55.5409400
  32.1522053   0.8250228  54.6730452  31.5421090   0.4466270  54.0678988
  31.7308267   0.6502761  55.5349045  33.7194606  13.4477790  61.7200148
  33.2823395  12.9273747  60.9854526  34.5432538  13.7207464  61.2153719
  36.6411321  10.0670532  52.2507635  35.8121611  10.4916722  52.6474277
  36.5600271   9.2277714  52.7424349  26.5319236   6.6985705  45.8599759
  27.5020352   6.4348152  45.9206852  26.1424024   5.7832227  46.0037481
  25.6839405  -4.0927816  55.1789654  26.0958683  -3.5461560  55.8687998
  25.3247539  -4.8673787  55.5888414  30.5238407  -2.8136591  35.6498591
  31.3684494  -2.5611786  35.9993573  30.2898251  -3.6131865  36.1731673
  58.2618666  31.6575574  -4.3709884  58.1525240  30.6770940  -4.3976612
  59.0715665  31.7186533  -4.9315806  66.9806121  46.5111286   8.6302863
  67.3135370  47.4266657   8.7407739  67.5546323  46.0725685   9.3479460
  36.0905087  -1.2728050  50.9348287  36.8071189  -0.6009504  50.7172731
  35.5440524  -0.6925969  51.4990157  60.4841605  48.8217989   5.5901427
  61.3518877  48.7056878   6.0065855  60.5907283  48.7011826   4.6867713
  36.3304769   6.5160587  58.4279682  36.3742969   6.8844539  59.3154136
  35.4105689   6.7530144  58.1690821  42.3163266  17.4809616  68.0797896
  42.4211633  17.6240846  67.1231972  41.3790805  17.1699867  68.0961567
  35.3828540  17.3805850  54.9715456  35.2677243  18.0155290  54.2037215
  36.3791534  17.4260076  55.0181425  55.5480481  47.6981481   6.9649090
  55.1867356  48.4734233   7.4838228  56.4695453  47.9569750   6.8829650
  56.2805013  41.8522753   1.2830739  55.2775425  41.6961402   1.3117953
  56.5298790  40.9715792   1.3973931  19.4703390  69.7624217  57.9224908
  18.9674726  68.9576379  58.1206992  18.7066424  70.3347918  57.9393213
  46.6098413   5.0276185  63.7935210  47.4486804   4.8295812  64.1971115
  46.5709015   6.0017582  63.8067669  50.0846241   9.0652103  63.8666388
  50.3775920   9.9957565  63.8428066  50.0420720   8.9431360  62.8644348
  38.7751847   8.4397068  54.4332367  38.9751217   8.1504831  53.5186392
  39.0573571   7.6011398  54.9216409  57.3844624  42.2603207   4.0620837
  56.7228801  42.1899978   3.3727534  57.9532255  42.8998542   3.6168298
  40.1408822  -2.0641539  50.5986187  40.5021550  -1.2183169  50.8241613
  40.9332981  -2.6347997  50.7236403  65.6559260  42.7346210   5.3502654
  65.3309105  42.5672313   6.2721903  64.7132823  42.8606441   4.9518521
  36.1471953  16.7849292  61.6628156  37.0072241  17.0310435  62.0322783
  35.5461143  16.9599250  62.4665706  45.4846781  11.7745996  57.7537201
  46.0517638  12.5205069  58.1287110  45.3516645  11.2345423  58.5577779
  35.4521092  -0.5164644  55.9606744  35.0759018  -1.3325490  55.7262853
  34.9470044  -0.2397908  56.7411329  42.6904415  45.5701772   4.9602292
  42.0989510  46.2639950   5.4122443  42.1748317  45.4686252   4.1342340
  45.4997349  20.8851294  67.4100597  45.6732570  20.0297810  67.0697803
  44.5113851  20.9637480  67.1490560  41.9931896  11.6898017  66.2510732
  41.3300621  11.2293235  65.6662141  42.2372533  10.9629248  66.8423635
  48.6670282  21.5739255  66.1868342  48.9870454  22.4577138  66.0849549
  49.4444752  21.1699068  66.6526897  44.1703767   5.9305452  58.9687187
  44.5669964   6.7203371  58.5323663  44.9296672   5.5124737  59.3934370
  62.1541956  47.1662736   7.2926700  62.7919253  46.4412506   7.1429550
  62.7398133  47.8182068   7.7890100  47.2819139  10.7310019  62.4320204
  47.8503932  10.1031492  61.9235559  46.9569956  10.1282191  63.1025512
  60.0309946  47.4015760   9.5069260  60.7147107  47.2299378   8.8645451
  60.4402705  47.1590948  10.3777055  34.7603230   5.5978476  55.2128905
  33.9657100   5.3421917  54.6902577  34.3464218   6.0813808  55.9485683
  52.0785083  19.8826724  62.9116866  52.9188711  19.6225376  62.4363926
  52.4459734  20.4112319  63.6213895  63.8060816  49.5895581   9.2760431
  64.2371400  49.7495554   8.4030338  63.7978208  48.5973687   9.3032780
  26.9689582   9.7393558  64.5337957  27.3118656   9.6898657  65.4883987
  27.3047476   8.9024703  64.1801401  47.2272813   6.0232802  68.3553319
  47.4677957   5.1447768  68.6711920  46.2575566   5.8793067  68.1214511
  33.7551031   6.5286898  66.2537102  33.6985941   7.0127163  65.4062081
  33.0361433   6.9614198  66.7412143  27.7876530  22.4420306  66.0851678
  27.4181298  22.6675414  66.9774514  28.0757972  21.5080616  66.2805941
  38.1188813  25.2977527  59.9633328  38.4867389  26.1934258  59.7580075
  37.3556591  25.2919144  59.4252018  48.3825276  41.2097963   1.7544370
  48.7801664  40.3628482   1.6972054  48.1549721  41.3123821   2.6787678
  69.3682400  57.9614242  17.6349577  69.3755773  57.8375458  16.6503511
  70.0368338  57.3455645  17.8769630  33.5212051   2.7356421  55.9681803
  33.0003321   1.9049901  55.7731106  34.2628836   2.5514557  55.3122163
  54.6622279  30.0500265  -3.9553255  54.5008631  29.5210602  -3.1400113
  53.9266012  29.9323078  -4.4810301  40.8059079   5.8085310  58.5525723
  40.0956322   5.3427868  58.9682473  40.9401824   5.3004523  57.7354674
  53.7916473  13.9072412  72.3418057  53.8042513  14.8858229  72.0645585
  52.7965747  13.8272094  72.4252207  27.5239772  64.3658803  51.9481897
  27.1804164  64.3891324  52.8432793  26.9134515  64.9754090  51.4935622
  44.1778115  22.1661161  60.9471834  43.6318279  22.0839466  60.1390920
  44.7430369  21.3548011  60.8589244  22.7191364  74.9358701  56.8731940
  22.2143599  74.9455824  55.9828355  23.5271743  75.4091830  56.5943977
  60.2607261  38.8149866   2.3755312  60.2499386  39.6024406   2.9687066
  61.1778463  38.8637470   2.0932214  51.3020694  19.8474246  72.3400988
  51.0358497  18.9467561  72.6228284  51.3256022  19.7524814  71.3747037
  31.0916864   0.6935126  57.0523741  30.7389491  -0.1920175  57.4976954
  31.4336628   0.9968366  57.9412317  38.7724681   3.1129675  55.2080890
  39.6428644   3.3834566  55.5056019  38.2020297   3.8254124  55.5261938
  37.0983075  13.3574374  49.5636451  37.3785785  13.7087775  50.4536627
  37.3540510  14.0600919  48.9697178  37.6276249  11.7964008  58.4610406
  38.4223982  12.0967431  59.0264479  38.1438783  11.1374893  57.8659384
  27.1138778  13.9055035  59.8928451  26.2833707  13.9992401  59.3328403
  27.3449685  14.8811388  60.0071357  36.6314385  16.8555831  68.2031445
  36.7597036  15.9899416  68.6860786  36.7407241  16.6056705  67.2812909
  45.0859392  19.5551358  59.6217130  44.8279786  18.6131375  59.6834998
  45.5333298  19.5732367  58.7384661  41.6229189   4.2879672  66.3789385
  41.2129747   4.8771150  65.7250383  41.6145550   4.8693594  67.1641622
  38.5386053  17.7554897  62.7438777  39.3534176  17.2083983  62.8095669
  38.4635147  18.0738461  63.6671606  73.3176273  39.4125875  11.4043609
  73.7493279  40.2176713  11.0570654  72.7616460  39.8058700  12.1024488
  32.0490388  10.5994513  63.7790196  31.8613345  11.2344877  64.4130670
  31.2093758  10.5921850  63.2353900  34.5392741  20.1109386  64.9143861
  33.7910581  20.5393053  65.3839483  35.2797069  20.2408080  65.4440025
  35.8588930  13.8114210  57.9827905  36.1152501  12.8421638  58.0629309
  36.0359895  14.1089225  58.9094593  50.5161248  39.5985226  -3.6171871
  50.5446697  38.7331355  -3.1845207  50.3561496  40.1315721  -2.7753941
  41.1839183   8.9335586  63.2009842  41.8188491   9.6022539  62.9762508
  40.5897469   9.4484809  63.8109820  43.1893666  17.3657138  61.5620327
  43.8992633  17.7191328  62.1569195  43.7002560  17.0061901  60.8451297
  46.9580231   9.9193894  52.4727016  46.8745537   9.7722013  51.5009768
  46.5341048   9.0747433  52.7531910  40.1376056  11.9070599  59.6177519
  39.9058676  10.9770153  59.8425619  41.0485451  11.9235707  60.0091807
  75.7900476  39.5363633   8.2844026  76.7194734  39.7768870   8.1925422
  75.8250247  38.8050038   8.9466322  44.1449344  13.5385256  66.6161612
  44.0395009  13.6081085  67.5977251  43.5558349  12.8013124  66.4532531
  19.5937967   5.2927299  47.5940449  19.3360519   5.9286381  48.2710415
  20.3173316   5.7368389  47.1303169  55.4414665  11.9261301  70.9992595
  54.6861285  11.8244242  70.4130237  54.9531442  12.4074894  71.7528518
  32.1728921  12.9812764  67.0836602  32.2868297  13.8197640  66.7026199
  32.2664081  13.0983180  68.0158677  54.3502722  53.7931082   8.8376850
  54.5369356  53.0198547   9.4171964  53.5528587  54.1331241   9.2917287
  43.5882016  18.5133433  75.7433088  44.3645878  18.2917299  76.3336905
  43.9865771  18.2638297  74.8924932  52.1137343  12.4402289  48.3397518
  52.4259054  12.1309306  47.4363945  52.3879690  11.7015181  48.8876642
  53.1508803  23.0739375  76.2070913  52.2448464  22.8270853  76.4094501
  53.1393359  24.0533078  76.2824097  29.5948493  19.9752963  60.0257339
  29.4078348  19.4495002  60.8235523  30.4851032  19.5806422  59.6979577
  14.9374827  64.9215356  56.5724946  14.8262968  64.7789718  57.4741446
  14.7931007  65.9048498  56.4189532  47.4553605  19.9372515  64.5745023
  47.9169751  20.5387428  65.1893898  48.2326075  19.3957050  64.2666796
  45.0655546  45.1854149   3.6619036  44.3901550  45.2340640   4.3488915
  44.9691569  44.2455930   3.3880394  43.0985254  21.1506711  66.4850777
  42.4549469  20.4216841  66.5720470  43.0849183  21.2824616  65.4930364
  33.6962490  27.9524806  70.1510185  33.0358875  28.1694175  70.8854345
  34.4021106  28.6302670  70.3465470  43.0925015   9.2019032  57.5220412
  43.9347908   8.7711787  57.7709084  43.2249156  10.0691466  57.8500408
  43.4848771  10.1098217  68.3097144  43.0955316   9.6166207  69.0413769
  43.7296770   9.4062551  67.6746162  35.6769937  16.3239678  71.2921489
  36.2798938  17.0545799  71.5925382  36.2917229  15.9203844  70.6081236
  35.9082410  10.9900799  49.5623500  36.2556087  10.6541374  50.4446172
  36.4158538  11.8331095  49.5589105  35.7361924  10.5336019  59.8415580
  36.0560002  10.5489396  60.7425747  36.3027011  11.1102877  59.3690499
  47.4547576  17.5873276  60.8969903  46.4786870  17.7608837  60.9785893
  47.7318748  18.5493365  60.8926524  56.8741877  60.6138408  10.8398758
  56.6739481  61.4987866  11.2434893  56.2875466  60.0679463  11.4158249
  48.1114615  12.4017993  52.2418013  48.6588624  12.0697787  51.5113240
  47.7127180  11.5347836  52.5190360  72.9951350  32.6974106  14.4520889
  72.6113623  31.8828450  13.9703644  73.1488328  33.2508446  13.6526578
  43.1987945  21.4450724  63.9610993  43.2382318  22.2696257  63.4248582
  42.7841256  20.8408455  63.3158050  28.4450215  20.0262326  67.2105758
  28.4836902  19.1618270  66.7653437  29.3250786  20.0429276  67.5848751
  37.5049434  26.0408477  69.8670158  37.4649980  26.5862514  69.0490851
  38.4381468  26.0542939  70.0729897  48.0010187  21.9422346  72.4494802
  47.1161963  22.2322583  72.0656597  47.6420103  21.3038044  73.1063926
  52.3316004  40.0738884  -0.1929427  51.9324020  40.4653516   0.6583071
  52.2388620  40.9120918  -0.7257130  72.5740330  53.1776095  13.8721744
  71.9316184  53.2010764  14.5779771  72.3754357  54.0452046  13.4246269
  46.8839710  15.7633144  67.5834648  46.3717951  16.0798401  68.3772207
  47.1486452  16.6531239  67.2406445  53.2736994  43.6764832   0.6178839
  53.3016986  42.8519577   1.2676732  52.8412978  43.2393296  -0.1048877
  39.3106959  12.7203810  55.1700183  38.9037694  12.0180402  55.7228766
  38.8123284  13.4918830  55.5509384  50.6994353  45.4159756   0.8935639
  51.4162021  44.7577562   0.9186940  51.2144793  46.2736948   0.6573938
  38.9906739  14.8694470  65.0953478  38.1098496  15.1354794  65.4533907
  39.3930091  15.7336531  65.0091654  38.0699495  13.4368833  52.4992469
  37.1978221  13.7202783  52.7840254  38.2727289  12.7477458  53.2177202
  58.1556649  28.9569647  -0.9036131  57.4757966  29.5489063  -0.5830006
  57.6465033  28.1786806  -1.1213993  48.1530811   2.3886134  66.9670387
  47.4068826   1.7991234  67.1121754  47.9964790   3.0351743  67.7583795
  45.7997837  18.4459016  77.5399751  46.3899061  19.1971731  77.4022205
  45.3337782  18.7410847  78.3632320  51.5658147   7.6747758  69.1250821
  51.1663383   6.9875043  69.7340942  52.1516529   8.1138334  69.7977626
  56.8741400  45.4007613  12.6188046  57.3407395  44.9819459  13.3582346
  57.4390250  45.2091596  11.8783869  52.4246565  52.0164786   4.0343088
  53.1741845  51.4576263   3.6914598  52.7100964  51.9634505   4.9665008
  30.0421224  11.4792684  65.8801723  29.5730648  12.2678630  65.6386467
  30.8757415  11.8787769  66.1705405  66.1889903  46.0784590   5.8628183
  65.4343514  45.5932970   6.2309267  66.8247539  46.0529806   6.5863436
  27.7530858  12.5330214  62.1301604  26.8296449  12.5493689  62.4559135
  27.6668968  13.1235713  61.3439946  51.0726246  20.8839886  67.1487040
  51.6925164  21.5228696  66.6586830  51.3461927  20.0236594  66.7082117
  51.3925604  21.1570394  75.1402823  52.0190716  20.7558910  74.5591134
  50.8146408  20.3935420  75.3977793  37.4330186  16.0661440  46.2523342
  36.6137461  16.0391238  46.8079262  37.9215958  16.7568689  46.7365082
  48.3601176  16.0368518  72.7150355  48.4102683  15.5296279  73.5284620
  47.5653343  15.7265027  72.2660503  50.5259912  22.5125741  71.5337420
  51.0190741  21.8019518  72.0975712  49.6357067  21.9913402  71.6536156
  66.9504265  44.6096000  10.9101388  67.3986150  44.5971625  11.7980552
  66.4070359  45.4233395  10.9977310  33.7498458   7.4610106  57.0301793
  33.9468406   8.1973929  57.6729182  33.0532958   7.0155181  57.5732985
  39.8812502  35.3341776  -6.5684554  39.6671810  36.2221166  -6.9922828
  39.1203587  34.8054827  -6.9654326  37.9006513  14.6961853  56.5447515
  37.1027943  14.4640747  57.0789968  38.3671054  15.1950033  57.3062200
  24.1877563  74.4276318  65.5694036  24.2299480  73.6008779  65.0503446
  23.3134921  74.6881335  65.2451927  29.8707801  20.1079139  55.9230211
  29.2497047  20.5285124  56.5946267  29.1333597  19.8718624  55.2578207
  36.8987338  10.8023607  62.4772505  37.7738883  10.5916929  62.0699397
  37.2096536  11.6473706  62.9487906  61.7801660  31.7353427   3.1463749
  62.0368075  32.3612400   3.8584037  62.6395322  31.5683912   2.7247747
  52.9921418   9.0858815  70.7880899  52.9373469   9.3088972  71.7516596
  52.8874953  10.0385133  70.4757703  43.5408276  14.6174040  69.5247057
  42.9240756  15.0688333  68.8855214  43.3886428  15.0772445  70.3538619
  29.8417002   7.9588617  53.2326897  30.5534555   7.8993827  53.9227243
  29.6383824   8.9288585  53.3123663  19.6829779  55.0305201  57.6524356
  19.6850726  55.4916727  58.5164469  18.7602745  55.2571821  57.3768338
  12.0772153  69.3491123  61.9055247  12.5032614  68.5442426  62.2485907
  12.7856430  69.6947946  61.3040276  73.9353348  64.1653216  46.0959110
  73.7174428  65.0464355  45.7314499  74.3993206  63.7563997  45.3291264
  71.0792111  39.8073226   7.3029173  71.9845216  40.0200833   7.0759055
  71.2239517  39.5380758   8.2580323  40.0163460  18.6889897  73.1858663
  40.9533909  18.4507838  73.0199088  39.9524394  18.1958796  74.0527940
  30.4555660   9.7562821  56.8022970  31.1799407  10.4001894  56.8472699
  29.7876363  10.3829151  56.4034716  45.5760041   8.2830780  58.3775498
  45.7830015   8.6793551  59.2282485  46.4691748   8.0499904  58.0442280
  42.6461684   6.4165362  63.9306723  41.7892657   6.5842332  64.3047830
  43.0447121   7.2938684  63.9468770  47.0269460   4.0689512  49.7496471
  47.8906519   3.8609500  50.1639863  46.4558486   4.0839842  50.5639493
  36.4163615  19.7144372  58.0791624  36.0770582  19.3135967  58.8640456
  37.2214583  19.1866262  57.8724330  43.2719646   8.0918777  60.8481415
  42.5190406   8.1727344  61.4149487  42.9894531   7.5844485  60.0603638
  41.2475124   4.3736799  55.8650570  41.7703748   4.8879454  55.2102866
  41.7156059   3.4739837  55.6978862  46.7835359  14.0796472  58.5210474
  47.2790622  14.3899144  57.7472573  47.4380700  14.2946840  59.2294745
  36.3320654  15.1876630  65.6796541  35.3456051  15.2840238  65.8851712
  36.3743945  14.2289767  65.7149636  38.5289783   3.5402446  51.8099059
  38.0524080   3.5677102  52.6655224  38.2161320   4.4003782  51.4349737
  51.2074831  35.0551473  -1.8258672  52.1671491  35.0821639  -2.0123264
  51.0703436  35.9709066  -1.4837861  35.9643257  20.9579414  74.3963625
  36.7616223  20.6679532  74.8624926  35.9162662  21.8760711  74.5116077
  63.8908246  61.0476623  14.2465608  63.5043676  61.9019342  14.4527355
  63.0199373  60.5927482  13.9841942  10.7137314  69.2099645  50.4801224
  11.0786216  69.8943043  51.0674438  10.7904749  68.4181272  51.0483348
  46.4508728  35.3539904  75.5913126  46.9270622  36.0712519  75.9787089
  47.0883367  34.6180229  75.6517355  48.6408013  24.5659442  65.4380795
  48.9042578  25.3563070  66.0179019  47.7139499  24.5314137  65.7424112
  44.0682306  33.0264871  70.9320960  44.1992755  32.4692819  71.7474032
  44.3711282  32.4423510  70.2521640  36.6233954  33.4127551  69.7590308
  36.3551519  34.0960869  69.0779248  37.1128201  33.8972794  70.3493870
  39.9236718  22.8013378  71.2717790  39.5719012  22.4879178  70.4908792
  39.1865853  22.9188763  71.9111914  48.3642772  27.8702235  70.1532374
  48.0950866  27.0890985  69.6601857  48.2506943  27.5389584  71.0716476
  47.7650519  18.1797132  67.0539436  48.4771911  18.7156700  66.9097433
  47.1134508  18.4913592  66.3674598  46.1350231  23.6680591  66.2148688
  45.8047713  24.1434328  67.0191205  45.8003979  22.8040725  66.3621272
  48.8430879  26.7667534  72.6746556  48.6761860  25.8078729  72.9768244
  49.5978065  26.9445340  73.2716783  58.2015369  20.8477248  68.7082686
  59.1012133  20.5451014  69.0720338  57.9665490  20.0414518  68.1435077
  40.7174009  23.1526942  66.0873153  40.1513955  23.1350865  65.2746935
  41.5775605  23.1469162  65.6097786  44.1850367  14.3866574  61.9473597
  44.9480100  13.7788507  62.2082608  43.4986454  13.9857153  62.4883681
  55.7539471  17.7573175  65.2942919  54.8064624  17.5503958  64.9830384
  56.1457212  18.0527328  64.4249417  49.6479199  35.3779254  77.1822514
  50.6241971  35.2384805  77.0102825  49.3130365  34.5683915  76.7666313
  52.1049300  27.3740644  73.1210587  52.9580012  26.9928066  72.8973079
  51.9297103  27.1212581  74.0358716  55.3004385  21.8309792  71.5095137
  54.5919957  21.6469582  72.1521066  54.6936816  21.8123440  70.6777426
   2.4111074  44.2002688  14.0312080   2.1792146  43.2948517  13.7909745
   3.3801862  44.1166852  14.1088326  71.3627951  42.6988355  19.7142130
  71.5526803  42.2907299  20.5549093  71.2427033  43.6473891  20.0032832
  52.1431572  14.9346536  76.8655513  52.5522796  14.4137003  77.6264059
  51.7933660  15.7104427  77.4111607  67.0517364  58.9680485  14.7470001
  67.0810473  59.2197190  13.7738812  67.6080822  58.1467097  14.6404480
  39.6646008  17.2224712  68.8217812  38.9088403  17.0723393  68.2255653
  39.4838909  18.1396147  69.0675715  36.6008137  14.3380238  69.4521469
  37.0996725  13.7312206  70.1701587  36.6358536  13.6916012  68.7280550
  52.4818328  32.1594837  65.9048855  51.5670017  32.0433210  66.2452995
  52.9535898  31.5813505  66.5304610  42.1121987  22.8436335  58.8934605
  42.9756731  23.0513230  58.5417809  41.8180362  22.1095208  58.4047023
  51.2059747  29.1414546  68.2763576  51.0486838  29.3075089  69.2457460
  51.9784909  29.6489265  68.0929702  50.5333854  26.5803825  67.4200721
  49.8436977  26.4002912  68.0361267  50.8339920  27.4460675  67.6776995
  66.8130492  27.1206819  68.5587786  66.0445709  26.5057067  68.6987416
  67.0583872  26.9457358  67.6184322  45.3142028  17.7891147  73.7999911
  45.2637543  17.5977494  72.8550142  45.7249832  16.9626088  74.1425688
  57.6135527  60.8527006  17.5274805  58.4282028  60.7365492  16.8926474
  56.9445993  60.3181002  17.0483163  55.2453608  30.8999957  73.0713311
  56.0074705  31.4040995  72.6479625  54.8919486  30.4472307  72.2757540
  46.0969734  35.1177217  78.7766929  46.9577003  35.2665993  79.1434552
  46.1055603  34.1268869  78.6364482  42.5448698  22.9887457  72.1554999
  41.6122005  23.0544173  71.8302143  42.8533209  22.4353962  71.3794649
   0.1209692  53.7661124  15.4341198   0.5604676  52.9187579  15.4594967
   0.0190861  53.9734732  16.4031920  18.9848342  20.3370866  65.4470071
  19.5666647  20.9022367  64.8292517  19.6824944  20.0105440  66.0243022
  46.3475052  15.6126206  63.2570100  46.5059093  15.0937686  62.4508901
  47.1959923  15.4828481  63.7537333  46.1656145   5.0322514  60.8753633
  46.1000426   4.9661251  61.8269799  45.7366286   4.1497613  60.7260430
  61.4742719  26.6722442  73.3577415  60.6532108  26.4778553  72.8262759
  62.1561329  26.3498618  72.7007518  32.6382716  11.9309092  59.4722148
  31.7008598  12.1881410  59.3485288  32.9367407  11.9200559  58.5330645
  60.8685994  17.4284710  69.5812262  61.6048428  18.0545816  69.7657780
  60.1388079  18.0206370  69.8645442  43.5000326  24.5419443  65.1760661
  44.2427000  23.9564492  65.1229870  43.7831301  25.2851434  64.5941100
  61.0299907  27.9903914  68.9109331  61.7349429  28.3068344  68.3146371
  61.3670916  28.2392987  69.7863482  50.8541855  13.4019189  64.8894624
  51.1889039  14.2221584  64.4756657  49.9207673  13.7505081  65.0859765
  45.0178438  16.7568716  59.7017542  45.8488033  16.4277025  60.0529952
  44.9795074  16.2819161  58.8386610  61.6138220  14.8471655  69.7915160
  62.1299829  15.0735771  70.5748642  61.1597763  15.6903698  69.6045165
  42.0913418  28.0532766  63.6538596  41.3710253  28.5821852  63.2190385
  42.1270679  28.5694829  64.4835368  42.3065863  12.6433045  57.3285409
  42.9285787  13.2649015  57.8288232  41.5770165  12.6246693  58.0244714
  47.7526908  23.2652909  79.4459354  48.0703190  23.5113758  80.3464282
  48.3990899  22.5272602  79.2879438  53.1257606  22.9037563  61.6223599
  53.2694568  22.2111285  60.9629239  52.1804229  22.7544832  61.8053609
  47.5005500  24.4726832  76.9008226  48.1312979  23.9437468  76.4127620
  47.5652789  24.0817647  77.8282981  51.1556397  28.9148356  71.0702383
  50.2629719  28.4894444  70.8758092  51.4807715  28.2433351  71.7299770
  40.1145825  25.9427470  66.7252248  40.2096937  25.0188357  66.5899982
  40.9618360  26.2177178  67.1558825  49.9711477  30.7783731  73.0524196
  49.9068910  31.6995707  72.7399340  50.6198789  30.3809746  72.3792592
  44.0640618  35.3747021  72.0014536  44.0601390  34.5082658  71.5693991
  43.4153076  35.1764993  72.7043777  47.3294375  12.0263383  72.8383201
  46.4806965  12.0136742  73.2704095  47.3296805  11.1827003  72.3557152
  54.2096611  26.4430238  79.4909897  53.9771235  25.4936203  79.5632129
  54.1852238  26.6515953  80.4891515  45.6964843  22.3218474  70.9746757
  45.7329667  23.1872192  71.3772823  44.8443678  22.4012761  70.4498118
  59.3739674  28.7326085  79.1583905  59.1730998  28.9003624  78.2282156
  58.6606096  28.1248912  79.3612457  33.8834347  27.3501356  77.4620738
  33.4560594  28.1508802  77.8787167  33.8628702  26.7744092  78.2750464
  42.9370391  15.7651840  72.4492249  43.7681568  15.3466472  72.3509645
  43.1566862  16.7056578  72.3293457  59.8998938  20.5542417  63.6146663
  59.3426710  19.9781758  64.1377922  60.3992057  21.0083926  64.3099900
  29.8422952  28.7062355  74.6124712  29.8461708  28.4014561  73.6976523
  29.4903329  29.6266533  74.5145775  38.1594771   4.7906754  65.6810391
  37.1556740   4.8480859  65.8513559  38.4470391   4.2797759  66.4394212
  42.1775939  29.1235799  66.5156489  42.5892448  28.2631011  66.6336384
  41.5393498  29.1881327  67.2421116  72.2420637  47.4086547  16.4483336
  72.1017440  47.9914652  17.2710602  73.1387511  47.7029615  16.2106890
  44.0572900  23.1272465  74.6038648  43.3676183  23.0951045  73.8679711
  44.8316840  23.2952312  74.0393208  43.4047899  28.7647976  73.9735850
  44.0035085  28.7579146  73.1380815  43.4649594  27.8007825  74.1195161
  49.5482687  22.5966499  76.4333779  50.2227827  22.1019227  75.9000164
  49.0048046  21.8226691  76.7041930  58.5150617  24.3969274  75.8436422
  58.1307492  23.4613934  75.7894801  59.2824230  24.2715453  75.2278809
  47.2447558  33.9055255  72.7027801  46.9017907  34.7900752  72.9632336
  46.4988848  33.3264495  72.9971093  41.9403762  19.5833895  62.4833834
  41.1475958  19.9946153  62.1600491  42.1703230  18.9604902  61.7642506
  47.5034255  21.6546767  69.0315082  46.9010495  21.4033644  68.2662656
  46.8087105  21.8284200  69.7133517  42.4636626  19.8203234  69.6306567
  41.4868773  19.9480702  69.6912131  42.4209232  18.9562109  69.1051175
  40.8811719  22.2061683  76.5733248  40.5514591  21.8606162  75.6983543
  40.5369195  23.1183186  76.5423514  48.2046754  14.4484239  65.3598769
  47.7334900  13.6209059  65.0472819  47.5490043  14.7216340  66.0746855
  36.9373084  21.6207854  66.0240367  36.8758581  22.4276333  65.4714995
  36.1541487  21.7905925  66.6223712  37.8893630  27.5035360  67.5981371
  38.5535282  26.9186391  67.1480591  37.1961798  27.4840370  66.9573024
  35.1060506  29.7653033  61.4306643  36.0019296  29.4975872  61.0287334
  35.0051535  28.9812894  62.0344833  34.6419414  19.7653690  70.1907807
  34.5018355  19.0830645  69.4453567  35.6026180  19.7011698  70.1859799
  43.5371657  25.8179623  71.7248152  44.0730320  25.7864132  72.5014317
  42.8751414  25.1298438  71.8625913  65.1614774  51.7887590   9.9864109
  64.8953864  50.9251526   9.7633563  65.7777287  52.0586929   9.2600816
  56.3342746  40.1700249  76.9773727  56.2822577  40.9278760  76.4127464
  56.3368543  39.4110377  76.4213432  58.7389034  23.2897773  71.6760720
  59.6876618  23.1847054  71.4024179  58.4981871  22.3108272  71.6966192
  43.2071126  22.2395907  69.7169871  43.0900942  22.6730359  68.8154598
  42.9865496  21.2989295  69.5236472  48.3923073  14.1885812  75.3036847
  49.1035656  13.5070328  75.4312238  48.1874090  14.2829352  76.2709509
  50.0980212  31.9647746  69.7814786  50.1483804  31.9394750  68.8174722
  51.0754333  32.1466187  70.0166077  53.8005211  21.1607810  59.5741777
  53.5587345  20.9707260  58.6243766  54.7983288  21.2577646  59.5090320
  45.5858409  17.6453747  69.3499502  44.8284338  18.2356309  69.0519465
  46.2780637  18.3505307  69.4077315  45.7965948  20.6139692  73.6497504
  45.5990355  19.6949844  73.7019806  44.8735437  21.0163968  73.5134693
  66.3242683  18.4203577  67.0985646  66.6405313  18.1057335  66.1686915
  65.5986549  17.8056448  67.1991703  50.7609271  17.2476998  72.9178480
  49.7967165  17.0800669  72.8084302  51.0854946  16.3272902  72.9618908
  47.9691048  16.5312651  56.8617380  48.4567669  16.4540186  57.7312136
  48.7557210  16.7609670  56.2662853  65.3455290  28.1799117  74.1914471
  65.4551907  28.6505696  73.3443328  64.3713283  28.3679726  74.3517038
   7.0286875  53.9861228  12.2933246   6.1061235  53.9947753  12.0159647
   7.1409309  54.8460140  12.7407064  59.7167489  25.6107150  69.1472934
  60.0959708  26.4739312  69.0807375  58.7841651  25.7420733  69.3800207
  54.2343285  13.3671682  57.7183381  54.5668968  14.0727890  58.3328041
  54.4883068  13.7692351  56.8514711  47.0346442  33.0742966  65.2281094
  46.1764525  33.1370599  64.8450366  47.2173353  32.1388303  65.1299023
  31.1683617  19.5631754  67.9361957  30.9815063  19.7869262  68.8662090
  31.9001364  18.9366789  68.0481760  34.7672871  25.9452466  60.3591006
  34.4014071  25.1107268  60.7167377  35.1648951  25.6264962  59.5531688
  55.0256132  24.3714172  67.7479199  55.5352776  23.8421927  68.4116949
  54.1385561  24.0102233  67.7985676  51.8187273  16.6190990  67.9381558
  52.3237643  15.8233010  67.7274650  51.1201254  16.2525885  68.5110602
  39.4247511  28.6977016  74.2756589  40.2650821  28.8603972  74.8740749
  39.9383046  28.4849385  73.4444801  39.1081659  27.3430508  63.9260247
  39.4399993  26.7684935  63.2395196  39.6901572  27.0934799  64.6669945
  45.7432330  13.9267821  55.0477734  45.0717143  13.2096195  55.1997675
  45.2699535  14.4171652  54.3265529  75.2830341  37.6096403  12.2715152
  74.6361094  38.2964829  11.9739381  74.8773220  37.5256987  13.2224606
  69.8044091  53.9668548  19.9551884  69.8347696  53.9885304  20.9288279
  68.9348332  54.4317280  19.8316428  41.4895261  25.7644924  59.7395504
  41.2536027  25.0843148  59.0994789  41.0143187  26.5497079  59.3899204
  45.1413158  32.2430319  73.3829859  44.3838858  32.1106190  74.0220053
  45.6956875  31.4357542  73.5456642  45.7227326  15.6306225  71.3127597
  45.6464210  16.4627553  70.7790566  45.7761412  14.9595408  70.6087490
  52.3708955  22.0505337  64.6805510  53.2788905  22.4009536  64.6444780
  51.8710886  22.8041822  64.2097204  60.7041438  13.8751363  64.8107042
  60.0204187  13.2889929  64.3651413  61.2838009  13.2502376  65.2491020
  61.4493901  24.1226705  70.7132324  62.2688136  24.6060798  70.9278053
  61.0046997  24.8438939  70.1774672  40.2441237  33.2921854  63.4628718
  40.7025915  34.1755326  63.2003191  40.0309192  33.4979135  64.3733834
  60.4705232  17.7806486  48.5374200  60.7386351  18.7198306  48.3882068
  61.2525325  17.2650865  48.2597125   6.0432757  60.1204700  16.1513833
   5.5178275  60.4774602  16.9082906   5.9647869  60.9045228  15.5549046
  39.7747200  19.7842972  69.3870579  39.7221606  20.4314039  68.6700938
  39.2923543  20.2800438  70.0745265  48.6952272  24.2439316  73.8638546
  49.2263993  23.8331874  74.5589384  48.6019492  23.5154970  73.1903981
  49.0797931   6.8744692  70.9533069  48.2250028   6.5865454  70.5745232
  48.9430905   6.6840375  71.9020157  62.6006011  43.5629094  65.7562579
  62.2733715  43.7617767  66.6948843  63.2520126  42.8660506  65.9327646
  65.8345765  23.1540984  56.4286851  65.0818298  23.5632041  56.8693629
  65.5482481  23.2599075  55.5073494  62.0072620  38.0610469  61.2703803
  61.5662479  37.3491545  60.7746143  61.4779713  38.8863629  60.9625276
  62.1777309  40.6737354  69.4205331  61.7575771  41.2485889  70.0876360
  61.5427005  40.7987614  68.7219455  68.8327531  55.3017813  62.1817049
  69.1380126  55.2158450  61.2466304  68.6989566  54.3758431  62.4530360
  63.9695066  34.9741637  69.6858793  63.1606792  34.9449225  70.2642212
  63.5875042  34.4011076  68.9409858  76.9461944  40.3167980  58.2150888
  77.7079896  40.3494823  58.7194368  76.7776875  41.2701114  57.9583094
  62.0776780  25.7350201  76.0600341  61.8624652  24.7617500  76.1438404
  62.0668860  25.7551475  75.0743247  54.4547896  25.9479196  71.1770310
  54.6131598  25.2190461  71.7977805  53.7877913  25.5704207  70.5668246
  56.1854588  54.5909422  66.5170304  55.5015256  54.8868064  65.8976638
  55.7149532  53.8588233  66.9828985  40.4884144  18.1355023   3.3418147
  40.7145373  17.1681688   3.3352451  40.7944401  18.3726557   2.4054661
  11.6335498  62.5075347  13.3623453  12.1098093  63.3938097  13.1957757
  11.0080906  62.5639512  12.5511572  53.3973173  32.5126759  74.5163562
  53.9222649  31.7836016  74.0979464  53.8906135  32.5779423  75.3708309
  35.5006218   4.4384280  13.2292689  35.4446976   5.1868280  12.6473345
  34.9066010   4.7018663  13.9671606  63.4565117  42.3624435  74.2243615
  64.3451107  42.6976783  74.4353716  63.6919788  41.8087953  73.3956677
  60.1658409  26.9815217  65.7395335  59.7735491  27.1319387  66.5952817
  59.5759782  27.5174659  65.1220401  64.1962534  41.3252200  71.9651887
  65.1568887  41.2947504  72.1511273  64.0295497  40.4424373  71.6802379
  56.3477915  61.6630918  63.2451799  56.9313145  62.3025996  63.6955069
  56.8550669  60.7991716  63.4327300  64.2472714  38.5314682  66.1549228
  64.2690701  37.9654687  66.9890147  63.4711576  38.1099537  65.7193669
  54.9020638  19.0691052   7.9918835  54.7645066  19.2384804   8.9349255
  55.1920502  18.1527888   7.9769131  68.9479647  50.4942518  61.8390936
  69.7488214  51.0320567  61.6180719  68.4406531  50.5836650  61.0175998
  51.5191034  61.2576073  69.8844404  50.8597760  61.2669788  69.2413700
  51.3632545  60.4482662  70.3908481  59.5410469  47.7086975  69.9298762
  59.1945821  48.4291978  69.3481376  60.3989957  47.5937358  69.4945346
  43.7843459   8.9768247  11.0785995  43.7086597   8.2013528  11.7314098
  42.9547569   9.4310269  11.2891881  54.8739181  50.1836625  69.5147064
  54.5708358  50.9210425  68.9557024  54.4303226  50.4780701  70.3468415
  61.9670025  25.1549986  63.8538150  61.3652620  25.8293419  64.1973029
  61.4900916  24.3296934  63.9058213  60.4017312  42.1099886  71.3757040
  60.6474309  41.3501460  71.9220222  60.4421948  42.8897741  72.0317559
  36.9847124  29.8367328  73.5597058  37.9136848  29.7906948  73.8009280
  36.8348645  30.8175968  73.6177538  52.7022065  61.9789201  65.3218092
  53.2972725  61.2639522  64.9498067  53.2273748  62.7694868  65.0820431
  41.4534191   9.6883429  11.9209302  40.7790382  10.0583105  11.2999597
  40.7901803   9.4810009  12.6271487  50.5218962  22.2583522  62.3928254
  49.6661974  21.8233119  62.1331914  51.0768674  21.5113089  62.5525248
  76.2809111  45.8129877  57.6145107  76.2901064  45.6650024  56.6202082
  75.4240956  46.3090225  57.6646437  67.6873271  36.8306530  66.9970480
  67.8904193  36.1868347  67.7281029  67.3277387  37.5500507  67.6209633
  66.7979266  49.6884636  65.4016214  67.6297469  49.5026796  64.9004599
  66.7348184  50.6543029  65.1448079  49.3665759   7.8044123  21.3289401
  49.1935586   8.2024494  22.1735122  50.1415601   7.1889572  21.5567171
  61.4699539  43.7712400  75.6306073  61.2571469  44.2960313  74.8452442
  62.1837300  43.1820228  75.2116835  65.2942290  41.1098538  62.3498481
  65.0511297  41.1556720  61.4109754  65.9911623  40.4142210  62.3236405
  57.8144903  23.8384632  65.4156586  58.5203637  24.0489320  64.7682390
  58.3734803  23.7805896  66.2023612  58.7397383  28.4430464  63.8302964
  57.8527319  28.0294910  63.6188598  58.9779146  28.7450790  62.9305426
  61.0577333  29.9780264  64.5107298  60.2451141  29.3578911  64.2914133
  61.7508056  29.3960143  64.0942367  70.8620476  52.2718845  61.2642008
  71.3209375  53.1358395  61.0422297  71.6207560  51.8010348  61.6990882
  66.3232681  34.6854590  75.7381807  66.4501798  35.6530572  75.8715912
  66.6822821  34.3487093  76.5733717  62.0549242  49.3871377  70.3651032
  61.9982432  49.4046290  71.3803160  61.7269276  50.2624473  70.1578845
  58.6176495  33.7359311  65.1655390  58.3928643  33.0188833  64.5700989
  57.7139569  34.0980720  65.3070538  71.8181119  53.9425540  56.9153515
  72.3865411  53.1806975  56.7653050  72.4392583  54.6044904  57.2458980
  66.4884293  46.6352750  64.9618780  67.0207326  46.1143725  65.5349074
  66.7300807  47.5473235  65.0901866  41.5910712  46.7853106  74.6236480
  42.1286008  47.2636191  75.3240069  41.6238283  47.4889291  73.9239836
  25.0671220   6.9167683  24.3451014  24.8905952   7.3072040  25.1828270
  24.8072307   7.6077314  23.7357009  67.8635688  39.2996362  63.0184895
  67.8697198  38.3917992  62.6582975  68.7071595  39.6804040  62.6609173
  60.9793566  30.6606979  67.4159875  61.6990927  29.9722886  67.5207520
  60.6650140  30.4620074  66.4970189  68.6519942  40.9899984  59.0536674
  69.5384551  41.4037488  58.8522059  68.1834007  41.7749153  59.4260657
  52.1006987  45.2980556  65.0667317  51.2547749  44.9722540  65.3451094
  51.8834745  45.9679008  64.4099752  69.8788593  39.8447967  68.1153509
  69.3627348  39.3867581  67.3710313  70.4716711  39.0805672  68.3308814
  55.0336949  51.1110111  61.3604206  55.3471311  51.8864977  60.8338658
  54.0943068  51.3317923  61.4812208  35.1519123  14.0416142  21.8787296
  34.7557316  14.0952444  22.7621856  35.2276264  13.0793861  21.7762615
  64.8402898  49.3718333  69.7289868  64.9476157  48.8543684  68.8786647
  63.8544080  49.4613288  69.7461598  57.4097715  26.0589228  58.7253502
  57.0151397  26.8750478  59.2178296  56.6951166  25.4021472  58.9880005
  74.8651917  55.3715849  63.8501630  74.9513077  56.0694087  63.1164160
  75.6747480  54.8665779  63.6585382  73.2500663  51.3642937  50.0232044
  72.4991559  50.7630585  50.3758938  73.9465420  51.0789127  50.5987569
  63.6524603  64.2843574  61.1618288  64.4654330  64.8505853  61.1971721
  63.9581048  63.4696805  61.5526030  32.8912511  24.2319917   4.6664268
  33.0200316  24.7038613   5.5603738  33.7334787  23.7327327   4.6676365
  69.4110892  62.6403454  56.5002998  69.5698483  62.1738845  57.3042302
  68.5342848  62.2262194  56.2195838  64.7130782  50.8778572  48.7408893
  64.1961871  51.6945359  48.5673576  65.5729558  51.2275207  49.0123894
  37.6679208  20.2503844   7.6538775  36.7732467  20.6949668   7.6005491
  38.0636095  20.6719828   6.8734867  66.8463054  51.2515590  59.8621651
  66.4586644  51.6446474  59.0326422  66.1269299  50.5990807  60.0791303
  68.9785672  45.9949578  57.1873227  68.9606296  46.8407963  56.7294505
  68.1159529  45.6731961  57.1101894  70.5911787  50.9595738  51.0105311
  70.5341837  51.3542689  51.8916317  70.0280731  50.1352687  51.1718983
  76.2306659  57.2591178  55.3326998  77.1208532  57.6124614  55.4906858
  75.7362124  58.0363983  55.0501584  54.6724015  63.6621180  64.4364860
  55.5372367  63.2587148  64.2285220  54.6374128  64.4396942  63.7665362
  66.7044123  57.0199663  58.2051062  66.9754540  56.5620066  57.3984114
  66.4951998  57.9250203  57.7446050  62.5532075  47.7817430  61.1287765
  61.9269755  48.1615285  61.8190279  61.9863932  47.6751454  60.3579189
  67.3464341  52.7888065  62.2411767  66.6337813  52.3512005  62.7342527
  67.4202937  52.2243822  61.4474041  64.1944566  57.8122326  63.1340944
  64.1703748  56.9322990  62.7041523  65.1576765  57.8487467  63.2831294
  76.1134317  46.3087265  66.4821080  75.7209360  47.1551298  66.7928858
  75.3753198  45.7072184  66.4403396  69.3963343  53.2582865  57.6913097
  70.2729135  53.7045346  57.4975689  69.0657350  53.8949412  58.3333000
  53.5742359  59.5445002  64.5350694  53.9430679  59.2234899  65.4140703
  54.0836202  58.9921810  63.9197630  40.4684649  31.3866911   0.1927029
  40.4839093  30.8394734  -0.6045486  41.4294289  31.5003283   0.3950103
  42.6838391  13.7265937   6.5840202  42.1833447  14.5787900   6.4930970
  43.3478270  14.0107291   5.8604024  64.1769635  57.7273765  46.0322394
  64.3991298  58.3985993  46.7897181  64.3343768  58.2893512  45.3022661
  49.1962265  25.9962825   7.5733587  48.5501182  25.2934333   7.9661619
  49.9866407  25.5607379   7.8678728  41.9919472  16.2192883   5.5910659
  41.1208825  15.7525598   5.5976737  42.2381517  15.9749388   4.6410101
  54.0096554  22.7813920   5.0621148  53.2497156  22.9462849   4.5193178
  53.7484554  22.0999218   5.6745627  40.6710555  27.2592968  13.5342359
  40.3339386  26.3479476  13.5820126  41.2373278  27.2033416  14.3680905
  61.9992240  62.3686511  60.0099084  62.4441779  62.7861611  60.7655309
  62.8004225  62.1726987  59.4196182  41.7514302  18.9387317   5.6478789
  41.9488095  17.9395352   5.6637855  41.1858638  18.9272293   4.7953840
  50.0486554  53.8216469  64.0486779  50.0011761  53.4424711  63.1825296
  50.3621754  54.7498962  63.8650024  54.8514170  59.1920445  57.3682745
  55.3461663  58.8972492  56.5627335  55.4086733  59.9581018  57.6341615
  63.7253413  61.8143572  62.8760510  64.1849297  61.5165911  62.0240241
  63.1779447  61.0175493  63.0652777  65.8460299  53.8488116  55.7403805
  66.1930315  54.8030659  55.6927373  65.3813300  53.9567917  54.8008108
  42.1804463  27.7686527  -2.7990616  42.0031451  27.8917982  -1.8163657
  41.3114981  28.1847672  -3.0591041  73.6792708  56.9096040  58.9880365
  73.7823793  56.2574843  58.2193464  74.5728171  57.2168380  59.0891072
  43.5095644  11.1803835   6.2539553  43.2667088  12.1518304   6.4021924
  43.2140890  10.8465859   7.1723029  59.8167440  68.2627246  54.1816012
  60.3530777  67.7199241  54.7754012  59.4551682  68.9064219  54.8008445
  67.1125401  46.6677016  67.9656926  67.1729710  45.9058080  68.5986638
  68.0841353  46.9065256  67.9689150  71.4936803  46.2140715  64.4283986
  71.3902261  45.8747701  63.5371542  71.7318842  47.1381375  64.3249541
  70.9704445  55.2652484  64.4796966  70.6078255  54.3784451  64.1306150
  70.5993917  55.1766497  65.3816195  41.4364481  15.2415974   9.0777248
  40.8960320  14.9711454   8.3302753  40.7398747  15.5054564   9.6986609
  69.3243648  50.3060029  58.3104848  69.4853518  51.2628976  58.3319153
  68.4931957  50.2346634  58.8399141  64.7309966  65.8308191  52.7267215
  64.5635802  65.6162983  53.6429668  65.1347116  65.0232370  52.3871901
  48.1687340  23.6159207   3.2366004  49.1754555  23.4068761   3.3007395
  47.9308433  22.7715527   2.8628675  59.0767251  49.4168598  60.7296176
  59.5339497  49.2149878  61.5832964  59.6785680  49.0006095  60.1080294
  46.0691459  20.3773729  -0.3369178  45.5473028  19.5687790  -0.3548388
  46.3825159  20.3350618  -1.3004690  63.1742522  49.3777146  64.1079145
  62.3191525  49.1657888  63.6149070  62.8051399  49.8749818  64.8618416
  69.2704242  53.5985074  53.6630097  69.9848623  52.9182737  53.7207006
  68.6531968  53.2069805  54.2815019  34.1806081  32.8740962   2.3491325
  33.3997000  33.3848136   2.6644099  34.6952914  32.7879645   3.1991444
  50.1814639  21.6176901  14.7838697  50.5886649  21.3878768  15.6930514
  50.4136500  20.7468231  14.3919316  65.2030074  60.9412863  60.7889052
  66.0605393  61.4493652  60.5084215  65.5848435  60.0248379  60.7325400
  71.1251947  49.5929855  56.4690778  70.5180424  49.8294387  57.2015035
  71.9833988  49.8620602  56.8276480  75.0590462  61.4780527  59.0680890
  75.5296258  62.0884108  58.4954319  75.2699455  61.7504007  59.9457844
  49.7978349  19.7834919   5.9229471  50.0832214  18.8390566   5.9674006
  48.8258533  19.5864316   5.8048456  50.1867101  34.4784723   6.2703730
  50.3153470  35.4097988   6.4851110  50.9508182  34.2519728   5.7142537
   7.6667406  49.6150197  56.7000344   7.1005677  49.7990923  57.5245297
   7.1429640  48.8279489  56.4156706  62.9154099  56.7508592  57.2010648
  63.3745847  57.6132899  56.9785533  62.6185561  56.4687220  56.3076963
   2.0810609  56.8363664  56.4503493   2.4658784  56.8203328  55.5147138
   2.8128653  57.3666874  56.8646357  64.8255666  55.2454377  58.9228480
  65.4927042  55.9329822  58.5650618  64.1021306  55.4145366  58.2603404
  53.4978275  56.6595113  68.2376351  53.7744942  57.2443965  67.5578814
  54.2413664  56.7454713  68.8933899  43.7570763  29.0724096  -4.5122272
  43.3702438  28.4921893  -3.8291827  43.0794322  29.2070667  -5.1384183
  65.1080931  50.9651923  62.8148258  65.1564712  50.3746459  62.0215337
  64.7117774  50.3333257  63.4057333  57.4067099  53.3321379  71.5368287
  57.3114253  52.3455241  71.6057051  58.0915771  53.3317008  70.8746446
  72.2966973  54.5203544  61.1072474  73.2155020  54.3107581  61.2227054
  72.3272217  55.4651131  61.0458771  56.3603222  48.8057124  60.4629449
  55.8963177  49.5936724  60.7516377  57.2629970  48.9849205  60.7345416
  34.7415065  14.9425365  10.1358938  35.5085676  14.8940441   9.5197703
  35.2373069  15.1234643  10.9822274  49.4876427  20.3296445  19.0296030
  50.1647597  20.7482289  18.4528856  49.0810010  19.6638890  18.4972794
  39.2531223  38.1484834  -7.1945691  38.2326133  38.1153756  -7.1343995
  39.3735050  38.0943648  -8.1555336  67.1433427  57.1756008  62.8631772
  67.7467244  56.4497337  62.5226753  67.7814433  57.7796403  63.2453902
  56.1628303  57.0423282  60.6130459  56.7081714  57.4119202  59.9016308
  55.3462753  56.7514649  60.1341524   5.0960307  63.1490296  45.0411075
   5.6711593  62.7336128  45.6728002   5.6738201  63.9183183  44.7278616
  44.5716695  14.6238482   5.0026866  44.8431221  15.5976346   4.8590845
  44.3819276  14.4146875   4.0759988  58.0956666  57.5650913  58.9682264
  59.0452172  57.3315776  58.7647076  58.0261849  58.3102264  58.3478449
  58.8078419  54.1841342  59.3927562  58.8403778  53.2472824  59.7133734
  58.4260716  53.9787832  58.5067276  38.0856871  38.1107667  -2.2355558
  38.0438584  38.9479054  -1.8236127  38.8997989  38.1753891  -2.7842580
  59.4659250  56.2792895  61.0149700  59.3384692  55.3251288  60.6942596
  58.7756283  56.7097271  60.5176758  51.2429348  30.9618325  -3.5083143
  51.7851937  30.4354462  -4.1073292  50.6514824  30.2705757  -3.1051364
  53.0190239  16.9629769   1.3312269  53.2048360  16.1211183   0.8780398
  52.4847930  16.7000245   2.0904586  65.7558802  64.9572013  58.1907235
  66.6349315  65.4233512  58.2402184  65.1509029  65.7379103  58.2158337
  71.0491831  56.4948254  58.6115241  72.0303310  56.6094107  58.7917618
  70.8707825  57.4490513  58.3692182   3.3964832  42.7836794  71.1649276
   3.3000807  42.9786583  70.1876498   2.4037236  42.9082413  71.3961798
  38.4064888  26.8776599  -0.0305041  37.5205619  27.3168956  -0.2612117
  38.0992242  25.9447837  -0.0678907  34.1949882  33.0331852  -0.4455641
  35.0001922  33.6701982  -0.4132034  34.0497775  32.9787186   0.4877221
  58.3342323  53.2953973  65.1449407  57.7519847  52.7181278  64.6625112
  57.7620613  53.7950789  65.7276590  58.7072682  64.8598616  62.1574159
  58.7073760  65.5025887  62.8464377  59.6555605  64.8360517  61.9178611
  38.4378015  18.6199359   9.5689136  39.3251824  18.6241322   9.1059299
  38.0156407  19.2825925   8.9880972  53.9084754  50.7666098  72.0941420
  53.0688869  51.0478295  72.5933070  54.5367329  50.6189638  72.8137051
  40.4289257  28.1474345   6.1702684  41.1898454  27.9114193   6.7343430
  40.5935326  27.4998707   5.4164360  35.3640439  21.5652336   7.4550589
  34.7964231  20.9681664   7.9676711  35.0609438  22.4238811   7.8209222
  60.4240945  51.0224697  64.7586570  60.1337016  50.2377278  64.2579597
  59.5797535  51.4218161  65.0235016  38.2387321  32.4771548  -0.7972376
  38.5419972  33.1963437  -1.4558720  39.1396408  32.2628672  -0.4741958
  42.2708017   4.6799345  12.9974556  41.9854732   5.0262465  13.8846860
  42.6141455   3.7818470  13.3907071  65.8203246  34.5951790  60.8383296
  66.1538801  35.4559293  60.4975463  65.3244400  34.9066974  61.6458549
  38.0125255  25.6850856   6.9580108  37.0960607  25.6952805   6.6793472
  38.4916042  25.4430842   6.1387767  67.2151668  42.6179396  55.7795012
  66.7977607  43.2177405  56.4064151  66.7295473  42.7573376  54.9776512
  57.6460443  54.6105956  62.6760122  58.4657631  55.0637486  62.4991568
  57.8681572  53.9762790  63.3049462  65.2374721  48.4322554  67.2873090
  65.8671418  47.6733667  67.5104661  65.9032943  48.9487996  66.7542613
  47.0430687  25.9700802   3.0643322  47.5835356  25.1627228   3.1457719
  47.0177755  26.3539552   3.9469511  70.0833983  66.0251207  49.5457890
  70.1199347  65.8855425  48.5850511  69.1121461  66.0447108  49.6654952
  36.3137704  18.6681131  11.0269654  37.1749989  18.7623331  10.5781093
  35.7488320  18.7431341  10.2484606  58.5952996  50.3255165  57.1414887
  58.4750368  50.9725783  56.4345465  59.2425223  49.6794073  56.7049448
  39.6342285  24.4745024   2.3030783  38.9802078  24.7446201   1.5585032
  39.2602869  23.6658443   2.6007255   1.4658581  53.3444121  56.6183533
   0.5936676  52.8783124  56.5280752   1.8529368  53.0772048  55.7914369
  53.3016631  23.6419251  12.1634035  53.9102519  22.9214943  12.3066736
  53.8898236  24.2920957  11.6554391  41.7661400  23.8766277   5.1117918
  41.2911490  23.0148015   5.3405313  42.6828633  23.5883168   5.1586781
  40.4970331  26.3205898   4.1574165  41.1416681  25.6726650   4.4222233
  39.9172052  25.7990611   3.6151546  64.1070816  67.3874357  56.4134542
  64.4777038  68.1226399  55.8207386  64.8576285  66.7427709  56.2505812
  29.8633501  26.0081367   2.7875111  29.4702943  26.4613967   2.0285749
  30.7187955  26.4532190   2.9407350  59.8433739  56.2357934  65.1267796
  58.8905165  56.3008272  65.3473616  60.2068593  56.4369425  66.0328949
  65.1509904  58.3765895  54.1442994  65.4388644  59.2885422  53.9385581
  64.4626003  58.1973729  53.4836089  46.6747845  23.3726084  -2.3454384
  45.8321232  22.9553547  -2.1016488  46.4071686  24.2818585  -2.4994391
  40.5066617  18.6939214   8.0494340  41.1292066  19.0929373   8.7018622
  41.0117306  18.8864049   7.2308152  63.5938488  47.1251239  65.4800110
  64.2406947  47.6294045  66.0247784  63.3950547  47.8395343  64.8331258
  76.2882976  64.9012116  51.5263502  76.9011176  64.4686919  52.2129979
  75.8423097  65.5811549  52.0822278  50.9610285  11.8984005  13.5086423
  50.3344927  11.4127251  12.9633149  51.8251188  11.4328634  13.1605123
  51.6186254  30.7160988  -7.6311280  52.1098899  30.0542322  -7.1450045
  50.7737459  30.7273273  -7.1452682  62.4009993  58.2208727  60.7816704
  63.2926257  58.5336559  61.1800512  61.9195230  57.9177639  61.5704338
  71.2185958  55.3437161  54.3552911  71.7291975  54.7900469  54.9552648
  70.4729102  54.7874558  54.1488606  10.6823721  48.9174720  71.2209102
  10.7586830  48.9901415  70.2288019  11.3681129  48.2100828  71.3682849
  77.5691482  51.3560010  57.2600474  77.1615625  51.6571503  58.1083551
  76.9065742  51.5045486  56.6068666  47.3629521  51.6632792  54.7730163
  46.8247971  51.3289463  55.5944776  48.2287264  51.3206373  55.0002167
  22.5164520  19.0172313  15.3823139  23.0820533  19.2633139  14.5661436
  22.9800904  18.2217777  15.6335526  74.6978787  51.1761927  60.6579450
  75.6286665  51.5068765  60.5725445  74.6221897  50.7134849  59.8249112
  74.3702903  43.5812129  64.2249742  74.2848768  42.6702512  64.4347902
  74.0581567  44.0764726  64.9966132  52.6532887  54.9666941  71.2188064
  52.4862457  55.7526452  71.7527952  53.6019469  54.8484921  71.3417120
  75.6584151  37.7605682  59.9779297  76.6066143  37.6217935  59.7600055
  75.6776503  38.7287667  60.2024090   1.5349620  51.7263769  64.7061526
   2.0867249  51.9939011  63.9205318   2.2179136  51.6928154  65.3969202
  59.5076393  63.5704182  56.1825873  59.5881009  63.0722327  57.0029900
  58.5772639  63.4438929  55.9144656  50.9415227  66.0292630  65.4092158
  51.8100638  66.0292849  65.8913554  50.4245444  65.4697397  66.0212313
  73.8949115  43.7683883  57.7962902  73.9896187  44.0026079  58.7456384
  74.5372301  43.0241237  57.7040666  65.0444028  61.5510695  49.4262534
  64.2719466  61.0610497  49.7192149  65.7471375  60.8765467  49.3739599
  50.7691293  16.4552771  15.0385055  50.7193909  16.8361842  14.1057867
  50.3051395  15.6327833  14.8851600  61.0128498  61.4711227  65.7620190
  60.1833933  61.0315919  66.0251878  61.5191871  60.8051583  65.3052487
  71.0610620  58.7099985  51.7204379  70.5077272  58.2352492  51.0739827
  71.6868263  59.2334339  51.2522466  53.3627477  19.9059849   1.2138126
  53.1587653  18.9535392   1.1801772  52.7012097  20.2237656   0.5659508
   0.9747971  57.8682391  51.0888645   1.2762262  56.9721067  50.8206476
   1.8119373  58.3202414  51.2434483  77.0084531  52.5021094  60.1216658
  77.3697933  53.3307287  59.8694124  77.7818933  51.9972735  60.4923573
  74.4088449  52.1547269  63.9252758  75.3425555  51.8203162  63.9382235
  74.5928520  53.0809151  63.5044644  73.1069613  50.0901702  53.5531076
  73.2066876  49.2266808  54.0765214  74.0516778  50.1247457  53.2393319
  37.6577416  12.2007470  10.8749901  37.5270616  12.9805084  11.4088680
  38.6472042  12.1870464  10.8839153  77.0783883  48.9319162  59.1128648
  77.9264322  48.7493738  58.6894494  77.4189916  49.3452262  59.9309726
  74.1950866  68.7557848  54.6266345  73.8410599  69.6012194  54.9003969
  73.9232404  68.2510759  55.3859157  48.0872513  28.9842180  -4.7212095
  47.9004447  28.3208227  -3.9700724  47.6061437  29.7647073  -4.2818101
  50.2191446  35.8714636  -4.3688280  50.5663481  35.5814232  -3.4551930
  50.2555754  35.0139978  -4.8240749  65.8787515  58.4996090  60.4429736
  66.1915777  58.0616606  61.2863501  66.1462411  57.8292163  59.8080055
  57.1559581  32.2748105  -1.8054132  57.8370243  32.7430651  -1.2836257
  57.7324525  32.0145113  -2.5757790  45.5976439  31.1638860  -4.2332741
  45.0494566  31.7893296  -4.6498573  45.1045739  30.3289893  -4.3663730
  50.0396201  32.5792996  -1.0669198  50.7575651  33.1805257  -1.4207387
  49.5864253  32.4163957  -1.9141618  41.1597060  40.5420780  -1.4859056
  41.3698233  41.0593577  -0.7220352  40.5905394  39.8370299  -1.1108692
  69.6430725  62.9501589  53.7552439  69.5563747  62.9823830  54.7482810
  69.1217082  62.1091706  53.5866358   5.2451960  63.6223045  58.0292319
   4.9454496  64.0312424  57.1613066   5.5340693  62.7344739  57.5816222
  67.8047176  66.6238447  57.9703345  67.4788464  67.5253033  58.2061818
  67.9543885  66.7235566  56.9949615  27.5254739  -4.8711235  47.7915502
  28.4609309  -5.0666320  47.8267557  27.1017872  -5.6533913  47.5036441
  59.4935266  45.5631586  42.6924898  58.7415239  46.0770367  42.9361648
  59.4231340  45.5335440  41.6987016  74.9139929  63.9324961  41.5535448
  74.9258290  63.3769308  42.3834514  75.5685934  63.4149234  41.0319514
  13.0437170  56.3860045  50.4547677  12.8745551  55.8514499  49.6147372
  12.3173248  55.9827946  51.0228576  74.8514736  61.9418548  55.2703891
  74.0524595  62.4221441  55.0191834  74.6042742  61.0247925  55.0754347
  38.3894325   6.1440601  50.6385890  38.6009660   7.0462483  50.9517704
  37.4156947   6.1811361  50.5685276  74.6406711  70.0057599  49.1230510
  74.3717342  70.6886012  48.4909699  73.8498448  69.4070462  49.0536658
  15.3309661  63.1148143  41.0633466  15.2969401  62.8226884  40.1398789
  16.2467520  63.1967154  41.2063113   8.7736161  67.4116413  55.6171935
   8.0561023  67.7126592  55.0584890   8.8783323  66.4887670  55.2470806
  27.9076536  -3.7288500  50.3374429  27.8150989  -3.6576652  49.3740911
  27.4082656  -2.9217004  50.6137268  35.4164687  10.7090524  56.3088458
  35.9946036  10.4034015  57.0309425  35.5216933   9.8904471  55.7092008
  11.0166461  67.0672350  52.1446729  10.8115384  66.1406261  52.2593352
  11.9594357  67.0730891  52.4682396  21.0019259  67.6496113  50.4637221
  20.0632033  67.5211399  50.6467581  21.1563139  68.4696048  50.9587659
  35.8865749   1.9602769  54.7059634  36.8600428   1.9973812  54.8761153
  35.6479047   1.0637897  55.0855583  15.0487174  68.7986396  58.7693662
  15.6634470  68.0133804  58.8032031  14.9073798  68.9393748  59.6663198
  19.5205221  71.1707375  62.8385289  18.8919985  71.1846590  63.6437158
  19.0719889  71.7892533  62.2665452  31.3517701  -2.0680315  56.4203382
  32.3284612  -1.8931248  56.2559348  31.4558418  -2.3749760  57.3401793
  31.3728465   6.4784802  50.4012866  31.7479349   6.5783727  51.2919880
  30.7849732   7.3103762  50.3771885  35.6106919   1.5237734  43.5760328
  35.5833350   0.5546402  43.7424354  36.1008384   1.5884720  42.7337872
  28.5883931   5.5165702  52.7880039  27.7764525   5.6514616  53.2202245
  29.0574826   6.3615756  52.8653824  32.3405808   9.3651870  50.9713796
  32.5482183   8.5973371  51.5844763  31.4170042   9.1966860  50.8745557
  41.8051886   0.2327597  56.8479492  41.8813846   0.8942424  56.1709317
  41.0193970   0.6247210  57.3824643  28.8446116  72.2760988  55.2356831
  28.9068256  72.8888856  55.9632867  27.9383697  71.9494385  55.3680834
  21.5564540  73.3147158  67.0382998  21.2883716  73.5804221  66.1242627
  20.8624327  72.6709529  67.2534306  39.4038712   6.0918278  55.3808740
  38.4580300   5.7826189  55.5608817  39.8505118   5.3658602  55.8901719
  54.4334448   4.6324921  65.3758822  55.2887839   5.0420738  65.5557416
  53.9031710   5.0398968  66.1170821  41.9588966   8.4545424  54.5340889
  42.2870461   8.9522163  55.2916137  41.4396853   9.1199007  54.0373301
  48.7969284  14.7835752  47.4904667  47.9476652  15.2901906  47.6399065
  48.7746568  14.6726700  46.5467417  37.3876855   5.5733160  38.3217595
  38.0584839   5.0334667  38.8069563  36.5621517   5.1663276  38.5120304
  33.2251780   6.2812556  61.8846775  34.2054593   6.2907780  62.0511917
  32.9535885   6.8124917  62.6509376  50.2295368  11.2329392  58.8751552
  50.5392977  12.1208471  59.0802769  49.5584306  11.3728297  58.2616136
  14.3183804  62.8563875  43.5552006  14.6398284  63.7567367  43.7138107
  14.4897986  62.7959003  42.5969003  44.7504657   9.9793995  42.7787876
  43.8146492   9.8047998  42.5518125  44.6806728   9.6578535  43.7306164
  47.5835051   3.7102673  39.2313869  48.4264279   3.2079171  39.0810240
  47.8693332   4.4994369  39.6948306  33.7961211   5.8261457  49.6724311
  33.8928818   5.8662303  48.6845796  32.8219037   5.9578079  49.7208000
  24.4721323  74.4284960  53.9187994  24.9032117  74.5190057  53.0050024
  24.4379084  73.4762322  53.9805988  43.2573205   6.2506896  51.2729444
  42.8671012   5.5160554  50.8813084  43.0941283   6.0865515  52.2491396
  19.0325898  71.1980187  44.9791463  19.1009493  72.1108371  44.5960823
  19.6232019  71.3537951  45.7471528  52.9677497  10.6764948  50.2148645
  52.7117412   9.7495461  49.9284345  53.4312909  10.4151835  51.0178896
  19.3829517  73.3929160  53.9246319  18.4189828  73.6440512  54.0421243
  19.3781201  72.4203596  54.0537234  55.0035327   6.1808347  56.6562233
  54.0160085   6.2193436  56.6948460  55.1810321   6.0059319  57.5677351
   6.8762451  37.3170700  13.0917057   7.8560305  37.2582567  13.1844056
   6.7375693  38.2537972  12.8735571  50.4561073  10.7760873  53.9872464
  50.0666400  11.4695685  54.5758997  50.3054148  11.1161275  53.1194504
  62.6638301  17.2773588  50.5906922  61.9737571  17.9498183  50.7381229
  62.3648595  16.8657507  49.7642091  57.4449298  18.4301187  47.8019785
  58.3768000  18.2602378  47.7568940  57.2955481  18.7143834  48.7320007
  39.4040024   1.4062773  48.3885537  40.3297368   1.1460530  48.4663598
  39.4357416   1.7621548  47.4429480  24.0871873  68.2763159  42.0058120
  23.4292307  67.6408062  42.4134974  24.5675707  68.5100005  42.8260048
  52.9945090  12.3414947  53.9415040  53.4148876  13.2365185  54.0855107
  52.7555594  12.1039977  54.9005728  31.5178072  -1.1433115  49.9684347
  31.0149141  -0.2673471  50.0196021  32.2895515  -0.8587902  49.4522994
  22.3614427  67.6596356  56.6780114  22.5574031  68.1776664  55.8604915
  21.7632046  66.9574928  56.2896481  32.1261093   1.4621193  45.6575800
  32.4611802   2.3961976  45.7535471  31.4111944   1.5045844  46.3763175
  32.9571831  71.3787921  63.8573190  32.8796410  72.3577911  63.9866597
  33.1874124  71.3464395  62.9192879  22.7056519  70.8374454  42.6167647
  23.2859561  70.0790077  42.5448479  21.8550102  70.4195824  42.9181042
  17.0548014  72.5241508  58.1330142  16.5141372  73.0498639  57.4916088
  16.6638921  71.6495838  57.9754547  26.3424488  69.7672890  49.4272144
  26.9339648  69.3469576  50.1043970  26.0668729  70.5997973  49.9240103
  57.7348876   7.0816380  59.7064532  57.8095038   7.9878315  59.2461693
  56.9697849   7.2742702  60.3002627  14.3811881  72.3063540  47.2926731
  13.4300421  72.3263789  47.0130727  14.7820163  72.3038789  46.3887212
  14.5918484  70.7019885  61.5509520  15.2445196  71.4227700  61.2440701
  15.2135115  70.2120173  62.1611797  48.7881521  15.8242492  59.5643798
  48.3114116  16.3102031  60.2312363  49.4386132  15.3244089  60.0980481
  37.1238314   5.1733487  56.4123299  36.2447377   5.1749727  55.9232255
  36.9124537   5.7549990  57.1321659  46.1645455  10.4934275  55.5764996
  45.8357034  10.9991423  56.3276442  45.4716132  10.6403326  54.8832869
  61.1903002  44.9367794   5.7736603  60.3575338  45.1876574   5.3770518
  61.3238126  45.6473607   6.4418657  34.1453330  10.9675468  53.0786214
  33.7580104  11.7580792  53.4720987  33.4951429  10.7314467  52.3987376
  46.6573264   3.7453441  43.7945959  47.6090464   3.6630563  43.7521794
  46.2977763   3.1628736  43.0922835  49.8203314  11.4060718  46.7013424
  49.8988567  10.4984704  46.8230357  49.3525979  11.7327535  47.4757547
  51.5469563  14.9310547  48.1943229  50.5630468  14.7386426  48.1165717
  51.9184651  13.9920509  48.1383746  61.3405676  14.5972982  53.7635640
  60.3572592  14.5498471  53.8883104  61.5271963  14.0390893  53.0038783
  29.7400316  72.5023534  50.7053492  30.2885526  71.9349151  50.1430477
  29.1946840  73.0215855  50.0970976  37.1783409   1.5275333  61.7627070
  37.8437776   2.0210199  62.2063696  37.1596186   2.0391789  60.8588456
  32.4209210   0.8522522  40.5868511  32.8960012   1.3984435  41.2928327
  31.7597371   1.5999378  40.3124833  54.2636631  17.1346570  45.8406921
  53.3012528  16.9731097  45.7492767  54.2696091  17.9041766  46.4624307
  49.0767568   6.2927397  66.3518288  48.6134895   6.0780339  67.2511463
  48.6706701   7.1777418  66.2140400  25.8115770  72.0947139  51.0811009
  25.7119750  73.0515396  51.2386934  25.9778392  71.7667918  51.9765422
  28.7892768  74.3247182  57.0553743  28.0623799  74.2260808  57.7162117
  29.1362536  75.2251342  57.3444301  27.9618049  68.7595908  51.1586854
  28.1851465  68.0560007  51.7750447  28.2282220  69.5351952  51.7187405
  47.3368187   5.1065657  46.4026714  46.5845319   5.2663219  46.9788919
  47.0177145   5.7015942  45.6615318  43.3117552   4.1843366  41.5039286
  42.8237936   3.5898905  40.9540824  44.0839715   3.6195899  41.6787770
  48.7088831   4.2310688  55.6489347  49.4677883   3.7672300  56.0882231
  48.4353396   4.8375158  56.3198298  41.8350521   0.4580602  48.3289087
  41.4242652  -0.4016271  48.1178862  42.4008176   0.2105173  49.1265376
  26.2788367  70.3521309  55.6193508  25.8781955  69.8332056  56.3559619
  26.9779902  69.6648185  55.3560954  11.9634378  66.4805518  61.4234672
  12.8869173  66.3808879  61.7058322  11.7608571  65.5211211  61.2814593
  36.3991766  77.8220316  50.8287192  36.1629521  77.6759257  51.7841236
  37.3360427  78.0577198  50.8958093  54.7108768   7.9817204  54.6021997
  54.8394858   7.3528778  55.3389406  53.7835335   8.2995529  54.9160359
  61.9211697  11.0614002  63.2156402  62.1599267  11.9981480  62.9093614
  62.7053236  10.8363149  63.7306350  59.6382839  10.0714737  51.5364993
  59.2508947   9.1349016  51.6217858  59.2398185  10.4128348  52.4003611
  69.8768529  43.7527495  10.0116093  68.9621337  43.7339804  10.4304702
  70.3845271  43.6202037  10.8944465  21.9519140  66.4497229  48.2397504
  22.7973511  66.8908739  48.4370687  21.4342989  66.7849077  49.0253307
  10.0822249  69.8375499  56.2587195   9.7714722  69.8295468  57.1755348
   9.7050607  69.0150287  55.8966762  17.8826122  69.0902632  48.0585322
  17.5156973  68.4155490  48.6807943  17.0122145  69.5173670  47.8453936
  54.0235304  10.1384860  52.4529297  53.5601840  10.8877748  52.9386349
  54.2729571   9.6161166  53.2080139  51.2686122   6.6580386  64.5204647
  50.5622650   6.3582863  65.1679043  50.9306965   7.5499318  64.3229149
  49.7950426  10.0215246  71.3754354  49.8783000   9.7027773  70.4331939
  49.4516855   9.2243484  71.8079900  51.2791925   2.0878878  55.7181977
  51.2992308   1.3935019  54.9626649  51.8513279   2.7727568  55.3781722
  21.6492357  74.6635986  43.0348521  21.8587049  75.0848134  42.1802467
  22.5281512  74.3781084  43.3430107  50.9759780  13.8065024  56.1726971
  50.0896471  13.5680657  55.7997573  51.4333171  14.3160045  55.5335057
  36.2278114  -0.8953240  62.1749925  36.6196092   0.0267870  62.0892897
  36.9822409  -1.3307951  61.6432541  51.6571579   6.5962822  43.3471577
  52.6678600   6.5540733  43.4767534  51.5001950   7.4157156  43.9445145
  52.6665098   6.1714412  67.0338864  51.9217303   5.5734721  66.7339714
  52.1442059   6.9927253  67.2940956  52.5246811  11.5659967  56.5643831
  51.8972972  11.6153537  57.2797770  53.1199069  12.3092468  56.9020842
  32.6237709  71.1101498  68.4935684  31.7436048  70.6738897  68.7182742
  32.3060962  71.9566903  68.1503045  45.6267188   4.2883275  56.5542490
  45.5130996   3.6324811  55.8579969  46.2658371   3.8362187  57.1124943
  26.6845969  14.0398927  51.9028271  26.4850003  13.5259777  52.7511171
  26.4200245  14.9438819  52.2378521  33.9973165  -3.2165650  45.4672668
  34.3440858  -2.3171650  45.7583251  33.4016823  -3.0131282  44.7206743
  42.1188044   8.3799340  47.6453706  42.1361704   7.6359233  48.2819699
  42.4694492   7.9289456  46.8482573  50.7842008  12.2601176  68.6727651
  50.6506771  11.3295967  68.4873169  50.0464447  12.4989124  69.2482695
  48.9683563   4.7178619  60.1495108  48.2585594   4.9506137  60.7399562
  49.4463040   4.0845201  60.7426715  49.7841957   9.6911034  68.0095226
  50.3194385   8.9597929  68.2160447  49.3493333   9.3579531  67.2114963
  45.3584396   5.5568128  48.1514294  44.4916463   5.1535750  48.1186942
  45.9051798   4.9315540  48.6201089  22.4200839  71.8148352  55.7131819
  22.4791886  71.5852402  56.6908629  21.6364707  71.2358362  55.4814126
  48.9990044  18.2676047  47.1335189  48.3858857  17.6034908  46.8726092
  49.6332289  17.8798433  47.7913674  59.3601750  16.1099825  44.9843447
  58.4755285  16.5592868  44.9003905  59.9204667  16.8611339  44.6701859
  53.4220841   3.4743723  60.5286393  53.7244864   4.3171734  60.2662493
  52.5912403   3.3754487  59.9710688  42.5716499   0.0440220  64.5370249
  41.8707886  -0.1452357  65.2111387  43.1044582   0.7074183  65.1309567
  39.8665079   9.6469198  49.0352748  39.0574556   9.2515774  48.7239067
  40.5585595   9.3129399  48.4123603  54.0043392  16.2249373  49.1756796
  53.9666460  15.3803810  49.6859924  53.3553784  16.0077590  48.5177928
  40.4281811   0.0117881  62.5935045  41.2034509   0.0447123  63.1081169
  40.6194190   0.5370623  61.8184649  54.9169007  14.4708777  63.2048587
  55.7924649  14.7111478  62.7784683  55.2570889  14.5242381  64.1590304
  41.1352904   4.0824859  52.0048636  41.1652630   4.6726318  52.7510894
  40.2106463   4.0374189  51.7719357  58.7737705  11.3648944  44.5483376
  57.8722327  11.6486656  44.8076533  59.0820421  12.2197542  44.1684941
  31.9995582   1.4221132  59.4453232  31.3842560   1.0111947  60.1221881
  31.8413590   2.3828351  59.7647192  28.1487740  75.1321620  44.9269235
  27.2611125  74.8224432  44.7172501  28.6405421  74.3198039  44.6958603
  11.7817083  65.2803006  46.6404891  10.9344392  65.0645063  47.1055986
  11.7824409  64.5751216  45.9603966  59.8369671   9.4755899  46.1898581
  59.4255801   9.4794343  47.0436817  59.4126532  10.2407584  45.7291546
  19.0902915  66.6781059  45.1143752  19.9210975  66.2500591  45.2393504
  19.2922859  67.6027430  45.3282170  55.0897150  14.2514263  55.0512661
  55.5444218  14.0968351  54.2150742  55.8958042  14.5545593  55.5946100
  43.7709102  -0.6264998  50.0375699  43.5637556  -1.1336467  50.8457127
  44.2835771  -1.2250037  49.4790043  51.8332309   6.3287932  52.8152905
  51.5429038   6.1488584  51.9079874  51.1413663   7.0125286  53.0472618
  55.8581131  20.3321103   2.3630722  56.1906608  19.4305218   2.1724152
  54.9089188  20.2342611   2.2182876  47.7786338   3.3560174  53.3061424
  48.3247007   3.8340257  53.9879630  47.7788944   2.4927873  53.7102334
  78.0962017  40.9661270  11.1271185  78.0738859  40.2173970  11.7982095
  78.6268225  40.5504456  10.4800311  58.4254695  13.7831164  53.5816617
  58.5195075  12.8762239  53.9258047  57.5903576  13.6237384  53.0863962
  50.1816944   5.1978033  57.9365066  49.5913562   5.1352505  58.7726444
  50.7965262   4.5205923  58.0679010  38.8846686   8.7806557  51.4727430
  38.1550216   9.2535250  51.7450551  39.3228216   9.3757998  50.8034293
  42.3501873   3.6964627  60.5537983  42.1233128   4.4859256  60.0185235
  43.2823817   3.5630895  60.2702637  21.3804221  73.5934557  61.6950431
  21.6644094  72.8501934  61.0999198  20.6202026  73.9277563  61.2312443
  62.7887714  16.2757084  65.2875107  63.0218965  15.3470301  65.5024706
  61.8524460  16.2423567  65.6465061  55.6028244   8.8429263  50.1523457
  55.2727953   8.0058479  50.5143026  55.2614046   9.4846499  50.8148159
  60.1863488  34.6017016  -2.8154772  60.7470455  33.8104324  -2.7768235
  60.8621486  35.3229121  -2.7182932  56.8812687   7.6327942  46.2219909
  56.5291948   6.7697045  46.0754527  57.7862347   7.5247999  45.8557375
  26.9314755  74.0806287  59.8088838  26.6127538  74.2166225  60.7119429
  27.6769512  74.7169776  59.7846426  23.6777353  73.0088886  58.6207726
  22.9052687  72.6503103  59.0015279  23.3619360  73.7345424  58.0731471
  36.6410735   2.9612329  45.6584222  36.1797053   2.4361581  44.9286393
  37.1870504   3.5396503  45.0624713  14.5151644  68.9654857  44.3016333
  15.2274606  69.0815585  44.9332919  13.8158746  68.6362778  44.9026114
  44.3524247  10.2046817  38.3287973  45.1762253  10.3320472  37.8167059
  44.0675682  11.1687232  38.4262799  55.7752093  18.0360747  53.1261450
  56.6580246  17.5809106  53.1377316  55.9514732  18.6800897  52.4315471
  56.2033931   5.0778968  45.5127519  56.8329835   4.3908102  45.3124816
  55.6181389   4.6523879  46.1317649  17.9519377  73.4733501  40.9583972
  17.3350766  73.5491609  40.1748780  17.2811378  73.0825130  41.5895467
  45.1675247   1.9954727  54.7938101  45.9197858   2.3852605  54.3752261
  45.2549717   1.0740754  54.4716232  20.3007963  68.7955600  46.7111776
  20.5328676  69.7132946  46.9303105  19.4706366  68.7297954  47.2478403
  39.2041870   5.7947899  48.1498231  38.9943751   6.2111274  49.0550396
  38.5797908   5.0584674  48.1364835   9.0307654  65.0547460  54.5418654
   8.9253540  64.7637302  53.5386917  10.0046634  65.1216381  54.4981432
  65.7851232  33.9154168  10.9090134  65.7791155  33.5641865  11.8232964
  66.2812661  34.7742549  11.0820031  56.3188153  37.4585437  -3.1372348
  55.4893521  37.6805669  -2.6015960  56.7654810  36.7983336  -2.5034962
  29.7511917  67.7312328  64.8788828  30.3372445  68.3974786  65.3222049
  28.9748993  68.2896703  64.6260260  30.4490910  -2.4864990  53.9877268
  30.2820644  -1.5920590  53.6621176  30.5898375  -2.2561601  54.9380855
  41.0926122   0.3579961  51.5102828  40.5324831   0.5109527  52.2466629
  41.4739240   1.1481931  51.2092580  34.1932594   2.7684443  49.0760874
  33.2894167   2.6671920  48.7879628  34.0584191   3.6119858  49.5752303
  48.8660320  11.3066562  56.4405212  48.7751565  12.1216601  56.0246380
  48.1515615  10.7803248  56.0737585  50.3024088  13.3950722  44.7978121
  50.2302173  12.6620612  44.1343250  50.3007648  12.8243307  45.5985152
  16.0730868  72.8415268  60.5705216  15.6998584  73.7360016  60.4194264
  16.3902716  72.5870269  59.6431975  59.6808894   4.9560652  43.0826581
  59.3524549   5.8187167  43.2854165  59.4343098   4.4911107  43.9256003
  55.8626908  12.9258969  52.4263046  55.3276756  13.2301785  51.6533799
  55.5500989  11.9912200  52.5195217  38.7664050  -2.6403882  57.9257917
  38.2138958  -3.3338451  58.0691426  38.2711569  -1.8547090  58.2639239
  50.6752976   4.0766045  69.9163186  51.5601843   4.4970565  69.9149942
  50.2894338   4.4939097  70.7085360  45.8456906   1.7201711  64.1487439
  45.0262702   1.6712181  64.6977781  46.0627220   2.6428758  64.2785085
  66.1145460  23.8094454  66.0199725  66.1952854  23.9925676  65.0053533
  66.6881021  24.5598595  66.3099837  46.7722931   9.3758346  49.7037254
  46.4828903   9.2749237  48.7579002  47.6738501   9.0398129  49.7096493
  62.4942638  13.3777323  51.0836106  62.9074360  14.3018508  51.2308524
  63.1159824  13.0091579  50.4540700  60.9687138  22.0295883  65.8272172
  60.2915759  22.6774717  66.0535353  61.7864298  22.4835321  65.8849351
  66.3174309  13.9446822  30.4466751  66.2149279  14.7971986  29.9149584
  67.2484771  14.0946749  30.7176824  54.2161224  20.2260829  43.9895146
  54.9726554  19.8122456  44.5072902  53.4755930  19.6074859  44.2498384
  54.2052692  13.6345671  50.2943698  53.4850029  13.0455367  50.0673092
  54.9584091  13.1791227  49.7930088  63.6587463  26.1656500  62.2138030
  64.3582308  26.2868009  62.8833778  63.0084036  25.6713299  62.7961152
  60.5505646  23.9366394  41.9002207  61.3915833  24.2394534  42.1162252
  60.5991590  23.9813221  40.9284801  60.4346002  22.1755101  52.6720036
  60.0178079  21.4421553  53.2235395  61.2460065  22.3087105  53.2355017
  68.3766176  19.8647952  40.6228617  68.8356122  19.0432501  40.4188061
  68.8409373  20.1959963  41.3859003  58.2318363   9.6628275  59.0313692
  58.9359414  10.2025147  59.4938313  57.7974689  10.4422943  58.5928758
  60.3229479  24.0610424  39.2236956  60.4275784  23.7247838  38.3138612
  59.3187143  23.9835116  39.3372355  38.7986983  79.9185045  55.7539727
  39.3715639  79.3381414  55.2353423  39.1419091  80.7971205  55.4478217
  12.3174356  49.7323468   6.6533115  12.8704806  50.3384910   6.2014480
  11.5649610  49.6729898   6.0369701  56.8073005  16.5665668  45.1616053
  55.8310826  16.5690380  45.3057573  56.9819766  15.6348092  45.4897813
  53.4539518  16.9338685  64.0893467  53.9851331  16.3192148  63.6140701
  52.5313985  16.6622047  63.8818368  51.1588269  17.6755153  51.6405005
  51.6817252  18.2882796  52.2327866  50.2799361  17.8559573  52.0310246
  11.6277436  46.4426991   6.7772018  12.2629555  46.5442375   7.5708490
  12.1694312  46.9439252   6.1623889  55.5890687  14.8411197  35.9098629
  56.3020411  14.6070151  36.5748575  55.1895177  13.9620297  35.8220359
  51.4060988  11.2355071  63.3930573  52.0441066  11.8439939  62.9376606
  50.9999791  11.8763878  64.0384375  68.8057389   9.6720188  51.3009134
  68.9164462  10.3392661  52.0161632  69.6178707   9.1412479  51.4421170
  57.9740953  22.4487003  49.0265266  58.9177595  22.3273056  49.2045082
  57.5431638  22.1899675  49.8459933  63.7183858  19.3647274  68.7907982
  63.3060659  18.9607161  68.0025281  63.6115535  20.3183254  68.6010017
  59.1427787  18.5765797  65.6517780  58.4833922  18.6777919  66.3541705
  59.4295804  17.6316373  65.7997256  26.4465125  75.3948485  62.2737913
  26.7997438  76.1813710  61.8822698  25.9582007  75.7689773  63.0693111
  64.0853988  21.2915095  44.9978256  63.1523293  21.5681644  44.8857795
  63.8556934  20.2968209  45.0992222  59.5804152  23.4733069  63.3737267
  59.5731278  22.5260664  63.3152190  59.2552811  23.7696636  62.4496639
  59.7859926  17.1962666  55.1135801  59.5360936  16.7442466  54.2899451
  59.8250078  16.4936309  55.7777978  62.1106664  21.1948002  54.5756911
  62.6811134  20.4368561  54.4433466  62.2909417  21.4554676  55.4990089
  53.2415297  12.7189646  62.0429017  53.5479115  13.5822898  62.4415158
  53.8738573  12.5692388  61.3381653  58.2972732  23.7925713  51.6544805
  57.4129784  23.3210458  51.7299309  58.8925222  23.2090010  52.1163548
  36.2903811  77.3479692  45.0235115  35.4534379  77.6398800  45.4660556
  35.9754637  77.1886893  44.1140597  45.3762642  18.4598986  62.8563225
  45.6281413  17.6155655  63.2458809  45.9965834  19.0885428  63.0268179
  60.7240347  11.3077842  57.1079103  60.4096225  11.3538076  56.1724016
  60.8582294  10.3503782  57.1872882  71.8837920  24.2163877  55.8283753
  72.6622137  23.9406976  56.2965320  71.5370571  23.3180145  55.5336684
  51.7451069  13.5432375  58.7175681  52.7088806  13.5103992  58.4878929
  51.3620011  13.6691125  57.7892996  68.3351666  34.0596101  58.9980767
  69.1457448  33.5965956  58.8111962  67.6516063  33.4888935  58.6788547
  53.8960153  17.5450784  57.4290363  53.7315601  18.4730019  57.6929986
  53.4389884  17.5472414  56.5803283  74.1262520  16.7671502  56.7565351
  73.3759931  16.3336239  56.3400822  73.7170048  17.3580393  57.3939341
  53.1083562   9.8117473  73.4106723  53.4397073  10.1383327  74.2824876
  52.1289546   9.8444656  73.6094979  54.7220646   7.1121936  70.8401049
  54.6469619   6.8140377  71.7841660  54.0978705   7.9041046  70.9396885
  45.4664948  25.3365728  68.3578724  44.6286290  24.9970637  67.9953491
  45.1441808  26.1713382  68.8300881  54.8905490  22.6514489  64.9908231
  55.0604574  22.8423255  65.9110842  55.5526997  23.1337252  64.5440494
  72.0945022  17.7927328  59.2361355  71.2533780  17.3708880  59.1422821
  72.4228162  17.4733004  60.1384371  48.3389267  13.4080454  54.9313531
  48.3071453  12.9512347  54.0937162  47.3710104  13.6406898  55.0098706
  66.0146070  24.1485166  70.0569082  65.0770021  24.3644656  69.8532617
  66.0718954  24.6052811  70.9519240  60.6878463  18.2875028  44.7724562
  60.2764792  19.0682536  45.2322604  61.6551079  18.4363399  44.8850162
  66.2863299   7.2200059  58.5609481  66.8135315   6.9512825  57.7421261
  66.3309778   8.1661128  58.4897086  20.7482630  49.3740234   8.1136809
  20.6083117  48.6465868   7.4308831  20.4029474  48.8093177   8.9126220
  64.4472763   7.6497250  61.7523508  63.7420384   7.2539362  62.3453084
  63.9567733   7.7536102  60.9195635  66.4637457  11.6731022  61.8165764
  65.6985880  12.1365089  61.4386026  66.0538467  11.0277827  62.4215968
  57.4447735   4.4957773  59.8062220  57.3232168   4.3365580  58.8671047
  57.5946825   5.4822933  59.7745282  60.8350512  26.0863960  52.7718410
  60.8402199  26.8679539  52.1576498  61.8141371  25.9133723  52.7456073
  58.0513818  20.0218462  61.3789581  58.8528758  19.9988825  60.7562315
  58.4744687  20.3609160  62.1840103  55.4954512  18.4458134  50.0043062
  55.2594821  18.9264656  49.1756625  55.0142468  17.6039435  49.8240939
  56.2759482  15.7338566  47.6426026  56.6867246  16.5838336  47.3936534
  55.6885096  15.9792416  48.3439502  61.3902703  11.9351431  33.2684763
  62.2092855  12.5001433  33.2574070  61.7460534  11.1086231  33.6298706
  36.1391641  78.0327074  40.1847963  36.8513708  77.6624793  39.5764749
  36.4288203  78.9074546  40.2798270  59.0993400  16.6437158  38.0761264
  58.1396252  16.8739826  37.9901948  59.3037398  16.7504811  37.1199959
  64.9863132  15.3900613  48.5317107  65.1969091  15.3213579  49.4996261
  64.8876585  14.4192540  48.3702867  66.5406242  15.3820120  57.3810277
  66.7126497  16.0400853  58.1007554  66.2206165  16.0234532  56.6957623
  61.2523042  21.8946402  44.0223412  60.5391315  21.6308062  44.6226581
  60.8300233  22.6830370  43.6054455  60.4573830  23.9559573  46.5885930
  59.9200687  24.3636547  47.2698065  60.9614227  23.2819436  47.0687238
  62.5412831  13.5169559  62.1972688  63.1362354  14.3096868  62.0848743
  61.7375313  13.9633288  61.7942933  60.8017458  28.3233126  51.1004335
  60.8145624  28.7167006  50.2093844  60.4106613  28.9685876  51.6688315
  45.3343179  79.8939532  54.1000789  44.5925812  80.5342159  54.0774622
  44.8259289  79.0935631  53.8199793  59.5347774  14.9105466  62.3235126
  60.1421411  15.0682690  61.5906705  60.1584471  14.9764623  63.0997440
  55.2910320  19.8165724  33.9213730  54.8132976  19.2806638  33.2271571
  55.8191830  19.1209850  34.3246048  45.9023535   8.2012539  47.4011687
  46.0310821   7.9816250  46.4314730  45.8129671   7.2734150  47.7260074
  58.7350615  21.9742703  55.6682234  58.6411802  21.3684677  56.4341440
  57.8984932  21.7256163  55.1303930  68.3015135  15.1991568  47.8371086
  67.4319858  14.7195673  47.7985378  68.0624213  15.8455497  48.6092398
  55.5683676  10.1268738  62.0139827  56.3575593  10.1661278  62.5102669
  55.5891162  10.9051894  61.4195011  68.1226690  24.8221781  44.4517425
  68.9570079  24.4231128  44.1968377  68.1859848  25.0177604  45.3596777
  58.4723975  24.2440483  44.8251100  57.7620644  24.1121365  45.4492351
  59.2664009  23.9543333  45.3179974  45.8120640  13.1259341  47.0065567
  45.3177108  13.9339903  46.8728627  46.3350394  13.0451831  46.1672739
  51.6146425  15.1392697  53.6763494  51.2316051  14.8498865  52.8103544
  52.3535588  15.7385968  53.3437422  69.8643203  25.4294589  68.2201993
  70.3730342  25.0239385  67.4558340  69.4810466  24.6503880  68.6345689
   9.2484270  47.7960629   8.3657391   9.6472911  47.3610239   7.5899777
   8.4238376  48.1663183   8.0515923  49.8888887  18.5868416  64.4433136
  50.4418698  18.3150887  65.1799955  50.5183072  18.8410977  63.7240653
  56.6827829  18.2387776  62.7502805  57.2088545  18.8446668  62.0992085
  55.8012854  18.6846480  62.6229852  61.0037484  18.6825688  57.3831793
  61.4491729  19.4606414  56.9778100  60.5411346  18.3519499  56.6181843
  39.1037832   9.5807894  60.0404446  38.7103431   8.8276224  60.5299326
  39.5779244   9.1629784  59.3218334  60.8183909  20.6861411  48.0900559
  61.4136647  21.4152103  47.8026133  60.5176660  21.0920194  48.9004422
  53.0647182  19.1008451  47.5161624  52.6048457  19.4129647  46.7119165
  52.4269493  18.4793647  47.9034127  70.8364671  17.0405423  46.2051697
  70.3722194  16.2011589  45.8973530  70.0412492  17.6133664  46.3515146
  50.1928752   1.4987028  68.6197715  49.5990700   1.9679051  68.0261920
  50.3542940   2.1658829  69.3039091  51.7580916   9.1900078  44.7372888
  52.1897967   9.3907985  43.9214512  51.6600468  10.0012240  45.1595209
  77.1789354  18.7093182  59.8867611  77.8469973  19.1783380  60.3867365
  77.6806572  17.9215299  59.5629312  42.6866549  11.6017725  60.4148109
  42.5649499  11.2151394  61.2593494  43.5781463  11.3498897  60.1718365
  56.8295191  11.5749232  57.8427897  55.8971666  11.9371069  58.0298784
  57.3948102  12.2084082  58.2890506  72.7034373  26.9912791  49.5352400
  71.9903969  27.5677913  49.1450368  72.4476065  26.1068932  49.2295899
  59.3385733  19.2974887  70.7571706  59.9969920  19.9580097  70.9258442
  58.5452683  19.7551609  71.0320904  59.1855537  15.7758983  57.4619370
  59.3456094  14.8481307  57.7208579  58.2033383  15.7150925  57.4317314
  69.0231987  21.1694457  44.9836130  69.5961000  21.1556437  44.1857827
  68.1961638  21.4409725  44.5794436  61.0396034  15.0138976  60.2864802
  61.2619000  14.1912221  59.7856504  61.4752024  15.6444048  59.6570783
  35.9230550  75.4313655  54.1119660  36.1449513  76.3100179  53.6952177
  35.6000468  74.9082095  53.3464388  60.2888321  16.1766306  66.2637738
  60.3268619  15.3245867  65.7344145  59.6811915  15.8487889  67.0253717
  54.4463227  12.9591057  65.9081783  55.0251351  13.6819470  65.8327227
  53.7961777  13.1551886  66.5944148  47.2701490   7.7202844  60.9675503
  46.7421159   6.9528286  60.5383781  46.8612710   7.7082863  61.8386346
  50.9842422  14.0129037  51.2904506  51.3227748  14.1282189  50.3410027
  50.8435312  13.0195389  51.3296270  69.3277337  27.6342830  69.6893922
  68.3965864  27.5136917  69.3965008  69.6834935  26.7536402  69.4844833
  52.6208046  14.6908538  44.3019791  52.6942581  13.7358411  44.2289503
  51.6741861  14.7855917  44.4830347  54.8064105  14.0057145  46.1682604
  54.1873615  14.6027833  45.7018516  55.1889665  14.6431201  46.8051776
  48.4849745  19.8835820  61.0366742  47.9473884  20.6909582  61.1594836
  49.1686236  20.2981159  60.4401563  58.9480332  16.1179609  50.2151830
  59.2606444  15.3571068  49.7248490  59.5059376  16.7978854  49.8455340
  67.1617805   9.5366296  25.7344226  66.5299779   8.8238411  25.6595328
  66.5396837  10.3009453  25.3346682  56.4482718  26.8759565  62.4724034
  56.2267033  27.4461566  61.7313614  55.7055365  26.2345680  62.4252152
   7.3358113  43.2627320   3.6920818   7.8407895  44.0622797   3.9424437
   7.1745032  43.4835738   2.7688726  41.1330378  79.1889846  54.5440272
  41.2475344  78.2183997  54.3039272  41.1512870  79.5602413  53.6358567
  55.9694056  18.9951690  55.6123811  56.1321029  19.9439333  55.3750443
  55.6294248  18.6898180  54.7364889  69.0165862  16.7421470  62.3918884
  69.0837555  16.1043935  63.1888691  69.5894416  16.2246761  61.7872763
  52.4243110   9.3323313  55.1369796  51.7635198   9.8489511  54.5366119
  52.4534831   9.9768791  55.8449478  49.0241767   3.4757315  45.1493439
  48.8871163   2.5813345  45.5165697  48.2398009   3.9505154  45.5359567
  55.5788906  15.0592975  59.5952402  55.0911290  15.8745953  59.6089245
  56.2603646  15.1267253  60.2634698  62.0562070  25.8235592  45.6256588
  62.0585209  26.5295879  46.3708111  61.4947563  25.1634446  46.0942480
  52.6896600  17.7528804  54.9017654  52.5986383  18.3047442  54.1041349
  53.2609977  17.0505571  54.5856623  65.5920362  17.4020239  55.5228145
  64.7254296  17.3549545  55.1479513  65.6184027  18.2726342  55.9477388
  68.9399722  14.2458032  58.9413406  69.0550464  15.2536885  59.0167668
  69.0519020  14.1696978  57.9768262  63.6864562  13.2038951  54.6886761
  62.8751219  13.7177337  54.7642361  64.2372684  13.4416474  55.4229541
  59.4159724  19.7693494  53.4740753  58.9602678  19.4889551  54.2784401
  58.6088826  19.8269922  52.8973960  45.2185834  10.4297549  60.4504690
  44.6514727   9.7138086  60.7642469  45.8430789  10.5612094  61.1960244
  65.1093463  19.4851709  42.2201232  64.2334289  19.8935010  42.3046330
  64.8569543  18.5300137  42.2568597  56.7462263  15.9516147  56.2437165
  56.1810645  16.7634420  56.3633156  57.2429452  16.2516537  55.4457683
  51.9289201  18.4768427  66.1080817  51.8404974  17.7485179  66.7684146
  52.6286420  18.1121223  65.5840452  65.7012836  20.8283294  64.2127494
  65.0850347  20.1169865  64.5614477  65.0114380  21.4505763  63.8295131
  67.5783153  26.1562770  62.6010532  67.9636277  26.3395625  61.7408051
  68.4045085  26.0727722  63.1402316  60.4071674   8.5988591  57.7124110
  59.5611992   8.7503632  58.2232190  60.9515053   8.2038109  58.4531616
  69.5951312  30.0944052  56.8006589  69.2052269  29.7540661  57.6606530
  68.7377081  30.1828121  56.2818153  22.2113415  55.9532775  -1.0571424
  21.7923551  55.1686994  -0.6757246  21.7842053  55.9304993  -1.9596199
  62.4970960  16.7987898  58.9017279  61.8743554  17.4999128  58.6029346
  63.1644473  17.3306472  59.3393718  53.9040630  22.3536537  45.4470028
  53.9532411  21.5073092  44.9338699  53.6187746  22.9537163  44.7181001
  64.1373779  18.6725311  64.8869315  63.8895416  17.7678207  65.1858681
  63.4816854  19.1983143  65.4029484  65.8408113   7.9958479  54.1477735
  66.8183658   7.9898026  54.3288040  65.8549524   8.2044245  53.1956619
  63.3564095   9.5622803  54.4749171  62.7802030  10.0240439  53.8035904
  64.0809008   9.2728885  53.8740347  16.0986229  53.7094646   6.2139864
  15.3161657  53.1354651   5.9704529  15.7418691  54.5674536   5.8799527
  47.3811543  83.3606859  55.7223076  47.6899099  82.7969983  56.4106488
  48.1982566  83.7850626  55.4123463  61.2082504  18.0240836  42.0341226
  61.0275504  18.0149968  43.0337103  61.9559657  18.6967732  42.0216304
  63.5966431  22.0938155  62.8987249  64.0326797  22.5255120  62.1364701
  63.0208516  21.4445384  62.4910736  50.8603523  13.6752393  39.0201412
  51.0669280  12.7293722  39.1224595  49.9000382  13.6644851  39.0664443
  21.2167053  46.3423592   1.0412858  20.3119116  45.9962504   1.1169266
  21.6678957  45.8744988   1.7800882  53.3482326  82.2596659  52.2553884
  52.4911491  82.6454671  52.4593229  53.8386677  82.5705472  53.0124963
   4.7045468  25.1512780  49.1800033   4.1712060  25.3322763  49.9217429
   4.4747344  25.8492071  48.5592333  49.3629016  76.5494192  56.1527834
  48.7049550  77.1944258  56.3485729  49.9332689  76.7099827  56.9613043
  70.6402362  23.8152965  58.7336285  70.1522413  24.1950967  57.9856013
  70.5944883  24.5525587  59.3991068  56.3015454  17.4821880  38.1195550
  55.3356764  17.3524788  38.2138236  56.4584480  18.0219002  38.9543998
  34.7561217  76.1153706  38.1388766  35.3817314  76.7780251  38.3141443
  34.4835110  75.8005378  39.0761686  65.4494612  16.9624876  46.4894071
  65.8580705  16.2743351  45.9245294  65.2184095  16.3860564  47.2328980
   0.2960167  60.9841294  22.3002617   0.3933138  60.6397571  21.4020828
   0.1141949  60.1629112  22.8107850  54.8060864   6.6788882  43.5898363
  55.6359426   6.8568468  43.1098395  55.1311622   5.9974865  44.2868187
  58.1601365  12.7584662  60.9765721  58.6585001  12.0687850  61.4597662
  58.6587833  13.5800491  61.3490186  64.4021383  15.5071765  51.2531872
  63.9839011  16.3716424  51.2006781  65.1597581  15.7106096  51.8281784
  51.4836582  24.9679279  65.0702961  51.5735709  25.5718490  65.7821366
  50.5305808  24.9077955  64.8510964  57.3623169  20.0536730  51.5529204
  56.9093052  20.8076061  52.0328842  56.9000067  20.0501811  50.7240829
  57.7697752  20.0638491  57.4592295  58.3852619  19.3730999  57.7344540
  57.2927077  19.5387305  56.7831056  63.3834626  23.1498286  65.8854677
  64.3638087  22.9793045  65.9062905  63.3626890  23.5703628  64.9560455
  63.1129566  27.3843866  52.1688383  63.5374450  27.8876564  51.3992307
  62.2139754  27.7521598  52.0831067  63.7980742  19.1184322  37.2543668
  63.4954097  19.8618984  37.9289853  64.4751169  18.7558708  37.8835102
  64.4708166  15.6741668  61.8566402  64.8489950  16.5896159  61.7988946
  65.2097119  15.1501705  61.4376893  59.0557995  17.2493580  35.5188078
  58.1390779  17.5532172  35.3029528  59.4673073  18.0932191  35.7546254
  56.1809636  10.2383124  54.9531345  55.9131561   9.3694029  54.6554024
  56.0432297  10.2265460  55.8835022  48.5375107  18.5744455  52.9996893
  48.7583235  17.9024637  53.6922479  48.9300333  19.3908389  53.4766852
  54.1260928  25.4020138  61.9167282  53.7193365  24.5069318  62.0327328
  53.6163996  25.9034503  62.5865541  61.9838670   9.9858454  44.2607056
  61.5750523   9.7386735  45.1442841  61.8088594  10.9595155  44.3326398
  36.2682597  78.0622104  53.6735310  36.7821617  78.1151732  54.5218741
  35.6597983  78.8062806  53.7187972  50.7918069  16.1793865  63.5372545
  50.4420441  15.6607357  62.7693663  49.9539229  16.5406961  63.8430990
  71.7411861  31.3310025  47.5312151  71.6195030  30.7822789  46.7149359
  72.6101239  31.7139243  47.4018324  67.0871493  38.8826415  68.4437129
  66.2275887  39.3067212  68.4871507  67.5070243  39.1013353  69.2845425
  64.8988099  41.3807238  59.6467015  63.9847715  41.5020483  59.3320479
  65.2797759  42.2724918  59.5184028  74.7586616  33.1809863  41.0922569
  74.3691415  33.8920828  40.5364572  75.7140726  33.2616533  40.8267263
  69.7151600  25.9253169  60.6358174  70.2994225  26.7255201  60.6529550
  69.4589215  26.0804893  59.6804707  69.6014362  31.3738709  38.1613034
  69.2776082  30.7897319  38.8463763  68.9356181  31.2159185  37.4238039
  75.4313949  31.2222208  55.4983877  76.2381661  31.7619317  55.2781660
  75.7837694  30.3343026  55.6563730  75.7235285  35.3357924  62.0314418
  75.6056859  36.2067024  62.5212350  76.2247603  35.6626957  61.2728147
  71.2761362  18.4923428  63.6645379  70.3850155  18.6843830  64.0722508
  71.7593345  18.2323676  64.4846025  64.6615281  24.1360075  45.8666557
  64.8904036  24.5994083  45.0042485  64.9858442  23.2449664  45.5274276
  78.4446065  25.8729682  54.0265929  77.9393237  25.0610963  54.1388774
  78.6126038  25.8305805  53.0394630  69.7056758  23.0615933  61.7298126
  70.4109554  22.7121425  61.1700996  69.9808296  24.0024448  61.8619966
  67.0875645  37.3423935  43.8545666  68.0066971  37.0562994  43.6065450
  67.2348929  38.1338045  44.4111668  68.4812010  19.2431576  61.2275945
  68.8631421  19.9473647  61.8072915  68.9136790  18.4305652  61.5429173
  76.5452573  38.2308298  50.2727510  76.1279008  37.6555247  50.9409793
  77.1524805  37.5972673  49.8175997   1.0178026  33.1888394  29.1294209
   0.8546735  32.2548452  29.3983537   1.2090310  33.0515574  28.1566033
  65.9946233  29.5801374  58.9434003  65.9067326  30.5215524  59.1695873
  66.9565568  29.4547129  58.9571802  63.8578376  25.9683048  59.5744679
  62.9307256  25.6140178  59.5764950  64.0109054  26.0781383  60.4944090
  67.0769272  26.9031364  47.9693167  67.9047252  27.2408594  47.5379208
  66.4590090  27.1633726  47.2575801  71.8294476  45.6378722  54.3811748
  71.5475016  45.8465954  55.3102104  72.4965270  44.9566699  54.5126404
  66.5779622  23.9527852  63.4431555  66.9821786  24.7342926  62.9887781
  66.9203040  23.2409025  62.8391637  73.0640876  34.8860128  53.0345139
  72.9351225  33.9291056  53.3528895  73.7561146  35.0601456  53.7393538
  62.4195731  22.1230969  57.2386617  61.6424437  22.4340276  57.6714389
  62.8765143  22.9663325  57.0568140  78.0193925  29.2110239  44.7506734
  77.8096887  28.7767495  43.8830805  77.4673682  29.9708557  44.7328181
  63.4063483  26.2614611  48.8105539  63.8822178  26.9890638  49.2487978
  62.7629196  26.7961301  48.2385274   7.1728749  28.8327789  49.1666918
   7.2603279  29.6865804  49.7812283   6.1928520  29.0109300  48.9889073
  68.9935759  15.8308708  65.2514458  68.7811071  15.5874744  66.1869328
  69.3825924  14.9171394  64.9939528  69.1072748  17.3959265  56.3007428
  68.4067606  18.0227315  56.2119514  69.4393872  17.4023741  55.3755906
  61.1884301  28.9430169  58.3299780  61.9711194  29.4975473  58.5278165
  60.4780007  29.3853769  58.8141671  67.8383240  46.5662273  51.8145471
  68.7206519  46.1203528  51.7943382  67.5464429  46.3076933  52.7245606
  71.7418158  36.7505273  66.0265821  71.2609921  37.1493183  66.8233300
  72.6683611  36.7536469  66.4367675  69.3046563  24.4921470  50.9160977
  69.7787213  24.4697330  50.0638353  69.4605177  23.7001569  51.3386450
  67.1606624  31.5710802  43.6208963  66.6444091  31.7457483  44.4015125
  66.6002034  31.1742559  42.9751735  70.6722336  21.8518742  55.1509364
  70.0402695  21.0883642  55.1783073  70.0620000  22.5190767  55.5435115
  74.8801811  26.6257436  51.1945665  74.1529164  26.4643806  51.8626945
  74.2982873  26.7203624  50.3898988  65.4736700  13.9437721  42.3604622
  64.7390498  14.2270846  41.7865503  65.2616769  13.0313537  42.5820374
   1.1141345  30.4890550  39.7819622   2.0936287  30.4760253  39.9400741
   1.0136709  31.2837571  39.2161439  69.6730070  26.0383481  64.2464475
  70.1983653  26.7441483  63.8485060  70.2685645  25.4805212  64.7344177
   0.5158322  34.6362418  47.4781812   0.2775108  33.6727632  47.6995171
   1.4654965  34.5254698  47.5542362  65.7281900  23.7170781  48.4621339
  66.1703054  24.5458337  48.6681955  65.3072765  23.9368452  47.5931974
  76.3370017  30.9637590  49.5963823  75.9280285  30.1649512  49.1295775
  75.5664953  31.2409310  50.1389714  67.3663839  22.4536463  53.5466253
  67.0683726  22.9156774  52.7385929  67.5727071  23.2340313  54.1327191
  68.3350863  32.3614823  41.0190511  67.8539908  32.1461266  41.8322447
  67.5356963  32.3652393  40.3987981  70.1717751  46.2255357  42.0083484
  70.9864195  45.9068849  41.6746233  70.4376821  46.6211271  42.8499319
   2.9292258  34.8678969  57.6844328   3.3247204  35.6837873  57.2348340
   3.0308519  34.2258694  56.8754477  73.3890281  23.2224706  57.7388228
  72.6446533  23.2246975  58.3579309  73.8207688  22.3464971  57.8751743
  78.3865501  43.5006444  46.7641134  78.2260725  44.4027043  47.0207468
  78.8909429  43.6777714  45.8995901  74.4853634  32.2999683  46.6992852
  73.8679116  32.9407279  46.2694413  75.0428432  32.8689867  47.2616525
  77.4312904  40.8232905  50.0595790  76.7101950  41.0719591  50.7226299
  77.1390484  39.9147614  49.8993598  75.4488726  45.6571414  51.7764703
  74.7291860  46.3441278  51.8088883  75.6494827  45.6020731  52.7258322
  69.8119755  11.9462504  46.7539356  70.1509081  12.5566219  47.3944865
  69.2340680  11.4013669  47.3981872  63.7438682  36.7798084  47.6115911
  63.1517990  37.5035692  47.2106568  63.4354713  36.7877997  48.5182889
  74.8839236  31.6513557  52.4874562  75.7038020  31.1100760  52.7120623
  75.3668202  32.5557251  52.4436703  72.7621475  32.3870736  54.0809563
  73.6295266  32.0937401  53.6830959  72.3051799  31.5174344  54.0603941
  67.6493351  21.9094007  48.5943149  67.4560648  21.0259191  48.6552055
  66.7756303  22.3238591  48.2788829  68.1453590  42.1419762  50.4991661
  69.0669248  42.3157666  50.7734114  67.9411421  42.9713784  49.9577277
  70.0128333  39.9807327  61.5572175  70.5023704  39.2217855  61.3837146
  69.6112477  40.2535415  60.7148973  20.7884389  62.2148809  10.5676663
  20.2220698  62.8901830  10.2022585  20.5647144  62.1511223  11.5416298
  63.2366817  44.1303317  68.8588133  63.0503207  43.9198634  69.7520687
  63.0685688  45.1013348  68.8207492  64.1611394  34.7046506  46.0710986
  63.3893922  34.3410224  46.5592277  64.4416186  35.3478785  46.7480401
   2.2723685  31.9392544  36.5824302   1.8088715  32.5866899  36.0411406
   1.7856954  31.1028563  36.2876243  73.3191747  36.8099580  59.1682219
  74.0616044  37.2750930  59.5425278  73.6756634  35.9289002  59.0098034
  70.7202245  42.2560138  63.0140990  70.9307870  41.9532776  63.9191630
  70.5045781  41.4110604  62.5605444  62.5075900  28.1023447  56.2433075
  61.8323962  28.3904194  56.8724576  63.1731942  27.7264795  56.8981584
  67.1668418  25.1309176  54.1872262  67.1635553  25.7263059  53.3562567
  67.0536867  25.7353967  54.9064387  72.2848813  48.8223914  63.8023007
  72.3838150  49.4946059  63.0340618  73.2075967  48.3838242  63.6383393
  65.8806443  43.1046532  53.3885571  65.5138287  42.7966374  52.5642686
  65.6159758  44.0658163  53.3293278  77.0192973  30.2650940  53.1041764
  77.4785644  29.8095768  53.8031427  76.9744972  29.6269675  52.4130045
  63.0187542  32.4262803  63.8729079  63.2860062  32.0462990  63.0112083
  62.3891827  31.7202858  64.1740414  71.8059048  40.3934155  54.1882746
  70.9598951  40.8677043  54.3622160  71.5568538  39.8790292  53.3715948
  78.5118030  35.2887708  36.7117422  77.6300315  35.6167887  36.4831070
  78.6143397  35.5529595  37.6316299  77.0607149  20.0717805  54.5552245
  76.2827202  20.6452288  54.6777791  77.5438897  20.5017356  53.8009908
  68.7319171  29.4465850  51.0051738  68.4741467  28.4672513  51.1673726
  69.4253268  29.4878844  51.7222139  70.8870774  49.5632139  42.0226188
  71.7721940  49.2627165  42.3236536  70.5067342  49.7901982  42.9024850
   0.2122613  37.1164560  43.9721147   0.4898062  36.1395093  43.7982142
  -0.7598782  36.9706698  43.9443129  71.0777103  42.1169844  58.3568799
  71.8389967  42.1267364  58.8778345  71.1975417  42.6120471  57.5783995
  68.5762685  23.1495858  56.5938596  67.6006494  23.3602091  56.5033199
  68.5207709  22.1730049  56.5170312  56.9172549  28.2681656  60.2928132
  57.6038252  28.5317581  60.9359279  56.4037216  29.0726339  60.1429411
  66.8658415  40.2913950  57.4937477  67.5833005  40.4863222  58.1129781
  67.0872444  40.9205756  56.7394518  67.1784681  35.9395923  46.6912592
  67.2616271  36.9043338  46.5373433  67.8476022  35.6224154  46.0804286
  62.9483310  30.9440208  52.7187926  62.1384847  30.4665475  52.4983006
  63.0947799  31.4647716  51.8859407  71.4352909  37.7309839  60.9391620
  70.9627431  36.8814138  61.0139634  72.0690831  37.5288485  60.1757834
  67.3305765  30.3866048  47.1066834  67.4834008  30.4564937  48.0815377
  67.0113981  31.2349499  46.8614591  66.1083065  36.4985816  40.0921661
  66.6908751  37.2687107  40.1853092  65.2290925  36.8722176  39.9618472
  72.4500162  18.4639552  50.0989949  72.7712151  18.0756639  49.2404510
  72.1596589  19.3535334  49.7346385  62.4377133  20.4386516  42.1790444
  61.9678394  20.9727309  42.8931993  62.7217741  21.2085834  41.5888034
  60.5651738  22.4351999  50.0844188  61.4842967  22.8266595  50.2244591
  60.3898699  22.2429422  51.0039086  70.5082677  28.5441569  48.7608035
  69.8371148  28.6300497  49.4327029  69.9980902  28.8936447  47.9805997
  67.1086341  31.1343795  49.8338595  67.6388799  30.4925437  50.3679209
  67.3376753  31.9424725  50.3306164  75.9577338  17.5141984  54.7280405
  76.3660851  18.2699190  55.0248218  75.2226379  17.3400111  55.4363094
  71.3820235  42.4833522  43.5419976  71.9082545  42.3963981  44.3743011
  70.4758332  42.3331033  43.8665951  64.4621341  28.3396490  50.0383711
  64.3398078  29.3269006  50.0363931  65.3929598  28.3836550  49.7369876
   1.0044611  24.1773270  57.6185040   1.8054323  24.7633770  57.6047362
   1.3598119  23.4396980  57.0363815  78.5642798  32.3403487  48.4272836
  77.8048406  31.9870109  48.9193613  78.7787572  31.5375786  47.8609009
  64.1198614  42.1903209  51.2709177  63.9077643  41.3110681  50.9535584
  63.4097221  42.4214501  51.9221679  71.6048643  45.7336210  56.9260265
  72.0275061  45.3967791  57.7037389  70.6508097  45.8126675  57.1400279
   0.2922736  51.0264711  61.0591255   0.2743641  50.1967169  61.5548771
   1.1849421  50.9569687  60.6494602  75.3074608  38.5965864  46.6709905
  75.3498537  37.7937128  47.2719603  75.1766141  39.2768260  47.3951584
  63.4816769  35.1034474  62.9501187  62.7485449  35.6987823  62.7096682
  63.0627903  34.2415237  62.7447320   5.6674862  28.7098589  41.8351056
   6.4166522  29.0948017  42.3998464   5.1059792  28.3494966  42.5963814
  69.6962522  39.9352242  48.3617677  69.3913334  39.5732411  49.1975075
  70.6531821  39.9138215  48.5019992  65.8302397  37.8682078  64.1280336
  65.2259157  38.3734416  64.7495344  66.5956016  38.5170637  64.1613082
  63.8199067  26.2615711  54.6075338  63.4657548  26.9300145  55.2290605
  63.8657219  26.8591020  53.8174514   2.7452694  31.4987063  66.4635322
   1.8749669  31.1981105  66.1066340   2.9366104  30.6770532  67.0505863
  77.5458997  35.2474887  54.6445930  78.3505117  35.7970624  54.6265886
  77.9928104  34.3983658  54.9601957  66.1997936  34.4024196  48.5645492
  66.7266660  35.0494326  48.0475141  66.7797220  33.6443648  48.5561069
  67.7642305  32.2722261  74.9925836  68.7359646  32.5189293  74.9852790
  67.4684696  33.1967198  75.1863290   0.1891915  18.5881389  55.8234988
   0.1436525  18.9926352  56.6883869  -0.5428900  19.1091984  55.4255939
  75.8956734  48.0241471  30.3214961  75.4517803  48.8523898  30.2865294
  76.8303802  48.3959942  30.5128485  75.0697715  36.3046433  47.8910506
  75.9295336  36.1118438  48.2882491  74.4647934  35.8132471  48.4508471
  72.9062579  30.5285648  61.4033168  72.2316123  31.2088379  61.2945689
  73.4088289  30.9168687  62.1520669  76.1492664  38.7981030  41.2272534
  76.0090674  38.7080722  42.2171524  75.4013553  38.1841273  40.9702142
   3.6068474  30.4354215  46.0253800   4.0318938  29.6941241  45.5842254
   4.3833591  30.9012030  46.4612287  75.8280171  28.9183151  66.3517019
  75.5709656  28.7076472  67.2453727  76.6382334  29.4731318  66.5325155
   4.9862454  22.9370091  46.0597846   5.2632633  23.6500797  46.6708448
   5.7941915  22.8993024  45.4671275   2.8168085  37.6535224  60.2268794
   3.6090012  38.1635167  60.2588633   3.2924179  36.7503763  60.1622404
  75.0618537  35.3313177  37.3760923  74.7000867  35.3525281  38.3037412
  75.6007464  36.1323090  37.4802533  10.1017448  41.7959109  56.2282803
   9.2183283  42.1921898  56.1501468  10.5680997  42.2453347  55.4750076
  65.9291694  42.7897193  68.5513637  65.2055252  43.4407098  68.5714673
  66.5948898  43.3141160  69.0205064  66.3663544  23.5078767  51.2758402
  67.2177250  23.4268889  50.8003177  65.7179085  23.1488603  50.6303055
  75.1094351  32.9602806  27.5586432  74.3263576  32.4554879  27.7489966
  75.1757017  32.8654777  26.5730390   9.2756217  60.3716184  12.4017926
   8.7530018  60.0689411  11.5847711   9.5972315  59.4756287  12.6406587
   2.2630573  25.7112625  42.8900348   1.2784988  25.6106930  42.9602654
   2.5028147  25.6223624  43.8297951   0.8334605  26.7794871  37.2319831
   1.6044055  26.3580810  36.8589267   0.5236514  27.3228789  36.4744181
  67.5330402  36.5851826  59.5140281  67.7796110  35.7213682  59.1412583
  68.1842415  36.6962990  60.2412889  76.2960226  33.8931023  52.6462599
  76.5859324  34.5962318  53.2638831  77.1009309  33.5377988  52.3058962
   0.3205157  30.7803494  51.0987866   0.4092768  29.9617591  51.6390851
  -0.5811481  30.7006066  50.8137187  71.4169245  29.9352317  54.4975284
  71.9684278  29.2456842  54.9407159  70.8947748  30.2805854  55.2690653
  67.2810748  39.1222533  39.8413704  68.1225406  39.1192420  39.4153469
  67.3782451  39.6968022  40.6168672  61.7995138  33.8763520  47.5192493
  62.2543056  33.3450206  48.2043354  60.9220512  33.7796590  47.6964642
   4.0183138  28.4475593  52.3797720   4.1132536  29.2584291  52.9153124
   4.3114046  27.7696021  53.0180637  74.0439498  43.1377774  49.7433192
  74.1467241  44.0978037  49.5244045  73.1236512  42.9988387  49.5937706
  71.6525290  27.5970169  41.3538243  72.5522869  27.3181778  41.0827367
  71.5956968  28.3928790  40.7594567  68.0973964  38.9262815  46.2149959
  67.2794078  39.3989742  46.4982514  68.7302289  39.4560669  46.7729682
   0.2970207  41.0485619  60.3866733   0.4587587  41.7733955  61.0052479
   0.1169499  40.2724795  60.9739461  69.3765322  27.0187139  40.0009404
  70.2372006  26.8233079  40.4112063  69.2339457  27.9230856  40.3691700
  70.0606508  26.2382750  46.1438847  70.7448007  26.2891658  45.4121836
  69.7747359  27.1689567  46.1706695  64.6942627  27.6708532  57.7996441
  65.0963419  28.3052698  58.4405402  64.4068974  26.9663988  58.4393265
  74.5104150  40.5434701  48.3509851  75.3856553  40.8176907  48.0067203
  74.2337714  41.3697059  48.8260204  71.4435529  47.7341289  50.2467930
  70.8573372  47.1440266  50.7290579  70.8655080  47.9490414  49.4662122
  52.2022195  12.6751617  10.1104613  52.7739081  11.8905911  10.0555472
  51.3434242  12.2233979   9.9320443   9.1637612  58.0936379  52.2835067
   8.7589210  58.4106671  53.0943907   9.7201457  58.8290904  51.9853175
   5.8914637  43.8336502  40.0083514   5.9060038  44.0878137  39.0868944
   6.0308460  44.7525877  40.4056930  69.8369165  51.6788318  48.4536210
  69.3791807  52.5026034  48.7674798  70.1664558  51.3403382  49.3348314
  51.6651292  17.0870535   3.9369854  50.9952340  17.6092585   3.4604829
  51.3782656  17.2213291   4.8630619  73.7323630  43.6403261  54.6908405
  74.4860462  44.3022027  54.5608895  73.6274420  43.6664253  55.6551900
   9.3867709  42.3165154  43.5150243   9.6959829  43.1907198  43.1817516
   9.1464592  42.5258988  44.4276087  78.0440057  49.2965814  50.5181174
  77.8013252  50.2270982  50.3579122  78.0622123  49.3105066  51.4948486
   1.5814914  52.4263277  49.2243441   1.5597646  51.5456154  49.7219479
   2.4898871  52.6894173  49.3334840  69.5016431  47.9483170  36.6949426
  68.6395716  47.6590737  37.1255173  69.8335887  47.1248844  36.3932648
  73.7176693  51.5448801  56.3531673  74.6691199  51.6291127  56.0252526
  73.8496574  51.0976656  57.2311709   0.5247017  33.8909788  43.3614281
   0.0554358  33.7164535  44.2368082   1.3892580  33.5541384  43.5952997
   4.0653808  58.9664007  57.4410500   3.5354595  59.7721972  57.2590418
   4.8310278  59.0808732  56.8405069  75.9572511  47.8545846  48.4243620
  75.2616293  47.9799156  49.1544527  76.1009964  48.7938638  48.1831603
  67.1708459  46.0111589  54.2552430  66.8345849  45.5904186  55.1233417
  67.5500966  46.8331877  54.6878904  73.5055174  47.7431930  54.5727377
  73.0096310  46.9464166  54.5614480  74.3747258  47.4593604  54.9264942
   3.0795625  66.5863972  52.2867270   3.4647414  67.3027361  51.7615440
   2.3054188  67.1278964  52.6991019   1.0515221  48.7537739  65.1254666
   0.4474700  48.4695651  64.4249380   0.8376114  49.7355367  65.1109768
  58.0641298  58.6948712  63.9492711  58.7451160  58.6604842  64.6303515
  58.6389318  58.3928613  63.1773032  70.0501192  47.4793159  59.2875537
  69.4721241  46.9770203  58.7009629  70.0275068  48.3520377  58.8306855
  11.0731752  47.2495279  66.3384778  11.2230835  47.5956421  67.2460797
  11.6513326  47.8138805  65.7776970  74.6280766  49.8188313  58.2225869
  75.4110859  49.4515860  58.7456946  74.3715550  48.9207543  57.8422600
  77.3699072  58.5518137  60.9346009  78.1666690  58.1153087  60.6023353
  76.9045739  58.6556804  60.1089421   3.0120534  51.2119868  60.1992182
   3.5371533  50.3437943  60.0256885   3.2058737  51.6785624  59.3959392
  72.8471535  42.2049980  52.4748222  73.1000914  42.8959299  53.0600603
  72.8029134  41.4713725  53.1530955   7.4096652  38.3984191  70.0888135
   6.6128413  38.5645756  69.5378532   8.1090492  38.5159544  69.4710383
  59.2908342  47.4866942  49.8770715  58.7874577  47.6100148  50.7521314
  58.4752243  47.5088586  49.2589359  69.0557343  48.1773545  55.6594600
  69.9610513  48.6430880  55.5707467  68.5024558  48.8273073  55.1673603
   7.1958404  62.6276285  50.1882830   6.3846592  62.7019925  49.5557540
   6.9919594  61.6982126  50.5135941  77.8761476  49.0732316  53.4081557
  77.7832015  48.1156634  53.3082331  78.0906617  49.0510021  54.3877335
   2.6043667  49.1653131  47.4932513   2.9809428  49.1661729  46.5923021
   2.3724507  50.0275280  47.7087418  65.8333053  41.0703181  48.9219065
  66.3695029  40.7171759  49.6209007  65.7809999  40.3940317  48.1980364
  72.2667024  44.7878477  46.1663084  72.4251109  45.2978036  46.9856351
  71.4914502  45.2727558  45.8567010  76.0315792  57.9752803  58.4098327
  76.7735341  58.1392890  57.7579258  75.3180953  58.5246632  57.9449814
  69.2987144  38.6407766  65.8653740  68.5372490  38.0637982  66.1602151
  69.4567880  38.1562122  64.9584299   9.2566030  55.6336206  57.4708903
   9.8207860  56.4928708  57.4889483   9.9863155  55.0235674  57.4148108
  73.8981566  47.2887231  57.5859506  73.1318975  47.0961387  57.0534448
  73.6005666  47.0517145  58.4619104  61.1676739  47.2298774  46.5335214
  60.4738152  46.5695475  46.5677580  60.5422552  48.0272381  46.4370408
   9.1541597  46.2710311  51.5305546   9.1455100  46.1841857  52.4793118
   8.1687964  46.5118068  51.3525117   8.8163297  30.6239739  53.1203434
   8.7475907  29.6525739  53.1875372   8.7660205  30.8744921  54.0344186
  69.4943254  41.6632532  54.7288133  68.7431064  41.3107771  54.2654228
  69.0519789  42.3501305  55.3399763   3.4426911  44.6116570  36.6902159
   3.1310645  43.9073348  36.0119125   4.3458377  44.3004255  36.8065461
   4.4607009  41.7706781  57.7777472   3.7955585  41.2937516  57.2109426
   4.0336107  41.5884011  58.6608842  78.3734850  38.2673732  64.8605787
  77.7503079  37.6982142  64.4203466  77.8112262  39.1191653  64.8781355
   1.9890580  47.8664394  53.2249275   2.5675568  47.0900991  52.9537166
   1.1925430  47.2705812  53.4710234   2.6417129  32.5152818  44.3074249
   2.2670059  31.7230526  44.6829212   3.5008025  32.5808755  44.8063955
  12.6654454  53.7900452  41.4584606  12.5779523  54.5668917  40.8710607
  12.7175227  53.0805078  40.7685356  72.7926467  50.7530839  62.3095198
  73.5109564  50.8685506  61.6658922  73.2073361  51.1102138  63.1252022
   4.0303287  51.5902141  52.1810135   3.4640479  51.0719279  51.5938494
   3.5911400  52.4380804  52.2611236  76.8499156  47.3852825  44.6087544
  75.8592197  47.3251486  44.6603624  77.0205543  46.6420743  43.9987002
   5.4744153  52.0505667  41.7311535   5.0323583  52.6774463  41.1256325
   5.3268903  52.3777406  42.5632342   3.4887965  57.2063549  38.0569837
   3.1293581  58.1191114  37.8182839   4.3244561  57.5122210  38.4940708
   5.8805436  37.8898798  58.3049896   6.2307231  38.7212755  57.9283412
   5.9130388  38.0862501  59.2927494  77.8129335  45.3608155  42.5511662
  78.3705097  46.0293762  42.9557964  77.4839427  45.7625834  41.7312436
   5.7697727  54.6427913  39.9153469   4.8933205  54.9376860  40.1157998
   5.6751139  54.2907967  39.0083067  59.9629229  42.4141621  39.7495332
  59.0281714  42.3250470  39.4302901  60.0313640  43.4030532  39.9061132
   4.2140962  54.5531882  60.2854350   4.1094287  53.7885889  59.7140588
   4.5538599  55.2411908  59.7277078   9.8307935  44.6184476  35.2872678
   9.0575280  44.3203118  34.7702882  10.2507532  45.2663546  34.6245910
  78.1259829  41.1536745  44.7911427  78.9759915  41.5455305  45.2099086
  78.5766333  40.6499191  44.0896501  72.3077520  53.5222453  51.4727447
  72.3361881  52.6904599  50.9547946  71.3235656  53.6563821  51.3985896
   4.1228871  52.3782258  65.6769481   4.9956322  52.7722946  65.5740657
   4.3558084  51.4141463  65.4529040  74.4642965  47.7545469  63.0394473
  75.4113696  48.0574775  63.1123026  74.5792635  47.3326468  62.1046549
   3.6455959  58.5799400  43.1034992   4.0640951  59.4957588  43.0129205
   3.3625245  58.6133914  44.0457624   3.3184558  46.2740550  62.7340632
   3.8883803  45.6350871  62.2643491   2.4647315  45.8441646  62.7471615
  72.7355086  46.5342588  60.0444217  72.5212750  46.0438056  60.8602454
  71.8860145  46.8323912  59.7075506  70.2800552  45.5741421  51.9382734
  70.6472781  44.7125048  51.5707293  70.4991859  45.4592747  52.8889552
  70.1123341  50.4066199  66.8004569  69.4207040  50.3204422  66.1248654
  70.7405923  51.0128739  66.3055899   1.8504605  39.8498457  58.4063250
   1.3327512  40.3942385  59.0221886   1.9917099  39.0551572  58.8741082
  77.2530184  54.1494178  63.2651457  77.5732637  53.2118045  63.1318193
  78.0373782  54.6311563  62.9319470   3.1643467  60.8186055  59.9277636
   2.2468775  60.9554967  60.2455072   2.9734850  60.2032450  59.1796866
   9.4996165  50.6184530  42.8649497   9.4953535  51.5110395  42.5080457
   8.6555667  50.2403108  42.6504544  77.4740057  51.9500806  50.0006564
  78.3146119  52.3521020  50.2018825  77.2990638  52.2184392  49.1081011
  51.0858680   9.5407370   4.7831569  51.9664389   9.7689770   4.3339259
  50.5544554  10.0414317   4.1527963  78.4086790  37.5032215  60.5067415
  79.3379757  37.6832834  60.8005497  78.4697853  36.5686901  60.2623847
   6.7473026  51.5961177  52.4031907   6.7970294  50.6533328  52.6267019
   5.7759241  51.7429284  52.3837753  73.0848506  63.5668784  57.2517715
  72.5878984  63.6691250  58.1078940  73.0673172  62.6001037  57.2072723
  66.3054698  55.1184398  41.4358013  66.9552078  55.7989190  41.6935216
  66.8941959  54.5094598  40.9395924  58.7742149  46.0859773  46.2849621
  58.0535846  46.4781863  46.8809473  58.3337818  46.2532248  45.4358577
  77.1549780  52.7939390  44.3281697  77.9836473  53.0349486  44.7825456
  76.4825566  53.2971064  44.8939670  75.5893469  45.4364391  46.9242471
  75.2192143  45.5629942  47.8069263  75.7593220  46.3890915  46.7147423
  75.1083679  46.3876285  38.0941590  75.8475711  45.8886696  37.6158507
  74.3483203  46.1300059  37.4711670  65.4003274  61.1578701  53.6116053
  64.6805576  61.4958718  54.2326253  65.3599156  61.9364018  53.0121366
   2.8046341  41.9565986  50.3471199   2.3973653  41.3288267  51.0151638
   1.9757097  42.3317089  49.9749792   0.7836427  37.1306408  55.7454953
   1.6045441  37.0769772  56.2878755   1.0072158  37.7732374  55.0580619
   6.0852834  57.6108219  52.7335209   6.7122380  57.0228084  52.2009698
   5.2506523  57.2018038  52.4629580  73.1279638  59.4428658  47.9506344
  73.3932975  59.2883109  48.9232223  73.2179006  60.4714508  47.9557114
   6.2756533  43.7363430  58.6174595   6.8333381  43.0711840  59.0639646
   5.5393550  43.1217978  58.2761164  43.3386686  31.8110696  -0.1902975
  43.7252387  32.6919883  -0.4386434  44.1001792  31.4157419   0.3670823
  75.1662156  61.0459472  51.8904401  75.9687408  60.4154887  51.9529310
  75.0820421  61.1493630  52.8349314  78.4566325  60.9051782  56.7038422
  78.4026052  60.8496394  55.7438361  77.8151514  61.6954356  56.8266686
   1.1718705  43.8775468  44.3593515   1.3714101  44.7045494  43.9816943
   1.0530177  43.2928439  43.5827463  75.5831278  41.9309837  51.7331927
  74.7768079  41.5557198  52.1299868  75.1897535  42.5010351  51.0762791
  73.7211541  45.8736460  48.8130617  73.1580401  46.4245917  48.2359063
  73.6952602  46.4983348  49.6051881  78.4687209  58.1384540  56.5995931
  78.7194802  59.0940687  56.6891487  79.3859587  57.7700127  56.3651874
  70.7596949  26.0462737  53.0406073  70.3157232  25.6456959  52.3217376
  70.9073978  26.9626266  52.6377089  13.2424016  49.3834580  52.8017989
  13.7760624  48.6791165  53.1905024  12.8922896  49.0678643  52.0281812
  64.7356507  36.0904327  43.6518021  65.6492666  36.5120682  43.5710166
  64.7808876  35.8248891  44.5652813   3.7692220  52.8842860  58.0753258
   4.3750526  52.4647350  57.4647537   3.0353093  53.2002787  57.5040554
  74.4738786  36.8240763  31.9798642  74.5787704  35.9435083  31.5338180
  73.8531038  36.5874061  32.6910427  70.1626504  45.5917242  70.1538842
  70.9942971  45.2492181  70.4851633  70.2171616  46.5023553  70.6293819
   9.2216755  28.3546718  58.9542434   9.0432637  29.1523211  58.4133661
   9.4570778  28.7542503  59.7911543  75.8942063  35.7984863  45.2461376
  75.3456762  35.7829222  46.1172929  75.2031219  36.2156096  44.7073170
   8.5458347  41.7922044  37.9396741   8.4754779  42.7991919  37.9676214
   8.3577923  41.6658680  38.9419653  78.2569120  37.9571862  46.6733160
  77.5174298  38.3242618  46.0940508  78.7763634  37.4709138  46.0231699
   2.4145977  41.7753799  62.7864454   2.2041689  40.8472351  62.6546349
   3.0807979  41.7522585  63.5107428  57.4133222   3.9790672  11.7523849
  57.6034391   4.1522134  10.8056025  57.3977026   4.9457511  12.0208983
  66.2895657  46.6321137  60.1831705  65.8695271  45.8680992  59.7022449
  66.7316116  46.1239064  60.8738654   2.4942079  40.7116694  55.8922460
   2.0797888  40.4366884  56.7083304   2.1202641  40.1167946  55.2493983
   2.4557340  44.1699019  46.6483038   2.6647146  45.0629384  46.3871776
   1.9331854  43.8538455  45.8720292  77.9563626  63.7938811  53.4211785
  78.7654965  64.2998305  53.5084353  77.4382678  64.1924021  54.1742245
   1.8541434  55.5821515  50.0799485   1.1596546  55.0789570  50.5375562
   2.0121435  54.9582195  49.2899882   4.7766746  44.7808669  60.6916682
   3.8833058  44.9012276  60.2839185   5.2742027  44.4543546  59.9158175
  67.2392704  49.9882715  54.3025969  66.2966350  49.9611380  54.1923515
  67.4519501  50.9177358  54.4905923  74.0406093  48.0986517  50.8649862
  73.0889848  47.9342702  50.8004041  74.1270564  48.7435815  51.5749770
  64.7471205  46.3829922  48.3358880  64.8744213  45.4312007  48.4944434
  64.2298273  46.2587373  47.4625815  73.7187552  40.6330966  65.5096240
  72.9751366  40.2300922  65.9148057  74.4895870  40.3757306  65.9981716
  57.0999172  48.1387065  47.9268829  56.1659483  48.3401297  47.8958325
  57.4888224  48.8787661  47.3650592   5.3623572  38.9619144  60.8584342
   5.2336652  39.9327882  60.7153055   5.2791436  38.9195157  61.8675725
   9.5697800  49.9369717  38.3993738   9.6680365  50.6653331  37.7660179
   8.8207674  50.3715290  38.9459635   5.7349836  44.1124742  54.1641793
   6.2609353  43.8343669  53.3987151   5.0650272  43.3970580  54.2669096
  75.6135126  44.9174402  32.5064118  75.5388202  45.1409586  31.5188010
  75.6494202  45.8962120  32.8629764   0.7344309  39.5917912  43.0941432
   0.5377542  38.6480049  43.2440486   0.8601228  39.5894199  42.1424659
   9.2688717  51.9399427  33.8662260  10.0272404  52.4875563  33.6846466
   9.3419460  51.2582889  33.1689358  77.2852778  43.8316276  39.3708273
  77.9754968  43.3403567  38.7894966  77.0603487  43.0257501  39.9247219
  75.2709698  57.6471206  62.3562934  75.9341235  57.8991649  61.6449033
  75.4546556  58.3733232  62.9892678  68.4106967  36.3055438  34.9332541
  68.0528483  35.4500497  35.2670631  69.0241545  36.0143117  34.2370095
  75.8157973  46.7487214  60.7842386  76.6074129  47.2119851  61.1415351
  76.1383598  46.5449164  59.9098755  77.8472532  32.9198704  57.6285125
  77.8804290  32.4191992  56.8166660  77.4356581  32.2090878  58.2371501
   9.6840509  38.6488655  57.2666022   9.2480645  39.5225625  57.2458023
   9.5848886  38.2813081  58.1159748  73.1591039  49.4395030  66.6192255
  72.7751823  48.9621676  65.8260470  72.5481349  50.1840398  66.6602160
  72.1835895  49.6025109  33.6684972  71.8596827  50.4835992  34.0115880
  72.2036549  49.0802846  34.4863428  62.6292931  52.6395390  65.6466183
  61.9185372  52.0158327  65.3624336  62.4875773  53.4192432  65.0671738
   1.2455832  47.6541859  59.9137452   0.7692565  47.6989844  59.0441573
   0.5808341  47.8308551  60.5939969  77.2162780  51.2127335  63.9330973
  78.0777992  51.1751334  64.3702837  77.2551364  50.4344462  63.3428063
  71.0521219  45.3579881  37.4939844  70.5426028  45.8941257  38.0930640
  71.4475933  44.6246096  37.9906083  78.3741746  54.4945521  51.1917307
  77.5551579  54.2041107  51.6754424  78.9135437  54.7529438  51.9782019
  61.7122841  66.7545039  55.5280773  61.8266335  65.8719064  55.1550472
  62.6091249  66.9971018  55.7779970   2.5893976  57.1058058  47.5900628
   1.9852508  56.8833288  48.3278554   2.9471365  56.1956480  47.3785489
  65.3417876  39.2008212  47.0426316  64.7696090  38.4199672  46.8904575
  64.9864723  39.9209512  46.4433869  58.5592176  13.0124597   6.5330067
  59.1433733  12.5811935   7.2001811  58.3787268  12.2633020   5.9522702
  72.3430954  43.1315902  38.7729410  72.9324875  42.6407415  38.1867578
  72.3871022  42.5120443  39.5636026  72.6968825  62.8457380  53.7996322
  71.7031732  63.0196150  53.7401176  73.0232882  63.4117606  53.1060480
   2.6040993  63.1995999  49.2629306   2.1329747  64.0390490  49.2846842
   3.4214391  63.4327126  48.7548193  77.6064631  36.2879426  48.7136442
  77.8543996  36.9418493  48.0382075  78.2762869  35.5676835  48.4805089
  72.1243243  44.3663916  61.9822256  71.5160471  43.6152148  62.1938908
  72.7785577  44.2382965  62.6965666  36.7927293   0.3675351  46.3070165
  37.0121851   1.2849416  46.0691481  36.4402683   0.5596836  47.2329325
   0.8353338  54.8372423  61.6565006   1.3128590  53.9968295  61.4908414
   1.3753795  55.2497845  62.3551457  15.5522587  70.1432583  48.2664513
  15.1435099  70.9503190  47.8463619  14.7317665  69.5851372  48.3909746
   8.4872448  60.0321023  41.0021286   8.2593260  59.0672020  41.0222117
   9.2481861  60.0228695  40.4361061  71.7163332  67.2973756  38.8428691
  72.6034694  66.9467935  38.7082347  71.3605667  66.5783363  39.5069877
   3.6128532  45.6693846  53.1697986   3.4294429  44.6910948  53.1137810
   4.5011789  45.6496898  53.5395710  78.6409137  61.2515607  53.9165561
  78.4000932  62.1032454  53.5070663  77.9940922  60.6461699  53.4693249
  72.0843990  55.9966128  45.2681223  71.2716924  56.0488392  44.6982980
  72.3028841  55.0408937  45.1753490   6.6978058  53.2847981  50.3061843
   6.9417095  54.2148155  50.6055323   6.9360671  52.7954361  51.0977880
  78.7668298  58.2948481  48.6631861  79.0848681  58.2272721  49.5910733
  78.2131694  57.5255712  48.5569286  13.6953165  53.3946951  53.1761730
  14.2971179  53.2604927  53.9221673  12.8208670  53.3934973  53.5885693
  30.0675007  -3.0106698  47.6255458  30.2202578  -2.7546135  48.5739004
  30.7450487  -3.7403709  47.5597170   4.7378903  60.9069425  40.5840392
   5.1943360  61.7683943  40.2524790   4.9262489  61.1104459  41.5324589
  75.4017679  64.2300551  48.4137657  75.7791782  65.0944041  48.5053290
  75.0121218  64.2890054  47.5276988  38.0660364  -2.0068676  45.4562469
  38.8658953  -1.5939301  45.1546371  37.6458176  -1.2580760  45.9280203
  60.7614775  57.5044179  62.9779702  60.3766646  56.9126394  63.7043734
  60.4487928  56.9829329  62.1711583  59.0410655   9.5039738  30.1317665
  58.9145789   9.8932839  31.0309678  58.2867127   9.7953413  29.6579967
  65.3529914   9.4752299  43.0549763  64.5215548   9.7270366  42.6509901
  65.4404794   9.9053999  43.8705147  54.2815409  15.1656745  15.9961287
  53.5752396  14.5217278  16.1130919  54.1535629  15.5080889  15.1225091
  49.4129783  11.7122737  19.8304487  48.8875844  11.6429617  18.9702605
  50.2118959  12.1156084  19.4322407  48.1854678   7.2786346  57.7291824
  48.8562255   7.7236719  58.3141987  48.8057562   6.4864632  57.4674731
  68.2949074   9.7861021  38.9793636  67.6231909   9.0247717  38.9238037
  68.8352045   9.5763070  38.1914904  34.6999094  72.8374388  40.4871653
  35.6042211  73.0046618  40.4783627  34.7161065  71.8315167  40.4946601
  63.9587786   6.5977107  44.0922784  64.6188910   7.2520177  44.5412426
  63.6426399   6.1315462  44.8790460  64.3346340  15.3437527  38.3787049
  64.6401963  14.4302501  38.1776717  63.4219083  15.2788375  38.0941038
  59.4520513  11.1650487  48.9571107  59.4370281  11.0969091  49.9653132
  58.8576067  10.3612701  48.7842514  68.1833295  11.2461055  44.6962717
  67.2265047  10.9826514  44.8427701  68.4464336  11.7009103  45.4726192
  35.7081700  76.4556884  42.3564146  36.0425742  77.0487000  41.6172382
  34.9605922  76.0126205  41.9135366  35.3476342  74.6667459  45.6909296
  35.5230812  75.5629489  45.4194026  34.4064981  74.5416361  45.5054954
  32.6028046  72.3158111  42.2725900  33.4329589  72.6437863  41.8909025
  32.0873325  72.1294290  41.4505514  43.9193173  13.0849453  37.9823480
  43.9420749  14.0006479  37.8713084  43.0091507  12.9032721  38.3080224
  41.8063601  78.0979436  33.4006025  40.8599864  77.9748910  33.1843108
  42.1736990  77.7431633  32.5257304  52.1011746   8.1516105  49.9489979
  51.8817954   7.2877033  50.3219343  52.5402434   7.9045592  49.1011824
  30.0128761  75.6233987  47.9588416  30.7219476  75.2820632  48.5399733
  29.4489661  75.9472347  48.7114185  77.7696475  13.3315228  51.5841515
  78.4703532  12.7688505  51.1820097  78.2778554  13.7271920  52.3311732
  69.5387763   9.8765870  33.5425272  69.0340113   9.2078043  33.0122574
  70.3429581   9.9189031  32.9873427  74.1036227  12.3258340  27.5148574
  73.1650227  12.0854929  27.2898058  74.0787561  13.2741408  27.3858781
  67.7973401  16.7460367  49.9751976  68.0558402  17.6101333  49.6176457
  67.5519678  16.9518977  50.9057421  62.3649261   8.5971554  47.4798250
  61.4986203   8.7771097  47.0537546  62.1322554   7.8523379  48.0153663
  50.0820494  82.0996627  37.1867812  50.6797778  82.5411250  37.7960625
  49.3863905  81.7526599  37.7775606  57.1481642  17.6497966  32.5090777
  57.1577991  18.0516740  33.4373898  57.8433910  16.9648128  32.7127597
  76.9715614  24.6086497  57.1981956  77.8448757  24.9633118  57.1519740
  76.6363932  25.1975147  57.9800942  71.8124294  14.0752140  47.0991639
  72.2342539  14.2350143  48.0147601  72.5307608  13.4882297  46.7521956
  63.2024385   8.9757127  28.2874084  63.2272859   9.4091030  29.1360468
  63.6403427   9.6959504  27.7127407  60.5622172  12.6475809  37.9591559
  59.5781017  12.6312360  37.8982364  60.6317529  11.6494822  38.1224574
  59.4531213  14.6397791  35.6671633  59.9484131  14.2545320  34.9103439
  59.3852416  15.5995183  35.3129371  39.0278800  76.6029807  28.7499896
  39.9512698  76.4954787  28.9693930  38.9810968  77.5923859  28.6433799
  74.1666422  14.8867009  48.5340172  74.7587630  15.0827892  49.2755326
  73.9127157  15.7821150  48.2352478  65.1376594  12.4869086  37.7510442
  64.6015380  12.3591933  36.9376776  64.6271476  11.8800095  38.3065135
  60.0116182  21.1226913  25.2189151  59.1478984  21.4476216  25.6018566
  60.6128681  21.8101026  25.6928234  61.9109387   6.3546359  40.8419225
  62.4757657   7.0206764  41.2608034  61.2892118   6.1239587  41.5181089
  62.0989151  23.6520569  30.3013037  62.4841798  24.3476138  29.7806881
  62.8089227  22.9391651  30.1813213  66.1638878  12.8430112  33.1878819
  66.2933890  13.2445273  32.2842213  67.0926055  12.8421826  33.5038342
  65.3132337  12.7581643  52.3099410  64.9611298  13.6183022  51.9626903
  64.7810031  12.6000309  53.1068570   1.2230405  18.5476471  45.6824771
   1.8554318  17.8414903  45.4017397   0.7732197  18.7214453  44.8345914
  52.0917680  80.2183147  42.8922197  51.6269898  80.9498496  42.4992245
  51.4557735  79.5039060  42.6510772   0.5762508  20.6300115  58.1691241
  -0.3690536  20.9386801  58.1774324   0.9634075  21.3116987  57.6779136
  73.1703466  21.1747482  44.1753090  73.4564941  21.2431474  43.2010007
  72.5552312  20.3975538  44.0750409   2.9439655   9.8148676  47.4679678
   2.9549738   9.9830769  48.4650805   2.7209542   8.8920294  47.4464632
  67.4015243   7.7642262  42.8762870  66.6042525   8.3345290  42.8405190
  68.0813133   8.4890837  42.6680128  73.1941460  17.1516588  47.6259418
  73.9307800  17.2841702  46.9858894  72.4686802  16.9340138  47.0172489
  44.0681170  81.0683633  30.0580482  44.9966058  81.2726925  30.1502269
  43.7769420  81.1655779  30.9930804  68.9142116  14.1542127  51.2739937
  69.5481114  14.9100717  51.1021612  69.4721936  13.5169702  51.7010426
  33.2668737  72.8625951  50.8773241  33.8132094  72.6727043  51.6873702
  33.0736795  71.9097153  50.6415804  71.2263214  12.4096001  38.7653703
  71.7941495  13.2184808  38.7914463  70.6855122  12.6299372  37.9928971
  57.8038428   8.5884578  37.7554279  57.3578090   8.0148565  38.4613726
  57.6371307   8.0209900  36.9939029  68.3885294  20.4862311  55.3654941
  67.9794945  21.2699952  54.8534973  67.5049510  20.2069118  55.7587855
  59.9006729  76.0477819  38.5184167  59.5663240  76.9533639  38.3221026
  59.1283757  75.5181251  38.2637444  46.6286173  82.3365311  41.8701873
  46.6296886  83.2312487  41.4769785  45.9499242  82.4466335  42.5695604
  53.4639275  16.1714925  34.8628907  52.9248512  16.2521563  35.6509555
  54.2016122  15.5965777  35.1605884  57.8086107  13.6932767  37.5931757
  58.4697753  13.8957981  36.9327267  58.1184689  14.2992202  38.3367349
  77.5652552  16.1560967  45.3920417  77.8259844  16.4143516  44.5004021
  78.2328003  16.6015067  45.9244434  58.9765218  13.3679392  58.4382948
  59.5247420  12.6595048  58.0257002  58.8579486  13.0213509  59.3027269
  72.9162316  10.2833482  34.5901541  72.7822086  10.2253515  33.6034218
  73.2368740   9.3905894  34.7759127  69.0225329  10.1345663  42.4196662
  68.6998074  10.8719364  43.0005886  69.2510818  10.6218467  41.6047149
   1.8467904  14.6664723  32.4087785   1.4897426  15.2963664  31.7430417
   1.4928386  13.8346563  32.1184591  57.1378083   7.7424303  42.1954303
  57.1222588   8.6806927  41.9559659  57.8581823   7.7575622  42.9008858
   2.1307402  16.8639971  42.0809896   3.0742476  17.1467705  42.0669435
   2.0323187  16.4668176  42.9286805  49.3192949  78.1930432  37.0449016
  48.8013999  78.3329613  37.8867271  50.2379957  78.2812984  37.3970004
  72.4361342  12.6605759  30.8322375  72.4957827  13.5865675  31.1364807
  71.4215578  12.5687987  30.8415469   3.0151804  22.7289975  43.6335984
   3.5120274  22.8747859  44.4962765   3.7800416  23.0740532  43.0176769
  45.5518422  76.2357648  43.4228314  46.2345245  75.8419574  42.8893833
  46.1450237  76.3893271  44.2563450  56.7881822   6.9148499  39.6937051
  57.1443943   6.8964072  40.6208930  56.9601549   5.9801873  39.4834151
  36.3889414  76.7356298  29.9208655  37.3003314  76.6439678  29.5488156
  36.6083299  76.6316310  30.8833905  75.4081985  11.1439455  38.4892914
  74.4362729  10.9600601  38.2692191  75.6386618  11.7226786  37.7708972
  66.6894645  15.2174943  44.3985329  66.6123453  14.9096861  43.4578784
  67.5944919  15.0264114  44.5961075  69.0938523  11.9827017  40.2510133
  68.6428600  11.4680727  39.5441191  69.9272004  12.1480796  39.7200808
  63.7257088  13.4379812  33.6009069  63.5130761  12.9826258  34.4571959
  64.7223735  13.1760502  33.5315840  71.5268540  12.9001403  42.0918115
  70.6671747  12.5929263  41.7712973  71.4525471  12.6784253  43.0470928
   0.1563473  14.5594889  42.7608414   0.5839974  14.6514364  43.5980429
   0.6800565  13.8503386  42.3692778  56.3315923  18.3924631  40.7149797
  55.3999516  18.4291143  40.5751563  56.5802131  19.2667085  41.0603299
  52.8043341  85.3324563  38.6653241  52.8595384  84.7987295  37.8690147
  52.2710757  86.1288488  38.3925971  73.0529471  19.0457662  39.3133006
  73.5586873  18.2551228  39.4384736  73.2240553  19.2408404  38.3751459
  69.7829232  12.6489882  30.7238766  69.5751773  13.6074735  30.6139650
  69.2085323  12.4333346  31.4762851  73.3104868  22.8606189  37.7813187
  73.6644275  22.9534046  36.8563935  73.1027898  21.9030752  37.7963709
  57.8527344  80.9555517  42.7565140  57.2995522  80.8546653  43.5340720
  57.7760281  80.0838842  42.3042454  54.2030701  81.8488328  37.3437192
  53.9440962  80.9965599  36.8687023  53.3586079  82.3204476  37.2847833
  77.3255730  15.4927764  32.3999083  77.4366915  15.8785632  31.5283848
  77.8503556  16.1081740  32.9444290  39.9366384  80.6439874  48.6529152
  40.8551603  80.4821290  48.4186958  40.0500606  81.4802159  49.1226379
  72.6848967  13.0986030  35.8743886  73.5892395  13.1326426  35.3890784
  72.4417699  12.2290280  35.5958546  64.4827149  24.9521281  28.9000509
  64.6665759  25.8259552  29.3580402  65.3797674  24.6136561  28.8099759
  21.1899863  72.2313991  32.9492900  21.3827246  71.8914051  33.8620086
  20.3438415  72.6403609  33.0374666  33.4820357  78.5879675  40.0587591
  34.4161890  78.3691593  40.0447693  33.3384363  78.5941953  41.0325025
  50.5384455  82.2354524  51.2540472  50.3026257  81.8125348  52.0956365
  49.7653089  82.7991804  51.0992691  73.9750114  12.1007758  46.0498931
  74.4852724  12.4100304  45.2889404  74.6893447  12.0610484  46.7017644
  67.5162763  17.1061401  41.7431006  67.8313466  16.5048172  41.0561102
  67.1889468  17.8511171  41.2715789  64.8976624  13.6080413  45.7411613
  64.0486389  14.0507706  45.4260002  65.5314524  14.0547207  45.2049517
  66.8438994  11.6059034  28.7299059  66.7288828  12.4640824  29.1347369
  67.6740269  11.8138189  28.2192139  75.2728042  17.0918000  52.2420170
  75.5010738  17.2458936  53.1969762  74.3082457  17.2468151  52.2793275
  56.8303980  10.3568458  41.3845470  56.4940342  11.1435010  41.8672488
  56.4761908  10.5544433  40.4841278  75.0931232  22.9545896  24.5225036
  75.7108855  22.9957835  25.2673116  75.4370374  22.2213766  23.9484366
  67.1584811  19.3585350  51.9806923  66.9802599  20.2535774  52.3477019
  66.4374992  19.2896146  51.3299540  61.5960978  12.6202669  44.3657660
  60.8456915  13.0281446  43.8789882  61.6135726  13.1467013  45.2292626
  46.7029760  83.1835771  46.1867298  46.5290577  84.0046144  45.7073674
  47.4810508  82.8505388  45.7056232  50.3045725  82.8191464  42.7692478
  50.1292989  83.3318545  41.9342995  51.1307112  83.2429787  43.0584215
  60.9010131   6.7517095  26.2827539  59.9117806   6.7940952  26.0688092
  60.8205166   6.9679333  27.2623632  62.6040866  22.7454052  47.7251588
  63.4833368  22.3356064  47.5103986  62.9005767  23.6900762  47.7523331
  73.5783515  20.8249361  53.2672460  74.0670399  20.9471760  52.4033924
  72.8607187  21.4770236  53.1145601  74.1850895  23.2426107  40.2953876
  73.5958910  23.3776702  39.5152743  75.0510252  23.1573787  39.8363226
  66.5606753  19.1052093  47.8611708  65.9600741  19.1712306  48.6181855
  66.0556805  18.4117194  47.3092126  43.3307897  80.3999818  50.3303397
  43.9953671  80.9765012  50.7349757  43.2399624  80.8127850  49.4456029
  64.7597845  19.6282926  49.9817928  64.2755103  20.4013186  50.2765699
  64.3427238  18.8858481  50.4834345   4.3060821  15.5661733  33.0517057
   3.5103020  14.9752311  32.9891584   3.7897184  16.4395742  33.1377363
   9.5406397   8.2082582  39.8664561  10.3867802   8.4349936  40.2030644
   8.9437001   8.2178959  40.7317359  60.4912247  23.2920222  36.5996791
  61.4297653  23.2558277  36.4307180  60.1346254  22.6880106  35.8775069
  75.4525572  21.3287711  28.4897965  75.0543620  20.5545422  28.9424946
  75.0896046  22.0651665  29.0392416  72.6608588  17.0640410  61.6594928
  72.1504134  17.4935860  62.3433641  72.3477608  16.1119756  61.7429880
  70.5538649  19.9507838  34.2794257  70.8844072  20.6686685  33.7550358
  70.1158395  20.3770550  35.0144310  56.3471240  17.4773965  35.1850063
  55.9955456  16.6089802  34.9636207  56.2855507  17.4911559  36.1361236
  27.9071726  70.9988576  45.7543416  28.1356669  71.8133201  46.2607570
  28.1081103  70.3040413  46.4092085  65.9034889  17.6461709  38.7578030
  65.4865306  16.8171905  38.6440750  66.7950296  17.4863767  38.3591673
  72.8466785  12.8277399  59.6615615  73.7970980  12.7692251  59.6164517
  72.6806252  12.7328451  60.6658798  71.7042630  18.8840538  44.2103668
  70.8037129  18.6352380  43.8220853  71.6391558  18.3733113  45.0267147
  59.1061015  12.4006686  26.9988952  58.2447745  12.7445611  26.6840285
  59.5748958  13.2493936  27.0104479  72.6552001  18.0019844  52.6887881
  72.9271279  18.7638423  53.2055123  72.5324837  18.4426385  51.8204531
  37.9044374  73.4724910  48.0266584  37.4440047  74.3151150  48.2026879
  38.5994401  73.7637370  47.4368028  70.4099628  14.4062694  34.5314967
  69.7607538  15.1797596  34.4297201  71.2250455  14.9483962  34.6176191
  38.7341542  71.9999707  32.6323911  38.5860422  71.7271779  33.5547113
  39.5569897  72.5087456  32.7014529  72.1498522  23.3311393  46.2332302
  72.9000631  22.6751892  46.1738638  71.4548336  22.7169267  46.5643727
  36.7247494  73.6378108  32.2476259  37.4778542  73.0136214  32.2646742
  36.2106107  73.1697673  32.9539990  75.5904614  14.8144950  50.9254601
  75.7777954  15.6205290  51.4452895  76.3865856  14.2547785  51.2585280
  59.0581331   7.4663179  44.2240437  59.3408523   7.0482225  45.1236619
  59.7415087   8.1356743  44.2172121   2.0847524  27.6561980  39.5235645
   1.5298108  27.2517546  38.8945468   1.7728927  28.5817969  39.4753218
  56.6926302  15.6641906  40.7623552  56.7339198  16.6058301  40.5601503
  56.1832694  15.6941811  41.6190599   6.8864831   8.4754553  34.7750956
   7.3003242   7.6353833  34.5597252   6.0992714   8.3860671  34.1402186
  59.2897377   7.4600971  51.3327663  58.7597609   6.8749544  51.9218516
  60.1978091   7.3038913  51.6604500   6.3280205  24.1400376  35.3049563
   6.5459326  24.8228417  34.5934210   6.9278828  24.5617547  36.0076696
  66.6091760  17.3271228  59.3122158  66.1624279  16.8158653  59.9825132
  65.9501670  18.0082366  59.1508308  68.6521654  17.5994118  38.0685502
  69.3545378  17.7887648  38.8128574  68.7017136  16.6166377  38.1023234
  68.0231357  15.6325387  33.9371073  68.0468868  15.8725906  33.0209078
  68.0567012  16.4716270  34.4155263  63.4758150  18.5867090  45.2398767
  63.8653913  17.9848536  45.9110045  63.6924536  18.0900022  44.3840589
  53.2662619  13.0022972  40.8953288  52.9553870  13.9120638  40.5812900
  53.8239774  12.7865261  40.1365321   2.3399002  34.3447204  52.5749767
   2.9415511  33.5884630  52.4239888   1.5235214  33.9795978  52.2403235
  55.0141546  82.9553424  43.2575977  55.0947384  82.2477419  43.9044878
  54.1278477  83.3418523  43.5020813  60.0848506   6.5166592  35.6299880
  60.2630151   6.2135958  36.5723644  60.5174630   5.7177834  35.2191523
  65.7879625  18.4472091  61.9365765  65.4269454  18.8639494  62.7113782
  66.6872673  18.8413569  61.9186518  10.7196939  12.0812684  40.3401982
  10.5991406  11.5671650  41.1644156  11.5460290  11.6573809  39.9492360
  75.1727231  21.5497075  62.6258605  76.1306778  21.6042836  62.8453591
  75.1244990  20.5234065  62.6611576  56.0071630  12.3549109  48.7230781
  55.7482475  12.5062250  47.8093564  56.8666997  11.8886041  48.6373413
  59.3614143  12.8590826  30.2837246  59.0115217  12.7901417  29.3891817
  60.1989704  12.4516984  30.2576901  35.4357196  74.2741946  51.5756930
  34.5563706  74.2757441  51.1398767  35.5100877  73.3677180  51.8648236
  73.0012717  10.5688356  37.8010235  72.5678291  10.1474845  37.0817973
  72.2493993  11.0354021  38.2602440  71.2988521  17.0538852  34.0810809
  71.4187673  16.8096877  33.1216364  70.9043170  17.9504914  34.0282911
  56.2990991  77.1687025  31.8345616  56.0708337  77.0442709  30.8667182
  55.8153669  76.4174198  32.2271213  64.4835764  24.0194015  53.4913730
  64.2458495  24.8448851  53.9437288  65.1956788  24.3120207  52.8960474
  68.0735131  18.6043636  29.2365852  68.0739262  17.8943629  28.5076849
  68.7688356  19.1867278  28.7949641  61.4086038   9.5495230  40.7235062
  60.6469825   9.6695714  41.2222982  61.9833155   9.0454837  41.3350288
  73.8988824  16.7341483  34.8019161  74.0727058  16.2179063  33.9911959
  72.9522628  16.6928748  34.9242343  65.2482471   9.6185581  47.5006631
  64.3024801   9.4827854  47.5382211  65.5885148   9.2164608  48.3203683
  56.8893376   3.9035418  35.9046818  57.5848746   3.2585482  36.0640475
  56.5362417   3.4962420  35.0486168  65.5315994  11.1725685  45.2198558
  65.3947404  10.7821390  46.1234278  65.0950096  12.0536497  45.4146668
  62.7856891  16.7058052  54.5874362  62.2599627  16.0089212  54.0198922
  62.8199312  16.1864733  55.3955717  58.0833805  21.3224748  38.6404629
  58.0917346  20.9667570  37.6826339  58.5425427  20.6527128  39.1265318
  31.2523187  76.9192099  45.4687160  31.4161160  76.0316176  45.1269427
  30.7610473  76.6623209  46.3078720  69.8713652  20.3950054  36.8135498
  69.5942932  19.9026132  37.6219165  69.6216851  21.2956594  36.9958198
   2.9808957  12.4233129  28.0619669   3.3775073  11.6102892  28.4377010
   2.0331946  12.3503050  28.3980618  57.2719635  75.9772568  34.9753524
  56.4289607  75.7147081  34.5290557  57.9311725  75.7244718  34.2737710
  62.0406844  14.9343915  37.5039773  61.4767611  15.4632178  38.1089150
  61.5093854  14.1634515  37.2753196   2.4024511  14.0824017  25.8882655
   1.8350097  14.6395012  26.5038418   2.5403094  13.3016150  26.5058054
  41.2039504  77.7559565  40.7810868  41.7733023  77.4837124  41.5779884
  41.6767638  78.6007374  40.6232807  62.0558148  12.5482072  40.4850392
  62.5339947  12.5544002  39.6301390  61.8118443  11.6222514  40.5078451
  28.4401895  44.6512392  -6.7064735  28.7126369  44.3598463  -7.6429614
  27.4781110  44.5945780  -6.7854889  56.6228368  19.3154648  45.1461051
  56.5630007  19.1528060  46.1240258  56.8873552  18.4204292  44.8104279
  61.1610617  16.4758312  39.8742584  61.0569869  17.0228882  40.7240299
  60.3581336  16.8356810  39.4244224  75.1942594  17.6617229  45.8411987
  76.1560539  17.3737269  45.6735154  74.8624969  17.6014146  44.9062206
   3.0150273  16.3007317  36.3822752   3.8419572  16.0784865  36.7162282
   2.9528409  15.8000062  35.5802617   5.8208092  22.7913553  54.5960426
   6.4268400  22.0981543  54.8437375   5.5580895  23.0460428  55.5131071
  63.9938827  30.4810420  23.4390171  63.3082826  30.8832185  24.0157467
  64.1843103  31.2495905  22.8626236  75.6719115  32.3551604  37.0375256
  76.0432028  31.7897065  36.2715188  75.6745738  33.2258356  36.5602784
  61.1788107  32.4903566  22.9403444  61.6009681  33.1274082  22.2949220
  60.8144632  33.0943810  23.5931398   6.2651187  33.3674259  49.5472905
   6.1612695  33.8146119  50.4231285   6.5643148  34.1259913  49.0040191
  72.1939443  29.9655470  40.2828794  72.8849124  29.7733089  40.9950743
  72.7915085  30.1431796  39.5204068  75.1766404  27.8307373  28.8794040
  75.6370463  27.6074746  28.0516249  74.2786437  27.4471813  28.6449556
  77.1573330  22.3911305  35.0759543  77.6833297  22.0572221  34.2978436
  77.8916190  22.7848730  35.6283654   0.8755766  16.2827142  30.6402817
   0.9986980  15.9213536  29.6984961   0.9966653  17.2774502  30.4307983
  75.6900138  18.9571970  41.6314516  75.9418791  18.6849912  40.7355545
  75.9811640  19.8676830  41.6698710   7.2436719  25.3778625  38.9188702
   7.7780353  24.5267559  39.0079680   7.8140846  25.9285113  38.3902628
  78.6037451  11.4661977  34.5008859  78.0684542  11.5529385  33.6900610
  79.3516673  12.1055308  34.3711657  78.6405799  26.4650026  46.2646427
  78.1707212  25.8698921  45.6578540  78.4693837  27.3236902  45.8445613
  72.9980820  27.6134495  45.9246025  72.8248649  28.5525602  45.6695694
  72.5379023  27.2212017  45.1019650  66.6036608  19.4536987  33.7742429
  67.1110020  19.0872332  34.5488493  66.0379840  20.0658576  34.2352279
  77.0143152  28.0287484  51.3000954  76.2339708  27.4192169  51.3339540
  77.7701745  27.4542255  51.4494314  71.9995413  32.8544530  33.7053430
  72.5741694  33.5588160  34.1216449  71.3766981  33.4155006  33.3224093
  76.2486102  23.6640602  54.6415066  75.9810854  22.9379972  55.1667870
  76.5841833  24.3234112  55.2976773  73.8648632  35.0812851  43.0829047
  74.3652263  34.4284536  42.5517808  73.6104249  34.5687882  43.8522384
   3.9873737  10.6268421  45.1635639   3.4989135  10.2943964  45.9586047
   3.2730349  10.8334462  44.5770998  68.5036155  10.6604766  48.7572799
  67.9898577  11.3288297  49.3136638  68.8342575  10.0947390  49.4096762
  74.9885330  23.3284453  48.6276110  74.5731233  24.0879111  48.1472845
  75.3222297  23.7522589  49.4057370   0.7981626  30.0385718  47.1835279
   0.3911567  29.7240505  46.3392325   1.7321995  29.9642329  46.8748033
  63.2636160  22.7512246  35.9983811  63.5894979  23.5384088  36.5096598
  63.1440612  23.2357014  35.1022244  73.2184505  15.2337529  40.0537645
  72.8511678  15.1982990  39.1547027  72.4057803  15.4320812  40.5901599
   2.2443780  26.7541548  55.8363557   1.8585248  26.9785019  56.7113405
   1.5058528  26.5099041  55.3067404  64.2507567  16.8629760  43.1332480
  65.1439106  16.4588905  43.2352451  63.8409388  16.3020086  42.4680398
  75.7473481  18.3062790  49.6835635  75.0559146  19.0141930  49.5784711
  75.5724268  18.0028827  50.6191069  73.9067934  31.4308978  43.0311847
  74.7680758  31.2396834  43.3840840  74.1384017  31.8519143  42.1486611
  68.5991659  18.6584492  46.1240466  68.5711976  19.5857556  45.8685893
  67.8366852  18.4976602  46.6769533   9.3088307  24.8474277  43.8680257
   9.2400664  25.7984205  43.9640279   9.9307323  24.7041022  44.6729241
  75.2845887  20.1295210  58.8964623  76.0756862  19.5255439  59.1793146
  75.8226350  20.9138797  58.5351156  69.6630527  30.4474648  44.1102996
  70.0894223  31.0027994  43.4819618  68.7325448  30.7169124  44.0781272
  72.6509666  26.9408162  28.8042540  72.5658840  26.0054287  28.6771074
  71.9316521  27.2921449  28.2187214  75.8242259  24.1362828  51.7823153
  75.5915498  23.8148752  52.6715597  75.4271655  25.0119957  51.7374310
  71.6686039  21.1790949  49.3838571  71.1914161  21.7271668  49.9820058
  71.0719640  21.1260956  48.6119578   3.6339297  36.2037818  42.5248129
   3.9666015  35.5574043  41.9074198   3.3293782  36.9003901  41.8905599
   5.2550889  36.2590149  39.6337267   5.2376993  35.2996207  39.4102379
   6.0266051  36.2800054  40.2700419   6.8257010  30.5845515  45.4212617
   6.6384254  31.5207134  45.5098170   7.2051510  30.4433834  44.5514423
  77.1077175  21.3610512  47.1638664  76.4015001  21.1160193  46.5193476
  76.5496679  21.6418846  47.9097492  71.8203395  30.4169355  36.5926813
  71.2245439  30.3179069  35.8936642  71.3009329  30.8154832  37.3200059
   8.1899557  35.5594443  43.6583791   7.5847932  35.0604881  44.3208688
   8.7900905  34.7869199  43.4785161  76.6619455  26.0639807  39.8603871
  77.0523548  26.6799961  39.2565517  76.4599735  25.3415188  39.2180265
  44.7541272  78.2638243  36.2057561  45.3516909  77.6294580  36.5916103
  45.3043701  78.7519319  35.5663319   0.5597109  13.6707897  45.3548579
   0.5181280  13.4431493  46.2653003   0.9161141  12.8397590  44.9327281
   1.4646600  17.7138753  26.0428176   1.9489778  18.2610737  25.4408944
   0.5534244  18.0514218  25.9761477  77.7332408  27.0425533  35.2334552
  77.4485933  27.9923284  34.9726653  76.7650592  26.8474697  35.5259153
  64.0920015  21.4493281  52.1420799  64.3722489  21.0595599  52.9988895
  64.0219686  22.4125245  52.4842179  52.8371984  81.2638888  32.9959785
  53.3830000  80.7942495  32.2968246  53.3192404  80.9449600  33.7657947
  78.5694347  17.3757835  34.0035678  77.7037328  17.7702361  33.9444199
  78.7444529  17.2147350  34.9336518  77.3348125  20.3489185  36.9760539
  76.8186971  20.6993111  36.2107832  78.2206201  20.3787189  36.5764854
   3.6920226  40.2168873  29.9839464   3.0521246  40.4426706  29.3321594
   3.1366936  39.6387242  30.6191396   5.1259120  23.5773029  42.2681091
   5.8119765  24.2124564  42.5412882   5.6304671  23.1594905  41.5310623
  75.9878107  32.2336096  30.2937044  75.9783831  32.4594212  29.3687019
  76.4620929  33.0099006  30.7006983  69.3782600  29.9241184  40.7654376
  70.3320650  30.1140218  40.8502834  69.0520444  30.8443461  40.8194101
  69.2791799  28.7287804  46.2905032  69.5972566  29.1575206  45.5086116
  68.6549979  29.4253514  46.6461673  66.4800521  30.6257619  27.8773096
  66.6489834  31.4894534  27.4837492  65.9972057  30.1689919  27.1569227
  74.2607619  27.0484059  40.7189646  75.1654055  27.0740712  40.2386936
  74.6056276  27.0610211  41.6632949  74.8044621  20.9984933  55.7213995
  74.1441497  20.4340890  56.2829674  74.2326117  21.0406937  54.8954841
  66.8581039  23.3641663  37.2943319  66.1677858  23.1234736  36.7036495
  66.6427593  22.8506820  38.0926938   2.7946267  24.5212433  51.4021923
   3.7109177  24.5321282  51.8793341   2.7066784  23.5226334  51.4448329
  71.4815062  16.2054694  31.5271792  70.9874347  16.2888580  30.6975241
  72.2672116  15.7511660  31.1999683  61.2399483  19.8893237  36.4036793
  61.9155226  19.3464670  36.8068345  61.2679545  20.6845970  37.0053967
   0.4158715  25.7900268  51.4202817   0.4517075  25.8705865  50.4289113
   1.2885348  25.3094051  51.4706233  50.9871294  78.1289247  32.6030691
  50.6501854  77.2021601  32.4126200  50.9040954  78.5222579  31.7111099
  73.9009102  34.4535902  50.0988762  74.3466955  34.2503265  50.9744473
  73.0270980  34.7993607  50.4609310  77.5077095  17.4024935  43.0324323
  76.7594855  17.8282850  42.5666205  78.0895584  18.2066539  43.1144204
  73.6616556  24.8378334  60.4664065  73.4061637  24.7902304  61.4331447
  72.9666686  25.3585743  60.1218832  69.3807374  24.7019186  30.2060112
  68.8453306  25.4253632  29.8054725  68.7495036  24.3095859  30.7863923
  74.4846513  22.6748486  35.0586063  75.4983216  22.8252226  35.0401024
  74.1855708  23.2733801  34.3638757  69.4073293  44.8094110  33.4292874
  68.9434352  44.5279963  34.2709889  69.7924709  44.0005567  33.1213971
  77.7906445  43.0785768  53.0752019  77.4601408  43.6480836  53.8136494
  76.8791260  42.7752929  52.7324202   6.4332329  29.8676422  34.8720536
   6.7568830  30.6660803  35.3006563   5.6107602  30.1591301  34.5412242
  74.0208747  37.1871960  41.4440447  74.0152622  36.4450278  42.0921528
  73.3081608  36.8710329  40.8742289   7.9004668  21.3017873  37.4404056
   8.3681112  20.4599789  37.1573146   7.0991021  21.1487707  36.8757913
   0.5481897  36.4268606  39.6507772   0.9729380  35.6161076  39.9964428
   1.2951465  36.6909737  39.0252448   1.7633385  18.7398559  37.3157345
   2.1299852  17.8996547  36.9513520   2.0984249  18.6702322  38.2310652
  73.2127597  21.5229624  31.3822540  72.4205309  21.7302431  30.8652224
  73.7177185  22.3596442  31.2977628  68.3292553  20.0673205  64.2810884
  68.2336437  19.1288642  64.4663745  67.3750931  20.2869525  64.2534817
   3.0927619  39.0251840  44.3199293   3.3029432  38.7141071  43.4704004
   2.1386970  39.3073122  44.1955795   9.3792485  24.3370562  41.2424287
   9.4608050  24.5352492  42.2338593   9.8055077  23.4366078  41.3277152
   4.1808260  18.3273522  44.4482747   5.1639554  18.3242048  44.1104145
   4.2770668  17.6573587  45.1322277  77.8411732  23.4289483  45.5619237
  78.7974592  23.5462717  45.7778744  77.6276414  22.6781997  46.1903749
  72.9375947  30.2434381  51.1912116  73.7209367  30.6533670  51.6183287
  73.3592270  29.7777259  50.4305299  69.1509104  33.3201810  47.6449010
  69.9257903  32.7425527  47.6124397  69.0537169  33.5096178  46.6957004
  72.3951911  31.7667436  26.4426565  72.5456022  31.1504388  27.1795666
  72.9039709  31.2989810  25.7232843  66.8142162  36.0629846  29.8232787
  66.9993352  35.1201063  29.9856986  66.1173983  36.2388317  30.4708966
  77.1788647  22.1558656  58.2440063  77.0519767  22.5658874  59.1604781
  77.1732374  22.9658914  57.7009447  65.5697384  24.8616145  43.4277486
  65.7561419  24.6044417  42.4815446  66.5072089  24.8540968  43.7751603
  77.9988543  19.8773679  44.3077876  78.2443572  20.7379590  43.8552466
  77.0920205  20.0434825  44.5747572  54.4605304  15.5721540  42.6509463
  54.4145749  16.4761826  42.9440739  53.8439570  15.1179070  43.2390473
  76.0880804  42.9642235  45.0602114  76.5496422  43.5226945  45.7822692
  76.7840026  42.2318913  45.0033916  71.0619463  23.3329334  43.6813978
  71.7001831  23.7568691  43.1211346  71.4944284  23.4614143  44.5608666
  25.5950172  53.3775631  -5.4348358  24.8516026  52.8773357  -5.7046762
  26.2566260  53.0995270  -6.1448582  63.6659726  26.8050410  25.2912935
  63.9221727  25.9265198  25.6209121  62.9918393  26.5187592  24.6015044
   4.8101136  27.1523214  37.7744036   4.2082794  27.9612795  37.8299545
   4.2500924  26.6087515  37.1505012   0.0507673  19.3578710  50.6078014
   0.3326406  19.8784897  49.8238922  -0.7424079  18.9070950  50.2152033
   0.6675421  13.7843193  48.1253758  -0.2551176  14.1598915  47.9457396
   1.0094521  14.5248398  48.6396860  70.5167288  20.9814358  42.3020173
  70.8295288  21.8400461  42.7306255  71.4046628  20.6871244  41.9886021
   7.0426780  27.4772977  36.0563842   6.7597390  28.3399436  35.6152805
   6.2810828  27.3871877  36.6679818  74.1193019  12.8106017  41.1349751
  74.1051253  13.6153337  40.5714169  73.2611248  12.8743184  41.6016472
   3.2734644  20.1674434  42.5015958   3.5741544  19.5421777  43.1212199
   3.0698800  20.9660388  43.0367113   0.2563826  13.7854451  37.1908849
  -0.6523887  13.4851971  37.0776695   0.5760611  13.9352686  36.2854101
  47.9886254  77.7653365  28.4418314  48.3582222  78.3258221  27.7388395
  48.7360639  77.7065225  29.0686783   7.0414048  12.8227699  41.2931443
   7.1593299  12.2953388  40.4408796   6.0768667  12.5407714  41.4211240
  73.6433285  28.3647395  37.3243229  72.9579435  29.0647211  37.0625260
  74.1680895  28.9237568  37.8760296  73.3348923  25.4894221  53.3417485
  73.4214103  25.5327314  54.2770061  72.3488284  25.5622911  53.2402464
  77.9547709  17.2710739  48.6031831  77.6277505  16.4286265  48.1791451
  77.0314549  17.5662949  48.9267074   5.1285446  24.6545139  52.6822715
   5.6387580  25.3004336  53.1574380   5.1435518  23.8965927  53.2662690
   6.1710227  15.9171634  37.5500360   5.9267040  14.9490379  37.4399357
   7.1575165  15.9293032  37.4220555  76.4853896  13.4716146  44.4117925
  76.6476914  13.0445251  45.2892703  76.9445619  14.3293755  44.4735022
  69.0020122  26.7057478  57.9946647  68.1757188  26.5597485  57.4613638
  69.6841586  26.5271437  57.2760353   9.1011189  36.8662022  34.9870021
   8.3281120  36.4163678  35.4048437   9.7872401  36.2018025  35.2963347
   5.0864024  38.5981378  54.3804241   6.0769080  38.8160024  54.5001332
   4.7397532  39.4791293  54.2756366  73.3846000  39.7802600  42.6899023
  73.4864382  39.8549979  43.6380575  73.4397173  38.7748673  42.5788940
  78.1581756  32.9728418  38.3412278  77.3140466  32.5420099  38.0400818
  78.3785462  33.5094889  37.5389502  70.4169357  23.2094524  40.2743192
  69.9840568  23.4232435  41.1342148  70.5093344  22.2228198  40.3803924
  67.1169814  16.7219525  53.1606233  67.5261089  17.5549077  53.1861355
  66.8328343  16.5669874  54.0899288  73.9100984  25.3127996  47.1777350
  73.1166624  24.7660533  46.8314298  73.5416113  26.1900872  47.0435081
  73.4278461  24.3852161  42.7711055  73.6469835  23.8960721  41.9549884
  74.3098195  24.7002524  43.0568755   4.3647781  21.2524512  38.2752117
   3.6322130  21.2737081  38.9801559   4.4908504  22.2462424  38.2034692
   4.8635092  26.8207705  54.5790250   3.9784055  26.6207102  54.8371155
   5.3872374  26.4512984  55.3065494  76.6615887  24.7049233  37.3619205
  77.4228679  24.9099137  36.7841618  75.9767032  25.2245889  36.7807461
   7.2152697   9.9273986  52.0532522   7.8306442   9.4199333  51.5538440
   6.5783223  10.1978517  51.4077089  74.9105246  23.4754217  30.0637845
  75.7619107  23.9741348  30.0940139  74.3930428  24.1466119  29.5920108
   0.4030365  23.5194172  36.4784154   0.8531165  22.7119700  36.8848029
   1.0469402  24.2271133  36.6768424  25.8365461  58.6773351  -0.6246441
  25.8933089  58.5185859   0.3624519  25.7247665  57.6971183  -0.8889216
  73.2079723  14.5273677  23.2946463  73.8021457  15.2063377  23.6126901
  72.3868191  14.7326099  23.7340936  66.5387253  21.2522919  43.6702997
  65.7136646  21.2460014  44.2387715  66.2023546  20.6160760  42.9754142
   2.6741917  18.5464128  39.8062437   3.2375914  17.7620861  39.6882626
   2.0048132  18.1845276  40.4591956   3.2328940  24.1112169  32.5732019
   2.3157415  24.0178007  32.2900603   3.2232511  23.7664240  33.4890356
   4.2551898  14.5866070  28.9719232   4.6482170  14.7625099  28.0710786
   3.8501076  13.7118514  28.8110702  70.9962827  21.0227078  58.0974259
  71.8055207  20.6789327  57.7654007  71.0107026  21.9672211  58.0394533
  78.0953970  21.0652467  24.9664668  77.8531774  21.7202658  25.6437667
  78.0871774  21.5897943  24.1268163  75.5894620  25.2659211  44.6867858
  75.2524530  24.9202145  45.5751539  76.4522621  24.8013151  44.6056721
  72.5862076  27.7551859  55.7453679  71.8072696  27.1326826  55.7917620
  73.3009992  27.1004775  55.8877593  63.8204235  33.5507689  49.4902777
  64.7406410  33.9444226  49.3247961  63.3534377  34.3605445  49.7570281
  70.1715531  37.9489907  42.5956340  70.0144201  38.8649248  42.2816480
  70.3787974  38.1739643  43.5676192  70.6047858  36.2924908  53.2017266
  70.5301873  35.8123618  54.0575990  71.4491975  35.8346728  52.8629684
   1.2973013  39.9729894  34.1190157   1.4281417  39.2989151  34.8648451
   0.4874133  40.3910332  34.4119920  70.2278165  42.0440579  34.4330337
  70.0843945  41.2659787  34.9592741  69.6168626  41.7443392  33.6472245
  64.1467509  12.6923932  49.0168831  63.6379698  12.0182565  48.5995703
  64.9138763  12.2003526  49.4406103  10.5205981  41.0527439  52.6423186
  10.2098036  41.9812807  52.8037860  11.1867705  41.2350661  51.9595167
  71.7151844  16.9434524  17.9571130  72.5123861  17.3711977  17.6260692
  71.7941430  16.0823831  17.4825967  75.1682811  54.3001010  48.5842105
  74.5188806  55.0074024  48.6761469  75.3459512  54.1449965  49.5480876
  71.8513059  26.3470283  44.0258768  72.4522518  25.7174006  43.4739927
  71.3180457  26.6525209  43.2561625   4.0825185  12.6388437  31.1329559
   4.0003617  13.4410749  30.6297838   3.1164477  12.3506600  31.1748278
  72.8319732  20.8106332  41.2449603  73.1715094  21.6215664  40.8292151
  73.0574390  20.1975323  40.5033095   6.5552422  34.6497570  45.3901462
   6.7499739  34.5624480  46.3777203   6.0049916  35.4656633  45.3776150
   8.7184944  39.8146241  42.6738471   8.9081863  40.6992488  43.0019684
   9.4365331  39.6901648  42.0343312  71.2416414  46.5560853  32.6761562
  70.6915050  46.4519768  31.9009534  70.9763768  45.7342221  33.2146786
   3.7554178  43.6203553  31.3860797   3.3023618  43.1335922  32.1521622
   3.0989519  43.4980000  30.6737532   4.7286643  36.4799001  44.8647431
   4.3705780  37.3457440  44.9662997   4.4244141  36.3088274  43.9006544
   2.6800331  36.9762956  52.0533637   2.5593414  36.0802453  52.4366113
   2.3435811  36.8389481  51.1579480   7.7003994  32.2000120  35.7881278
   7.1846994  33.0093232  35.7819360   8.1934395  32.2960596  34.9660423
  74.2820370  29.3225336  48.8587995  74.2212259  28.3313400  48.8623343
  74.3221260  29.3972289  47.8908681  74.9660399  27.7599665  43.5119009
  75.4619626  26.9384713  43.6315158  74.4912212  27.8498348  44.3655891
   1.7531621  40.9793574  37.1824883   1.7728314  40.0644643  36.9013126
   2.6153838  41.3175973  36.8206348   1.8385681  28.5453819  49.1529107
   1.2773556  29.1229514  48.6423348   1.6474377  28.9611318  50.0904350
   6.0654495  44.2603625  36.8132041   6.8099028  44.6698319  37.2748919
   6.1875583  44.5424451  35.9082015  68.0166172  30.8870514  35.9273379
  67.1510694  30.4977131  35.6707822  68.6122186  30.3516102  35.3328123
   4.3460522  49.6744491  40.1921837   3.9384260  50.5809207  40.1410727
   4.1403053  49.3976228  39.2642237  72.9942217  44.9883911  35.5302528
  72.8162281  44.0567140  35.4360504  72.2500074  45.2604060  36.1067517
  71.8125470  49.3270893  36.4125173  70.8936898  49.0078407  36.4011649
  71.8233947  49.5654455  37.4263227   4.8928621  41.4621254  60.8902656
   4.4238728  42.0909976  61.5102761   5.6893999  41.2791502  61.3777050
   7.4531990   7.7087002  30.8163637   7.8430155   6.9735911  30.1605317
   7.3347606   7.1378987  31.5753229  72.6490320  17.3648989  28.6709422
  71.7641501  17.2075996  28.2907358  73.0762798  16.5305153  28.3675605
  22.4175014  46.1478798  81.4536617  22.2637021  45.2242050  81.2980110
  22.3613696  46.5636322  80.5896367  72.0408729   9.5264143  31.9504418
  72.2882679   8.6078419  31.6015591  71.6329086   9.9028830  31.1437443
  28.1918652  50.4072486  76.5317533  28.2282562  51.3563414  76.6682667
  27.2667365  50.2792121  76.3043375  61.0807826  74.3540012  25.1836143
  60.5126218  74.2078610  25.9500364  60.6599181  73.7068253  24.5027127
  49.0672130  82.5563224  30.5679904  49.6895656  82.4154249  31.2989858
  49.3646826  83.3421675  30.1384934  51.3054044  72.9917539  18.6454583
  51.6813184  72.5353623  19.4523617  52.0394549  72.9504891  18.0173891
   5.9134041  15.3864464  30.9554438   5.3366140  15.4169944  31.7189882
   5.3598685  15.1659390  30.2371394   6.5477102  15.3966892  34.7812338
   6.1804596  16.1648340  35.2174770   6.0748543  15.4541513  33.9132156
  66.4385643  14.6359954  26.8853949  65.9639267  14.4152759  26.0914269
  67.0963337  13.8760158  26.9030233  48.6561412  73.2670512  22.6787137
  49.0631925  72.4070452  22.4984567  47.8625908  73.0258698  23.2262080
  69.8462380  11.4914913  19.1560269  69.4080560  11.6800012  18.2395808
  70.6119550  11.0084954  18.8099789  73.3744729  23.7696580  20.0558529
  73.2964490  24.3414878  20.8294932  74.3331070  23.9254827  19.8256045
   5.4325345  10.1960793  23.5557513   5.2014102  11.1042750  23.3605362
   6.3703095  10.2137387  23.2077492  74.3384202  19.0641977  29.9519119
  73.6697825  19.4450865  30.5639440  73.6979937  18.5583791  29.3425268
  76.1270177  14.5007722  20.6251668  75.1843672  14.9346883  20.7614946
  76.1487304  14.6547716  19.6327826  77.8021796  34.3050258  30.9999077
  78.1207297  35.2466680  30.9231286  78.5121101  33.8469814  30.4207895
  59.6772264  75.0849501  30.8192516  60.0112811  75.9868472  30.8206491
  59.2689469  75.0099433  29.8932107   3.7007550  20.3615777  35.6510903
   4.5658166  20.7320833  35.4557587   3.5227945  20.6976734  36.5990610
  17.1359342  34.4754005  25.8274280  16.2413892  34.5062792  26.0857878
  17.1045326  34.5958205  24.8676183  69.9622129  27.8471149  22.9451207
  70.3538101  28.3591330  23.6791709  69.0079603  28.1340947  23.0093939
  77.2130607  25.4183282  26.1517281  77.7671887  25.0743348  25.4373482
  76.7101947  24.6085442  26.3992277  30.4707139  53.2975815  83.1578703
  30.7139265  53.5792499  84.0680820  29.8164143  53.9540605  82.9370222
  22.1278492  55.0116522  74.7710613  21.8472839  55.7854399  74.1880490
  22.4703591  55.4663513  75.5225215  75.1718599  26.2937128  35.7857089
  74.3228804  25.8785901  36.0832249  74.9500680  27.2202066  36.0700130
  16.5942350  14.8939887  38.7240085  16.0820118  14.4692231  39.4306669
  16.4460144  14.3123987  37.9635186   4.0463964  23.0792458  24.9857653
   3.1791592  22.5758707  25.0871091   4.6420384  22.3783888  24.6666091
  24.8734688  47.4116653  79.6236059  24.6041894  46.4495679  79.4121850
  24.9185834  47.1795859  80.6217702  70.3417339  18.1881505  40.0980062
  71.2272424  18.5033591  39.7505046  70.7455443  17.5905496  40.7876413
  78.1490689  33.8825860  26.7720534  78.2198027  33.1143530  26.2425500
  78.2291806  33.5125189  27.6712138   7.2843216   7.1278666  24.1021484
   7.6958233   7.7606725  23.4881289   7.0475900   7.6552609  24.9144341
   2.0200015  16.9307402  22.5156313   1.5144849  17.6367328  22.9222249
   1.4836819  16.8328732  21.6891669   5.0933637  48.1338333  69.1999923
   4.6876413  47.2366785  69.0595074   5.1933303  48.3806742  68.2906155
  12.3365840  38.5925111  72.1248587  12.9485100  39.2603238  72.5274749
  12.3280102  38.8481552  71.1945210   4.4133608  38.1391876  63.3139792
   3.6052266  37.7090846  63.7077239   4.5793383  38.7674767  64.0365829
  49.7471814   6.7602500   8.2093849  49.9683418   6.1006808   8.9056622
  48.8685757   7.0422222   8.5420200  10.8848196  40.6854127  60.9334391
  11.3825250  41.4438229  61.4150931  10.4521621  40.3613737  61.7804172
  20.3388573  29.9055074  71.2323915  20.0384282  30.3022531  72.0358209
  20.0123010  30.4895656  70.5589435  22.2110536  41.2681150  71.8833634
  22.8692741  41.1785427  72.6064338  22.1147561  42.2647426  71.8529678
  62.2752138   7.7249585  17.6083879  61.8318958   7.9572209  16.7771635
  61.7428906   8.1946050  18.2525976  12.8596230  51.6618575  71.8378857
  13.2350080  52.4990502  71.5389631  12.8007178  51.1635542  71.0190283
  33.0351942  76.9142611  27.5567447  33.2555770  75.9754407  27.7770447
  32.2719559  76.7396581  26.9166460   7.2692367  42.2790132  69.4300522
   6.3159905  42.2164674  69.3908764   7.4346944  42.6566182  70.3395818
   8.8205603  52.4705524  66.7273080   9.7269901  52.8318361  66.8377870
   8.2793162  53.2864951  66.6817291  57.6504936   8.4335574  10.3310367
  58.4529079   8.8446565  10.6315900  57.0909409   9.2534985  10.2703972
  59.8472930  10.0602633  11.5580419  60.2015333  10.9770440  11.7030112
  60.7347204   9.5933535  11.5075896  20.1613052  40.9578411  63.7737538
  20.0182089  40.2595375  64.4172255  20.1295632  41.7672580  64.2681699
  15.3075374  30.0547745  61.4945021  16.1981306  29.9983295  61.9222287
  14.7533576  29.9421451  62.2834592  14.6638807  40.4396534  76.3661578
  14.5498396  39.6162049  76.9028797  15.2873098  40.9131643  76.9265090
  43.7400545  65.5270834  13.6551236  43.4717595  65.6894371  12.7778339
  43.0479094  65.8544001  14.2298329  14.6536398  52.4120557  69.3849655
  13.8997356  53.0485376  69.2682756  15.3525002  53.0731681  69.5488120
  46.8629227  79.6153144  21.7651444  47.7038447  80.1153476  21.9288145
  46.3958150  79.7526721  22.6359209  23.5826668  54.6146878  71.2873415
  23.1863759  53.7240807  71.2945720  24.5356461  54.3771334  71.2171944
   9.8808252  48.9608498  59.4208039   9.8599071  49.9111289  59.6254364
  10.3822124  48.6350006  60.1518580  10.8437518  41.6604012  76.4351731
  10.7640961  41.1123411  77.2856744  11.6359712  42.2238442  76.7001214
  22.6427606  50.7210033  73.5055826  23.4163267  51.1906580  73.2853114
  22.6606800  49.9439911  72.8646858  32.0371999  50.3574294  73.9250880
  31.6735133  50.8702057  73.1654842  32.8798775  50.0461821  73.5042268
  53.8898260  64.3166346  22.9890770  53.3134420  64.7392241  23.6808236
  53.5385620  64.7559325  22.1506067  31.6104097  74.7211418  13.2711049
  30.7796173  74.8028383  12.8001679  31.6596374  75.6953244  13.6556760
  66.2898635  13.1708616  20.9800095  66.3158769  12.9206851  20.0182172
  66.2515841  12.2616535  21.3579815  44.2929278  71.9906011  15.8222320
  43.5960623  72.2835012  15.1554801  44.7784172  71.3978578  15.2385278
  32.4908884  49.4812721  76.6214780  32.2719410  50.0463398  75.8561958
  33.3744629  49.1493156  76.2847173  17.8501651  48.0546011  72.8786747
  17.3365895  47.4002216  73.3648041  18.7890026  47.7374906  72.9476352
  28.6796128  44.5143658  65.6828332  27.7062449  44.3146896  65.8038998
  28.6431158  45.4587463  65.9449552  15.6058180  47.6852621  70.7071653
  15.7075177  48.2039984  69.8573691  15.9243777  48.3064953  71.3326593
  17.2776102  54.8608079  72.4823238  18.0166426  54.2943262  72.2596830
  17.5163786  55.6845025  72.0804239  56.0232994  16.3251859   4.4023338
  55.5211054  17.1663807   4.5831890  56.8497595  16.7805640   4.1136050
  17.5212739  41.6738118  74.8434737  17.5527845  42.6037574  75.1625639
  16.6581969  41.6834629  74.4201456  12.3585224  15.7488080  18.1272190
  11.7656310  16.2086791  17.5077318  11.8459858  14.9329894  18.3039120
  11.4744722  52.0922687  63.0509533  10.5719918  52.1419478  63.5142588
  11.5363266  53.0528439  62.8635398  25.9249568  46.9303667  59.9781130
  25.3081531  47.6112022  60.1954451  26.4086230  47.3162347  59.2071352
  16.2415930  49.6972744  75.0795321  15.8526174  50.5487566  74.9550620
  16.3905344  49.3510244  74.1595506  26.3032060  47.2922646  67.3641728
  25.3672753  47.0160569  67.4501884  26.4975981  47.2561851  66.4298149
  21.0341493  43.6616218  79.1539353  20.9690689  43.6734708  80.1300639
  20.2202307  43.1189332  78.8969600  27.8913050  49.4426031  63.7604828
  28.6763515  49.1769977  63.2382223  28.2416940  50.2890002  64.2100528
  24.6089755  49.1063091  75.9104852  25.0381071  49.9990624  75.9878657
  23.8063606  49.2912772  76.4418128  16.4585177  45.3585413  71.4298264
  15.8055349  46.0621505  71.2266325  15.8394148  44.5492511  71.3187092
  28.9858701  44.2610384  77.6010967  28.0707221  43.9690087  77.9395523
  29.4647996  43.5808125  78.0884581  17.4835225  53.4393338  67.0637006
  18.4238143  53.8166044  66.9896263  17.2898415  53.8216553  67.9685434
  31.7805453  68.2018766  10.9970072  31.9746537  69.1869244  11.1471702
  31.7514381  68.2271277   9.9903967  19.6867769  37.7636231  63.9129442
  20.6788949  37.5810364  64.1597032  19.3747105  37.7709041  64.8750841
  21.0724358  63.1890958  74.6354517  20.8325252  64.1570830  74.6245021
  21.4874099  63.1222223  75.4984392  64.0191599   7.9902096  21.3373375
  64.0530392   7.8814802  20.3854491  63.1539377   7.5516597  21.5253298
  40.5133436  80.9296181  18.6924855  39.7719463  81.6373913  18.6325793
  39.9237271  80.2505036  19.1293210  23.5678422  49.5135427  78.5692948
  24.0637498  48.6639579  78.7261268  23.0556361  49.5566789  79.4218400
  73.2270242  11.4460268  19.9448968  74.1726088  11.2568869  19.7495271
  72.8026512  10.7724462  19.3287804  51.4599046  71.1874702  24.9343954
  51.9349678  71.2174940  25.8250505  52.2479590  71.1922734  24.3718217
  59.0467214  33.5903667   3.0211104  59.8981911  33.1135917   2.8478379
  59.3091722  34.5425910   2.7728815  22.4548063  32.1014764  74.1088402
  22.1917724  32.9421388  74.5762576  22.3426710  32.3522761  73.2039684
  61.2972586  19.7075427  19.4674382  61.8711030  19.0752991  18.9840071
  60.7879800  19.1690162  20.0856320  19.1814397  49.0101621  68.0789175
  19.4571794  49.8119658  68.5459656  19.7798251  49.0259573  67.3166959
   8.2100303  51.4831445  70.6874998   8.1854697  50.9717183  71.5607942
   7.3102195  51.2942405  70.3893651  27.6433936  44.6363249  55.3783725
  28.4758098  44.9688678  55.7733041  26.9928468  45.0828957  55.9893900
  30.2574966  52.0108641  80.7272592  30.5680785  52.3774378  81.5516452
  29.5465562  52.6371300  80.4975981  44.5096826  15.1013615  18.7582973
  44.7989461  14.5421344  19.5394607  44.4909787  14.3624471  18.0457231
  13.5340336  48.5708125  73.5435084  13.5652770  49.3696302  72.9845290
  13.2281167  47.8903505  72.9041737  26.8198410  59.4430656  70.2563118
  27.0691995  60.1905355  69.6094383  26.5639090  59.9826749  71.0295764
  58.6282602  10.2644630  17.9746199  59.0184887  11.0590892  17.6123594
  57.7004288  10.4535701  18.1190565  20.8373457  49.2903623  74.7170284
  21.4922186  49.9794098  74.3556213  20.2653835  49.8306165  75.2289037
  17.2289883  45.9832928  58.4447383  17.9591919  45.3864651  58.4275631
  17.5772614  46.8043521  57.9836873  50.9347613  75.6597115  18.8340933
  50.8838610  74.6934156  18.9459118  50.7504228  75.9896525  19.7098713
  24.0249557  36.5081962  76.6375135  24.2505343  36.0825836  77.4918986
  24.5637212  35.9810663  76.0221069  40.0667151  81.3149063  22.5973854
  39.6776180  80.7917714  23.3568999  39.2351476  81.6294137  22.1953492
  31.7343886  37.8500935  80.9993787  31.5882721  38.3231782  81.8507419
  32.2445345  37.0695017  81.3026519  13.9081281  50.2024307  67.9537218
  14.3091617  51.0682724  68.1029965  14.7112935  49.6396019  67.7101227
  16.1364833  57.4381718  64.0197657  16.0032150  58.1874325  64.6261906
  16.5908149  56.7908290  64.5853446  27.0213292  50.6736919  70.0437334
  27.6536000  50.5405951  70.8045021  27.5616951  51.2566622  69.5085003
  66.2781579  18.2983342  15.5290631  66.4751133  18.9361477  16.2122844
  65.6580683  18.8659495  14.9775487  32.2564359  71.7772650  15.9368439
  32.0788747  72.5896883  16.4762268  33.1933825  71.5510814  16.2526200
  51.6201981  16.0398593  17.5187336  51.3117983  16.2863324  16.6168921
  51.2109415  15.1943614  17.6698669   9.5971129  43.6349962  75.3118890
  10.1512331  42.8127710  75.6402368   8.9550568  43.1481254  74.7097683
  29.3608102  46.0632982  80.7661491  28.8073573  46.7905475  80.3697004
  28.6868239  45.7645055  81.4218709  30.0361310  55.7429731  73.7594768
  29.7465299  55.2980218  74.6096258  29.4665545  56.5276822  73.7255405
  20.4850247  47.2365932  72.7754053  21.1083043  47.2773575  72.0072625
  20.6716953  48.0501791  73.1928073  23.7120270  56.0781542  76.7230357
  23.9401737  56.8970920  76.1886035  23.7190459  56.4603695  77.6043255
  19.2539942  53.2340613  72.1078107  19.5551944  52.4794085  71.5741642
  19.7276596  53.1032568  72.9692559  26.2053658  54.4463436  71.0415402
  26.9602847  55.0599138  70.7733803  26.1248559  53.9283543  70.1887258
  28.8364257  52.9064995  77.3419167  28.5647801  53.2319675  78.2319426
  29.7641402  52.6375578  77.5031428  34.0056322  49.5136944  72.2977434
  34.9525367  49.5728786  72.5293315  33.8328473  48.5675918  72.4575613
  28.2682933  44.6262190  85.2546051  29.2291427  44.9471487  85.4589859
  27.8047402  45.3273259  85.7269369  60.2032961   5.4915009  13.0472310
  61.1128872   5.6154528  12.7807970  59.7388275   5.5781447  12.2601444
   2.8515039  38.9819105  69.9692339   2.1192240  39.0116353  70.6278157
   2.6321796  39.7326200  69.3920321  14.8340236  57.1491452  59.6119837
  15.4291355  57.7328462  60.1767179  14.9915365  56.2721786  60.0060280
  20.7545076  52.5133388  74.2255872  21.5528941  52.0263632  73.8917143
  21.2106948  53.3805308  74.4060068  29.2190973  47.6118180  65.5058099
  29.0358086  47.9433040  66.4494951  28.4310614  48.1125166  65.1281396
  31.3743848  52.2816333  77.0280641  32.0442307  53.0062924  76.8531571
  31.0345727  52.2068485  76.1063102  21.9675525  46.6974866  67.9159836
  21.2572083  46.2298080  67.4924545  22.7680220  46.1406237  67.6062981
  26.9523888  37.5229545  80.0705488  26.8327853  36.6204793  79.7469617
  27.5532860  37.3467706  80.7834085  28.1763120  34.6833365  68.2439163
  27.7937066  35.2241427  68.9254088  28.4404675  33.8859052  68.7539653
  31.0490172  49.9782614  66.9431435  30.1029031  49.8788660  67.1966433
  30.9790130  49.6063051  66.0067500  29.8081009  26.6086365  66.3757469
  30.1002398  26.2371315  67.2224467  28.9182986  27.0028510  66.6801308
  18.6050763  47.3072669  76.7120537  18.6324322  46.7901462  77.5494294
  18.1806256  48.1011780  76.9932457  27.5085129  40.3325646  78.8095269
  26.8462784  39.8917264  79.3492593  28.3691796  40.0115566  79.1672469
  52.4001689  67.7780929  20.9103879  52.6934236  68.0396461  20.0119833
  52.7172825  68.5805412  21.4102895  22.2709629  39.5583159  65.6032269
  22.8695022  39.7475841  66.4151761  22.4447255  40.3483020  65.0965795
  50.6339711  62.6982157  10.4216316  50.7693353  63.7102686  10.2632927
  51.3437304  62.3386595   9.8801682  27.7937066  35.1680613  76.8260036
  28.3048075  35.0624023  75.9948949  28.4538643  35.7123638  77.3735247
  25.8833402  38.2354842  70.4329771  26.1787019  37.3063074  70.1960555
  25.2623129  37.9968981  71.1557613  58.0099701  66.9926936  24.1489441
  58.4620178  66.7747003  24.9810308  58.7517015  67.2617775  23.5919113
  22.8741115  34.1193192  67.7860679  22.0157379  34.5433953  67.6480906
  22.9872476  34.2277774  68.7443804  26.3655759  59.5816402  66.2782533
  26.9136731  58.7967469  66.2562841  25.7100482  59.4763158  65.5409728
  29.1540424  40.7766365  66.5598484  29.4767270  40.1632925  67.2382401
  28.2908182  41.0520117  66.9610474  20.9938330  41.8685790  75.5488100
  21.6132045  41.7140969  76.2455107  21.1664706  42.7796637  75.3229995
  49.4771428  67.4303724  22.0313560  49.2275516  67.6629237  21.0910226
  50.4145225  67.5902320  21.9509826  31.1548028  51.8426027  72.0932927
  31.5026277  52.5481265  71.5089096  30.6299835  51.3515465  71.4384800
  25.1104526  56.6395351  58.0227965  24.4080366  57.2578698  57.6085507
  25.2093979  57.1730093  58.8657060  29.9773300  29.5783519  69.9529568
  29.8458136  30.4470158  70.4801034  29.2122161  29.7207583  69.3247798
  24.6192738  34.5494111  64.5227998  25.2420731  34.9530355  65.1975149
  25.3018439  34.1136380  63.9559145   3.8277400  31.9947059  20.0668049
   4.7312476  32.0909474  19.7015817   3.9911138  32.0255511  21.0295579
  72.3631671  30.3785220  13.3141282  73.2319428  29.8621634  13.2502760
  71.7892292  29.6280513  13.2737598  16.2897340  57.9963659  66.9809763
  15.8126443  58.6666533  66.4664065  16.4370746  58.4839965  67.8527118
  12.5904147  19.1727795  15.7173639  12.3252959  20.0861581  15.3341563
  12.8643346  18.7705914  14.8590952  38.9450098  52.6411115  78.8540569
  39.2098257  51.8651836  79.3929030  39.4950842  52.4866103  78.0562154
  36.0145479  61.9456119  69.3070988  36.8669716  61.6404503  69.6352914
  36.1975202  62.4068958  68.5192721  38.7366172  40.6414895  83.2838798
  38.2325334  41.2257188  83.9583932  38.4177684  39.7807851  83.5829287
  27.7169290  64.5998973  70.3965845  27.6641188  64.3051631  69.4504323
  28.6613099  64.5767860  70.5310093   8.9702790  28.3471961  25.1667296
   9.8226607  28.6728401  24.8609428   9.2296149  27.7123213  25.8342855
  28.1597493  57.1190363  62.1844492  27.3700274  56.9137268  62.6828447
  28.2819564  56.2706435  61.6850259   3.0489453  20.7097527  17.2134612
   3.4926862  21.5732315  17.1205152   3.4659670  20.2043155  16.4981006
  25.4533160  58.3989500  78.8055816  25.5787117  58.7713341  79.7520759
  26.1223048  58.8851536  78.3478508  28.6757162  63.3553709  77.8979019
  28.3338048  64.2841571  77.7913688  28.6021993  63.3067760  78.8947225
  35.0739879  50.4949761  82.1990845  34.9890495  51.4880549  82.0178090
  34.4165152  50.1773761  81.5651453  34.7833787  58.0543339  69.6572725
  35.7464129  58.0219084  69.5285317  34.5502318  58.5147584  68.8037262
  73.7222648  18.1749806  16.3413011  73.7616995  19.0330685  15.8149505
  73.1796847  17.6270200  15.7009130   8.2235019  32.8139285  23.3044652
   9.2204775  32.6195151  23.3781874   7.9040851  32.1933684  23.9952396
  22.2300337  63.1100813  69.2337562  21.9545343  63.8414100  69.8498362
  23.1458154  62.9344257  69.5739008   8.3104529  28.2969107  20.7409938
   8.7192928  27.9131249  19.9494057   8.5218987  27.6905309  21.4609786
  62.7031354   8.6361894  14.9132851  62.1349046   9.4240151  15.0247956
  62.6768212   8.5089296  13.9894357  37.7406850  67.9784244  69.8916079
  38.2499029  67.1682680  69.9529639  37.1674999  67.7605379  69.1407287
  28.0588423  57.7682902  66.0213423  27.4898374  56.9737904  66.2323459
  28.7001243  57.6638150  66.7816989  26.3420633  61.8039398  79.1317125
  26.9200297  61.0671596  78.8523396  26.9648603  62.3434163  79.6579702
  30.2573134  52.6831824  74.5275878  29.5322313  53.0314696  73.9687600
  30.8740411  52.3861283  73.8387476   8.1605671  28.6077575  12.4201710
   7.4256552  28.4196848  11.8290516   8.8792553  28.1135962  11.9325645
  11.7057141  21.5188608  14.7501240  10.8734554  21.2266133  14.3270534
  11.4011413  22.3367610  15.2348583  28.5979253  61.2628220  75.9778409
  28.5878508  61.9612036  76.6810091  28.5904779  60.4277343  76.5385372
  21.2218414  58.6490558  76.0399746  21.6449918  58.7958321  75.1928528
  21.9446936  58.8844509  76.6549554  35.9350616  46.7368031  67.5942064
  36.2612953  46.3112872  66.7409779  35.1298986  47.1805446  67.2780210
  68.9855495  25.2193032   9.8878523  69.9157483  24.8988819  10.0878181
  69.0098134  26.1304627  10.3289415  20.0126316  54.5434056  67.1030117
  20.0563372  54.5096469  68.0782907  20.6316530  53.8208306  66.8572168
  18.9146451  59.0828092  60.6881596  18.7184134  59.9682738  61.1264734
  19.7430235  59.2929219  60.2364831  21.6853178  36.3171889  11.1214769
  22.5368004  35.9143884  11.0751673  21.2229912  36.0268264  10.2905267
  12.3596674  30.9613030  17.2393343  12.0109504  30.6042975  16.4109713
  11.5466012  31.1552167  17.7216432  30.3917557  61.0219331  70.0122131
  30.0623541  61.1008257  69.1317595  31.0342232  61.7653982  70.0514166
  16.7640474  24.7973229  17.4645307  15.9278509  24.4499327  17.7354095
  17.3718686  24.0655782  17.6496179  13.3627374  37.0389675   6.5314876
  12.6596456  36.4853202   6.0427188  13.5514576  36.3702600   7.2227534
  33.8800894  52.2855526  78.6235889  34.6315673  51.7989699  78.2811135
  34.1981794  53.1493269  78.8191539   8.7062400  31.8228515  10.1887805
   9.6454303  31.6171201  10.3621181   8.8447250  32.2854076   9.3575445
  18.7295695  56.1609647  70.3861311  19.3509385  55.4183116  70.3828302
  18.8111714  56.3722032  69.4219773  60.8233915  19.1974283  15.9615983
  61.5224087  19.5338073  15.3355654  60.9876830  18.2501839  15.8901523
  31.0034129  68.2771752  70.9484875  30.0845504  67.9180106  71.0109715
  31.2212415  68.1999930  70.0466490  16.7450255  64.5461710  60.6892193
  16.9683092  65.2690692  60.0601488  17.6243707  64.2276414  60.8910699
  27.7122782  70.5634573  71.5915549  28.2802218  71.2451983  72.0157434
  27.8499227  69.8411625  72.1954788  23.8639805  61.3948583  74.9845067
  24.7228305  61.7971884  74.9791423  23.4448904  61.9686639  75.6582050
  27.8120604  54.5510143  75.6124046  28.3510741  53.9710248  76.2047894
  27.2723041  55.0024968  76.2991361   2.3879205  35.0702811  15.5389626
   3.3569163  35.2040118  15.7937805   2.4836689  34.1526551  15.1949568
  30.0140410  61.7512907  67.3670637  30.1265532  61.1995279  66.5826147
  30.8454416  62.2321034  67.4244125  22.5988819  52.1837225  77.7514470
  22.7561392  51.2080536  77.9262866  23.5216056  52.4734447  77.8308074
  32.0354124  57.8683444  75.2376584  31.7358957  58.6983881  74.8607435
  31.3085359  57.5679873  75.7817898  37.5237249  58.2242132  68.6818758
  37.6731291  58.0075675  67.7260381  37.5161757  59.1907164  68.5919923
  78.4206855  36.7826988  23.3055686  77.7015160  37.3971783  23.1413934
  78.1880421  36.5545908  24.2653783  33.8269966  63.0179032  72.8671166
  34.4903224  63.7472485  72.6538929  34.3516061  62.2999634  72.3022890
  35.6301987  70.9575073  69.4025243  35.8340914  70.3264362  68.6858495
  34.7183226  71.2645248  69.1758207  30.8974161  41.7040318  78.6850457
  30.6986086  42.5450631  79.1925916  31.7680326  41.9488285  78.3219744
  28.3465677  67.3283901  71.3469767  28.2851992  67.4890992  72.2787311
  28.2023518  66.3777688  71.2348812  24.9378305  58.5349863  63.2485197
  24.2889684  58.7953336  63.9107943  25.0418535  57.5494056  63.4005343
  25.1079718  55.0647252  80.3600165  26.0463547  54.6976452  80.2693870
  25.3357968  55.8280734  80.9709759  60.5288696  22.2123623  12.7152669
  59.5875205  22.3649816  12.9593454  60.3597178  21.6961337  11.8867349
  23.3157960  59.9773637  68.3105258  22.8142667  60.4072756  67.5849107
  23.8993277  59.4009566  67.7650879  21.5492837  68.5040786  69.7080032
  22.4685806  68.8920204  69.4900461  21.9022672  67.7687477  70.3073536
  27.9953905  47.0865179  87.4015687  28.9058233  47.0894929  87.6877958
  27.7569251  48.0512761  87.5817176  75.2010377  20.5235378  20.2530074
  75.0389062  19.5289118  20.1063065  74.2922532  20.8340906  19.8749839
  34.8866907  60.0966879  76.4727093  34.1380247  60.5471262  76.0377851
  35.3881327  59.7382269  75.6988998  65.4830182  17.8320779  12.3340368
  64.8765995  18.1602619  13.0129117  65.1806980  18.3507198  11.5475826
  21.2107022  60.7536323  69.8262796  21.2634393  61.7540558  69.6291830
  21.9724755  60.4681247  69.2163646  78.1132721  22.0650765  16.8971597
  79.0350193  22.1056634  17.0759066  77.7701715  22.3354961  17.7749834
  22.9302360  59.2767903  78.0279991  23.8873262  59.0661064  77.9105669
  22.9140381  60.1382451  78.4499551  16.1695915  29.8674505  18.6029596
  16.6455163  29.2538118  18.0743351  16.2485194  30.6950359  18.0948703
   4.9224836  35.9400050  22.0489804   5.4554319  36.6499606  22.5258974
   5.1882807  35.1481742  22.5641367  67.6586657  26.0913764   7.5390732
  66.7310632  26.2006274   7.8966208  68.0419857  25.5751559   8.2925815
  23.3734010  41.7132407  64.2041628  22.7687777  42.4532392  63.9861820
  23.4423547  41.2260896  63.3785356  73.8206727  34.7794247  12.7192141
  74.0623820  35.2164343  13.5174452  73.3409509  35.4583773  12.1676614
  21.0403089  49.2311922  65.7853080  21.6875954  49.1613487  66.5723087
  21.6307269  48.9006034  65.0714662  73.6792366  45.4040178  10.8058406
  73.1385678  46.2245412  10.7876024  73.1733183  44.9393337  11.4567395
  26.6628611  55.7523297  77.8523601  26.3567253  56.5662895  78.2335632
  27.1927922  55.3642493  78.5426218  21.1589689  71.8553369  59.1800298
  20.6079655  71.2848935  58.6027366  20.4604570  72.5312960  59.4725949
   6.0779180  25.4239852  14.0413132   5.9577711  26.3747064  14.1625172
   7.0563317  25.4038785  13.8519386  32.0846887  63.6259262  67.5549349
  31.8587380  64.3311502  66.9043626  32.8276952  63.9976329  68.0105455
   5.9831877  10.8411048  31.2490113   5.4146948  11.6387099  31.1626789
   5.2676001  10.1876136  31.4719630  27.9760518  59.7344571  78.3059660
  28.8298086  59.9898208  78.6480580  28.1673505  58.8555219  77.9228784
  23.3628357  53.4690304  62.0002797  24.2432311  53.1629984  62.1451406
  23.4355890  53.7880692  61.0732520  39.3121486  55.0761632  77.6041775
  39.1453501  54.6654502  76.7657857  39.4389754  54.3631130  78.2166363
  26.7131714  53.0726522  64.3179342  26.1347781  52.3071658  64.2719275
  26.7833756  53.2888856  63.3519218  34.2272939  57.9702016  73.6405428
  34.7238890  58.8107625  73.5437889  34.3526594  57.7792903  74.5803075
  40.6912109  42.5887364  85.1942948  40.5072701  42.6328227  86.1977222
  39.7920358  42.3068175  84.9492555  26.0450325  42.7510082  63.2164900
  26.8781134  43.2047277  63.1762815  26.2040666  42.0099165  63.8062605
  11.4533627  30.4445024  14.6737773  12.3686169  30.1957222  14.5656657
  11.0371114  30.3225986  13.7961192  20.3969486  12.1393766  23.2969610
  20.2328271  12.0297992  22.3227539  19.9105277  12.9994145  23.4301861
   9.2977214  27.4838265  18.2601386  10.2028802  27.6972090  18.4764748
   9.2663871  27.6990745  17.3068048  40.8809339  53.4142908  73.8670246
  41.0800937  52.4429673  73.9569907  41.6826668  53.6616592  73.3081425
  32.0166582  47.8990730  69.0417354  32.1807681  48.8261677  68.8013306
  31.3112602  47.8897451  69.6195125  14.5281500  16.7394307  19.8678113
  13.9492490  16.4046444  19.1030180  15.4016938  16.7631654  19.4888845
  30.9439100  65.6676866  66.2432353  30.6562749  66.4369276  65.6862221
  30.4404183  64.9692903  65.8261615  41.5497773  46.7940821  70.2146591
  41.2098838  46.9087949  69.2702392  42.3468492  46.2117133  69.9456562
  67.4875011  15.7953292  15.6387988  66.8099552  15.1477992  15.4322622
  67.0274497  16.6346893  15.5266767  17.4259564  10.6689474  27.2787359
  18.3279604  10.4213676  27.6939124  17.1456169  11.3882080  27.8731528
  36.1012044  70.0746306  66.4070934  36.2553925  71.0785929  66.3351858
  36.0909728  69.8616255  65.4276514  17.3966770  35.6048691   5.9644920
  16.8222383  35.4908258   5.1515058  16.9430232  34.8824061   6.5050584
  11.0881568  35.5646941  10.7941475  11.5456514  36.3661958  10.3763521
  10.6921887  35.2028192   9.9470330  13.1248639  31.9500821   9.3695275
  13.9491420  32.2636196   9.7525763  13.4430070  31.4871913   8.5943688
  33.4150253  75.2266061  58.9820015  34.1201620  75.3040615  58.3044576
  32.7513912  74.7554058  58.4227307  41.3776138  69.2997393  67.9864852
  41.2114521  68.7169607  67.2238546  42.2592695  68.9925089  68.2869966
  36.1384594  64.8363585  59.8770102  35.3906274  65.4856281  59.8398123
  36.4522053  64.7638994  60.7508711  23.9417274  34.1896134   7.0757078
  23.4428099  33.6991332   7.7601126  23.5458302  35.0620359   7.1604787
  33.5768599  74.2245481  69.9844954  32.8546375  73.9909731  70.5703193
  33.3393423  74.0077102  69.1006546   8.2043491  42.6100545  12.7261296
   8.4281695  42.7338860  11.7650241   7.3401870  43.0199300  12.7238829
  45.2486147  67.4754106  62.8945834  44.4266677  67.9727271  62.7715724
  45.2185649  67.4791824  63.8973381  11.7351969  39.1397782   6.2915739
  12.3755476  38.3950204   6.4070985  11.7346330  39.2837098   5.3181731
  35.4879806  65.1405085  72.2325918  36.4388063  64.7972392  72.2857998
  35.6111004  65.9826652  71.7641189  14.2682040  36.6308339   9.8583210
  13.6081395  37.3469125   9.9067375  13.8407424  36.0180506   9.2255127
  15.9833612  39.1427420  22.7822220  15.0199597  39.2819104  22.6304027
  16.4154768  39.6659654  22.0375216   8.6099380  14.8616501  49.2764015
   9.0102199  13.9422699  49.3845470   8.0840131  14.8431010  50.1302024
  41.8498359  48.0238505   3.1460083  42.7338126  47.7521031   2.8546723
  41.3630084  47.2045167   2.8447077  20.0033595   9.0697513  53.2349727
  20.4167667   9.9042668  53.0996985  20.3968546   8.7140376  54.0379365
   6.3233139  29.0115334  62.1793692   7.2685107  28.9053397  62.0949726
   5.9460014  28.1108800  62.1680961  11.0986390  14.4096610  55.2816895
  11.4883736  14.8945554  56.0217227  10.5725354  13.7408917  55.8994977
  43.4117194  62.2073759   6.4279223  43.3907358  61.5247457   5.7110855
  42.8745612  62.8938397   6.0147007   4.6050912  15.2238646  45.8936274
   5.3703729  15.7747072  46.1252027   5.0243105  14.3592221  45.6726918
  17.2798367  22.9442373  61.3878108  18.1440223  23.0999565  61.7751189
  16.9384171  22.1871709  61.9287700  32.2239174  59.4004116   5.0057812
  31.4701586  60.0241431   4.6706109  32.1348244  58.7149854   4.3637238
   7.7509426  22.2339812  52.0204910   7.1381573  22.5791396  52.6683759
   7.3831796  22.5691883  51.2103593  10.4937923  18.9411507  63.5113389
  10.1243882  18.0446991  63.7061139  10.7630161  19.1792853  64.4440425
  33.1703617  17.8650617  61.3484292  33.3731938  18.7432596  61.8067107
  34.0396851  17.4176056  61.4406551  74.7518152  29.0194633  59.9651635
  75.2481976  29.0525717  60.7899300  73.9030572  29.4056264  60.2351942
  37.3931063  56.7098868   1.8154709  37.6122576  56.3021778   2.7328880
  36.4898284  56.9437836   1.9857348   1.7508699  15.3233445  50.1026065
   1.6131891  15.5784631  51.0147787   2.3432997  14.6047026  50.1076808
   0.9922769  20.9278427  46.5040857   1.1446185  19.9357869  46.2516290
   0.0768805  20.9441690  46.2563860   4.5365229  27.6217340  65.6321896
   4.3973839  27.3234914  66.6120642   3.5862540  27.6588616  65.4316138
  34.3710503  53.9502885   2.7615256  34.5718057  53.2320388   3.3886749
  35.1283573  54.5494746   2.9283648  12.2180674  26.2338155  65.1604709
  12.1675134  27.1554066  65.3966497  13.1865808  26.0744020  65.0806367
  22.3776392  25.6920913  68.3011658  22.5685035  26.6137202  68.0179714
  21.5033221  25.8251713  68.7214407  18.9995293  27.8121242  70.1623221
  19.4267008  26.9603629  70.2727920  19.5914728  28.3538710  70.6945562
  45.5681505  52.9090679  14.0527574  46.5553758  52.8628343  14.1369083
  45.4776597  52.6590371  13.0792118  21.1430487  37.2308141  55.7868903
  20.4504103  36.5413875  56.0113320  21.9349470  36.6444368  55.6707791
  14.6071324  33.4881658  58.3257080  14.1842494  32.6322857  58.0578534
  13.9501505  34.1097378  57.9575570  20.1987753  21.3704564  56.4385337
  19.9228997  21.2543077  57.3470300  20.9591217  20.7950257  56.3815499
  12.6205828  32.1653577  51.2576238  11.9141320  31.5372950  51.0871936
  12.5119380  32.4463562  52.1590707  29.8092615  23.8323658  65.3018550
  29.8799385  24.7188782  65.5311010  29.0398088  23.5066768  65.8074359
  25.6262386  41.0934950  65.4848865  24.7935690  41.3813219  64.9979197
  25.5467094  40.1452926  65.4189652  37.9832320  22.9152369  61.3858733
  38.2821234  23.8011138  61.0288573  37.2313741  23.1698342  61.9667056
  19.4295663  18.7864461  52.4190779  19.2670294  18.1606037  53.1790735
  19.1733353  19.6587468  52.8822583  12.5785280  35.0664821  56.9378663
  11.9919067  35.8582549  56.8965298  11.9730900  34.4276198  57.4275151
  19.6210802  17.4791999  59.2538543  19.6294654  16.5624031  59.6062653
  18.7036059  17.7759446  59.3404160  26.5502884  24.4530758  73.7811145
  26.6193511  24.4875105  72.7800043  27.1901867  25.1537153  73.9876018
  19.5663400  31.9850477  69.5498519  19.7388080  32.7590762  70.0503636
  18.7034513  32.0965722  69.1662213  25.4578528   7.4799552  61.3875992
  25.0471946   8.3935984  61.2390342  26.3662591   7.6924892  61.1614046
  17.5770139  19.6874947  57.3788967  17.7195355  18.8813555  56.8186832
  16.6945206  19.9667524  57.0399808  10.8616844  23.9387120  64.6948272
  11.2122990  24.8628646  64.7552019  10.2824604  23.9573093  65.4732806
  12.8012155  43.4733279  64.4097802  12.5902429  42.5442783  64.6849163
  12.0895268  43.9721523  64.8621751   9.4657915  19.3152634  60.9822464
   9.0669665  20.2110282  60.8826459   9.7097479  19.3136093  61.9643348
  26.4733994  27.4100537  69.3582888  26.8830498  27.2785946  68.5270756
  25.8059468  28.0915205  69.1446168  20.7581612  25.4761082  57.8954937
  20.0150423  25.3622121  57.2505820  21.4757717  25.1280267  57.3528058
  51.7154451  66.1428577  11.9300811  51.6179278  65.7505053  10.9998688
  50.7960931  66.2724299  12.1459213  30.3117790  64.3528819   3.7518143
  30.3277537  63.7542061   4.5568035  29.2745427  64.3966287   3.7341569
   8.2733099  33.4440325  64.2471302   8.8899451  34.2009242  64.1168104
   8.2969448  33.3833498  65.2050681   9.0730048  27.9244047  62.1152750
   9.2620777  27.1979125  61.5224054   9.7727426  28.5422596  61.9753995
  47.4529804  56.8506655   9.1529361  46.9243251  56.4226741   9.8972227
  46.7363195  56.9624243   8.4756180  15.4110049  23.0042105  65.1108907
  15.6809882  22.5200513  64.3001502  14.8076838  22.4291689  65.5574297
  13.1127072  42.9029954  66.9356184  13.2627918  43.0857057  66.0054281
  13.7753882  42.2453277  67.1177022  33.9912957  24.5345499  55.5229707
  33.6575822  25.4213477  55.3235363  34.8032797  24.5054688  55.0461588
  32.6187353  16.4524191  70.6306078  33.4606826  16.9144785  70.6635679
  32.3757562  16.5704139  71.6264965  12.0714539  35.8604588  70.2166266
  11.7237172  36.6810887  70.6221167  13.0381641  35.9814477  70.2802366
  14.3514169  37.7332692  57.3276362  15.1761341  37.3350555  57.6332108
  13.9284536  38.0378330  58.1452468   0.9188405  39.8173249  71.8518158
   1.7602930  39.7553409  72.3415914   0.3807064  40.2880898  72.5486033
  32.0433740  28.4055112  68.1032404  31.3558841  28.2076474  68.7090817
  32.8135723  28.2610809  68.7648188   5.5760509  34.9168831  64.9003742
   5.5881028  33.9711801  64.6132437   5.7031155  35.3463043  64.0355747
  46.0529524  46.3461484  -0.3280154  45.9293298  45.7102321  -1.0255506
  46.9908298  46.1710732  -0.0917172  31.9164371  20.9964008  65.7916408
  31.7067088  21.7498780  66.4109350  31.6617478  20.2748420  66.3176632
  18.0673523  29.1241168  62.7539153  17.9456265  28.4841180  62.0266986
  19.0607226  29.1753181  62.7600719  15.5430925  20.8505493  63.0658024
  15.5093018  20.5590487  62.0984580  15.9446754  20.0412110  63.4333499
  13.2430613  33.1253253  63.0221590  13.8564733  32.7736798  62.3328437
  13.6473090  32.8245332  63.8495051  24.9173702  31.1729099  60.9058409
  25.7150468  30.7629187  60.5372564  24.7316272  31.8914848  60.2286273
  41.2268452  72.0975210  16.0242336  41.4817122  72.9302400  16.4947142
  40.9427461  72.4418220  15.1377351  19.4423915  34.7395599  56.0559064
  20.3315266  34.5419597  55.7432853  18.9285928  33.9999030  55.6788705
   5.5949400  33.8077726  68.6239161   5.5886248  32.8330766  68.5610069
   6.4475564  33.9687381  68.1707931  11.5553135  15.7187599  62.3791060
  10.7512384  16.2729866  62.5684411  12.2266673  16.3609953  62.5761916
  20.0913635  15.5930683  52.2577205  19.6999039  14.6924330  52.2941924
  19.6281716  16.0335978  52.9996170  26.7440669  43.7826518  52.8351195
  27.2872438  43.9877555  53.6132756  26.0388432  43.2214693  53.2743052
   9.2620689  23.1528056  62.0767868   8.4108680  23.3863307  62.4513734
   9.8054594  23.1260478  62.8962442  22.6166367  26.4062724  65.0567913
  22.7712321  26.4299978  64.0848299  23.2869728  25.6943762  65.3461433
  26.1231050  18.7026266  52.4792629  25.3442494  18.9841420  52.9959194
  26.0931576  19.4082461  51.7776721  23.8037104  24.7039632  59.3288146
  24.1966349  25.4798286  59.7417053  23.5404492  24.1383230  60.0510823
  17.9093631  23.5420701  65.9312410  16.9594281  23.2786202  65.8365265
  18.3648796  22.6810635  65.7038585  24.4565015  51.1923274  69.0588687
  25.2373545  50.9628556  69.5978227  24.8197636  51.3556124  68.1747520
  21.2398698  16.5925068  64.1030426  20.6894527  15.7628637  63.9722611
  20.6182847  17.2216193  63.5417458  17.6669577  31.4628686  58.3024352
  17.4186382  30.8989685  59.0809833  17.1834757  30.9196795  57.6196792
  38.4238602  57.6299764   5.0306063  38.1963912  58.5334555   4.7317501
  38.4064663  57.7615217   5.9990454  14.7611872  27.1384564  55.9299621
  14.1114775  27.6980703  56.4997545  15.0581135  26.4948156  56.5819193
  20.1434144  27.0134916  64.0144832  20.4433056  27.9103924  63.6864356
  20.8717410  26.7076544  64.5210994  18.9977325  36.3519165  58.2215310
  19.2354583  35.9792462  57.3045250  18.5880933  35.5241696  58.5752778
  21.7961343  20.6507386  51.6546357  21.0708572  20.0772996  51.5519900
  21.2795514  21.5122785  51.8279898  19.9645250  24.4609851  62.5261985
  20.4064998  24.8573636  61.7559002  19.9818381  25.0993746  63.2119854
  22.8763788  25.9701278  62.5509114  22.0871840  25.9997469  61.9829322
  23.5556418  26.2129364  61.9173593  32.1743163  14.6403577  63.4433048
  32.8227134  14.3827671  62.7649871  32.7769769  14.9551123  64.1726969
  44.2961530  54.3154413   9.0684356  45.0178233  54.3102263   8.4123486
  43.5472319  54.0172572   8.5689360  15.3715953  20.1828253  60.2812377
  15.4425054  21.0835146  59.8209610  14.5823381  19.8474429  59.8319753
  20.7817368  29.4735374  63.0737111  21.7466018  29.6674469  62.9394425
  20.5980302  30.2261451  63.7267369  32.4074796  28.6423581  72.3824590
  31.4364269  28.6869673  72.4246541  32.6385305  29.5985908  72.5210446
  51.4967442  63.9235002  13.3117378  52.1330598  64.6739861  13.1614226
  50.7067571  64.2283373  12.8040625  22.2059747  39.4988540  56.4842955
  21.5092834  39.9289389  55.9702940  21.9321999  38.5812335  56.4784370
  20.9644142  20.0568939  67.5021200  21.5022780  19.4692160  66.9218905
  20.1847498  19.4257740  67.6253481  19.6217980  12.4576288  56.2981593
  19.8170574  12.2771386  57.2290916  18.8659625  11.8302262  56.1626749
  53.9834329  69.7051141  14.5609345  53.6365747  68.7688655  14.6578398
  54.9395379  69.5447627  14.7748171  22.1368610  44.0860769  63.6874016
  21.9575957  45.0227206  63.4759184  21.3449338  43.8120340  64.1626686
  23.4222200   9.0825585  53.5375856  23.9887843   8.5270423  52.9593938
  23.3901978   9.8455837  52.8965188  23.6186319  29.2026875  69.4219171
  23.3855706  28.5262072  70.0764118  23.4207724  28.7178370  68.5916463
  20.0484658  66.7000362   7.2951795  20.0917657  66.1663686   6.5302361
  19.4379723  67.3728494   7.0906091  24.1445818  24.2576464  65.9119251
  24.4972390  24.5089528  66.8116006  23.3541517  23.7662305  66.1297312
  15.7522169  39.1327620  49.0144605  15.2240412  39.2197050  49.8032090
  16.1985351  38.2799210  49.1966744  19.7597051  25.4974762  66.8853495
  19.4451562  24.5427446  66.7459910  20.6317718  25.4508853  66.4798794
  38.7443040  14.4821240  60.4021584  38.8051356  15.1974038  59.7415072
  39.5485672  13.9690523  60.1792618  23.3844872  34.9459995  73.0112403
  24.3051361  34.9575773  73.4467112  22.9000910  34.6409921  73.7792561
   8.8751121  28.0023951  64.7559879   8.9190079  28.0620951  63.7635444
   8.1313730  27.3657302  64.8236281  17.2102888  23.6791956  58.5632472
  16.3166289  23.3849924  58.3793492  17.2471115  23.5922226  59.5238674
  25.3004205  21.4510519  55.8880696  24.9040505  20.7119010  55.3524325
  25.8174888  21.8329501  55.1048267   7.0903704  35.1726241  58.0141062
   6.5002793  35.0131030  57.2184914   6.8730564  36.1032686  58.2313726
  38.0776288  60.8893872   3.2772532  38.3213794  60.4996752   2.4286634
  37.0949986  60.7731274   3.3127679  26.3777455  29.9209660  63.8115158
  26.0128610  29.0434327  63.6540568  25.5667394  30.4550718  64.0913658
  36.5209442  25.6778755  72.4200707  36.7779841  25.9424533  71.4905183
  36.0970518  26.4678981  72.7664532   9.0461910  42.9501286  63.5348696
   9.5927195  43.6382398  63.9468074   9.6679083  42.1429624  63.6394875
  32.3396993  59.4921700   9.8572650  32.5468827  58.6422644  10.3236450
  32.7046161  59.2072424   8.9471747   1.7393831  33.7944532  64.5901412
   2.0280478  33.5301175  63.6716355   2.2938379  33.1553676  65.1524767
   1.7692138  27.8760635  65.1273846   1.0791163  28.5395189  65.3650938
   1.3118224  27.0647552  65.1994264  15.4939611  34.7816046  65.7365128
  15.6044259  33.8680404  65.4175015  14.5187336  34.7887550  65.9006059
  20.2213521  22.1153120  63.8318343  20.1751006  22.9454131  63.2481244
  20.7166039  21.5519746  63.1694825  18.1563671  28.6361048  57.3537229
  18.2309399  29.0255029  56.4408465  17.7265553  27.7463598  57.1338298
  14.9711418  32.7211779  68.1083837  14.2649437  33.3575490  67.9604087
  14.5292173  31.8940476  67.8113805  22.8168165  43.1128117  49.7061835
  23.4197906  42.4755787  50.1471982  22.3177167  42.4626959  49.1171129
  17.1292479  18.0817359  60.8107064  16.3987268  18.6355869  60.6252247
  16.8589669  17.1994130  60.4741801  34.0661039  31.6408487  72.7100192
  34.9669317  31.9401571  72.9588844  33.9202369  32.1469580  71.9174455
  10.7264174  21.8278196  47.4113227  10.5327958  20.9772655  47.0196997
   9.8070678  22.0782727  47.6578010  26.5116040  22.1182871  53.3279844
  26.1451809  22.0802450  52.4330638  25.9544199  22.8747327  53.6698981
  22.4479460  10.5255565  56.8449306  22.7345961  11.1959519  57.4116986
  22.8991110  10.7822172  56.0098951  48.5338717  49.4294752  12.0892625
  49.1324119  49.1632582  11.3912198  47.6551641  49.0833979  11.6988900
  19.3771223  17.6558736  62.7613395  18.6838919  17.9963675  63.3160585
  19.0082108  17.7768330  61.8788150  20.7663185  25.1191022  54.3372022
  21.4543150  24.7684964  54.9816457  20.8295218  26.0968090  54.5420492
  17.6363604  32.2924591  67.7889889  17.5928876  31.8479274  66.9318869
  16.7533945  32.4660528  68.0727983   8.0975492  33.0394539  66.8852281
   7.8192733  32.1343075  66.6468798   8.3967234  32.8150002  67.8366186
  35.3688651  43.3448585  63.8071603  35.3135795  42.4234043  63.4240538
  34.3868537  43.4041416  64.0272451  29.8660118  31.9670817  71.4106069
  30.5041111  31.5692300  72.0816895  30.3633918  32.7782838  71.1979057
  20.9715820  21.2065888  61.3911549  21.1209355  20.2570667  61.4067163
  20.4208129  21.2914096  60.5510779   8.2905810  31.1294704  62.5124561
   8.1586786  31.8995975  63.0529800   7.4433454  30.6755816  62.6412204
  19.2498004  14.6550524  63.9794725  19.3089457  13.7895997  64.3954231
  18.3706355  14.9378411  64.0957815  33.7119945  32.5981784  77.2312907
  34.5193592  33.0390154  77.0344447  33.7689546  31.7094376  76.7212334
  20.5490186  23.0170397  52.5506506  19.6844525  22.6512517  52.8803550
  20.6244115  23.7895069  53.1809035  29.8453609  19.7127548  70.2874175
  28.8720587  19.7565608  70.5461720  30.0144905  18.7251120  70.4730897
  28.2917387  29.5336723  61.8512171  27.5983274  29.6384302  62.5298245
  28.5189110  28.5751925  61.9414160  53.4425292  52.7348632   6.4992941
  53.8435355  53.2664998   7.1622783  54.1748348  52.5990779   5.8593725
  12.4660511  22.1347259  49.6520798  11.8454339  21.9558052  48.9077228
  11.7515560  22.0010850  50.3701225  72.5064638  21.9509507  63.3504216
  72.2366979  21.1045082  62.9377971  73.3451244  22.1021867  63.0009380
  20.9633852  17.3765882  56.8190183  20.4640509  17.5560190  57.6364376
  21.5353770  16.6415184  57.1651392  30.9011059  25.5815937  68.3305552
  30.4264357  25.5955611  69.1877470  31.8303913  25.5464721  68.6248561
  23.6963346  20.4460978  65.5530382  23.3128115  19.5426181  65.6165776
  24.5149265  20.3631634  66.1265022  15.1054483  32.3716328  64.8040079
  16.0502325  32.0562081  64.7724401  14.7354945  31.5755721  65.2743841
  51.9105067  54.6466168  10.1278172  51.5781197  55.3892202  10.6610314
  51.2279659  54.7810435   9.3821828  49.8981432  55.5845658   8.4651445
  49.0460858  55.8712829   8.7390642  49.7630494  55.2499659   7.5627731
  33.0519704  25.6289945  64.0371469  33.3724957  25.4767095  64.9327667
  32.4905775  24.8799536  63.8770122  27.4173570  25.6098957  60.8390221
  27.8973297  25.8567828  61.5792040  26.9881927  24.7916415  61.1306218
   7.1944879  19.5008989  52.3908358   6.2756920  19.5092801  51.9897903
   7.4736480  20.3926524  52.1927273  38.9892375  10.8666169  67.4439041
  39.3543345  11.0845211  68.3196867  39.0122655   9.9025774  67.4426870
  30.1484939  16.6188033  57.7012290  29.4533250  16.5999445  58.3564038
  30.7356058  17.3734916  58.0028122   5.0574691  14.9965864  49.1996865
   5.5168933  15.7891106  49.5453072   4.4882998  15.4415025  48.4752850
  12.1893956  22.0807902  63.0740783  12.6746739  21.7577676  63.8525489
  11.7809877  22.8979531  63.4234661  15.6989352  16.3435785  58.6266806
  15.2002127  15.5663090  58.8308229  15.0693380  17.0710801  58.6781106
  20.5236690  31.6551145  64.5705308  20.8216937  31.2936223  65.4466586
  21.0181873  32.4930664  64.6582701  24.7897144  19.3004203  69.9310782
  24.1227974  19.9250094  70.1878419  24.2994355  18.4586439  69.9536399
  23.2762281  19.1828881  58.2183102  23.8129438  19.8575056  58.6846884
  23.3424255  18.4127474  58.8647869  16.4235154  14.7732658  61.3208751
  15.9593505  15.3925994  61.9760302  15.7560925  14.7755460  60.6250627
  23.0523693  34.1767691  70.5522100  22.9808656  33.2152189  70.6561733
  22.9778829  34.3988684  71.5496294  18.3009277  32.2552695  55.1840600
  17.5334753  32.7845228  54.8426829  17.9728852  31.3725657  55.0791849
  45.9724679  52.9139873   2.6216979  45.2424891  52.7751614   2.0442188
  46.3076119  52.0118173   2.7454788  30.5488088  22.4337545  60.6518244
  30.2008190  21.4925119  60.5436313  30.1478933  22.6411767  61.5430704
  20.9152978  25.9719527  60.5327046  20.6716490  26.9051106  60.5255351
  20.6806741  25.8330731  59.5548397  15.3998025  42.3766597  73.2931565
  15.5130400  42.2958233  72.3546999  14.9963769  43.2437366  73.4006089
  18.9710474  21.1229319  53.8330905  18.0153010  21.1021872  53.8599151
  19.2114252  21.2767943  54.7374413  13.9811027  19.1202274  51.1967142
  13.3939481  18.3744172  51.0291538  13.5339294  19.6534349  51.8861087
  29.5843675  61.6404736   0.9991125  28.6626211  61.7798546   0.7236906
  29.9872240  62.4040208   0.4871250  36.4307416  75.4331335  14.5961387
  37.0777819  76.1616181  14.4139793  36.2170403  75.5942509  15.5239859
  19.4003857  33.2487969  62.6285883  19.2342722  34.1801922  62.9778952
  19.8810435  32.9000125  63.4010649  41.2267723  57.1563371   2.6732758
  42.1143112  57.3420460   3.0923625  40.8196539  56.6808948   3.4022071
  35.6383292  43.4007003  67.8839713  35.3229524  43.2887267  68.8047425
  34.7973242  43.4046626  67.4152317  28.8556275  36.3820736  64.5084770
  29.4358305  35.5926584  64.3066769  29.2610437  36.7141026  65.3520229
  17.5060351  51.7781103  58.8610335  17.0560766  51.3474419  59.6524921
  18.0249368  52.4762168  59.3177503  27.3510351  32.0227708  72.0475825
  28.1328900  32.0814628  71.4438408  27.2912243  32.9474223  72.3182078
  16.1033308  44.7076171  56.0993618  15.2274407  44.3661233  56.4429144
  16.2911591  45.3536876  56.7732296  18.7582885  43.7048957  55.9086887
  18.9950558  43.9627436  56.8164127  17.8436435  44.0192270  55.9038166
  18.8955804  38.0268157  66.3299603  18.4869891  37.1498733  66.6308445
  19.6500245  38.0582825  66.9303199  41.6448452  78.5997054  21.8665167
  41.2091889  79.4967183  21.8820262  42.5553635  78.7731734  21.9296086
  17.2656030  54.4312470  60.6482657  17.7555352  54.9826994  60.0492733
  18.0095380  53.9620138  61.0864609  22.7568331  40.5008693  58.9572184
  22.7191398  41.4253252  58.5121768  22.3792050  40.0109743  58.1695949
  29.5548083  30.5937255  58.8906397  29.6307210  30.5014343  57.8809272
  29.5894180  31.4915824  59.0613135  30.1473705  40.9806349  58.8303184
  30.7141413  40.6533231  59.5411676  29.2731527  40.5489989  59.0789120
  42.3903318  35.2510842  66.2875245  43.0557013  35.8967813  65.9975883
  42.1504408  35.6484538  67.1747337  34.9083709  47.4441776  52.0705415
  34.4387579  46.7577986  52.6065332  35.1613711  46.8671468  51.2813928
  21.4484211  46.0424961  52.3154538  21.3150201  45.1234182  52.6643533
  20.6003151  46.4353636  52.7645202  42.6529799  31.3810078  65.5242477
  41.7676232  31.4159718  65.0210403  42.4099458  30.6344178  66.1319612
  29.9394271  33.6577791  63.9992770  29.6727175  33.3032095  63.1402875
  29.9226047  32.7899586  64.5392264  38.6380596  34.0395647  74.6113299
  39.2076256  33.6138411  75.2702502  39.0601369  34.9296550  74.6245605
   8.1205586  47.0861434  58.6005974   8.7314308  46.5907532  57.9902547
   8.7485085  47.7894747  58.8699698  38.9310247  40.2628961  63.2656475
  38.8324172  40.3978296  64.2827462  39.8690747  40.0733021  63.2457603
  27.8076038  39.4409015  63.5822045  28.5948586  39.4077696  64.1504313
  27.1388704  39.2367622  64.2297239  15.8764907  48.4446868  67.7321124
  16.1986227  47.9066647  66.9621608  16.6636663  48.9804493  67.9331639
  23.3552553  54.6243413  55.2498467  23.0600920  55.1191915  54.4600499
  23.0376962  55.1143626  55.9820310  21.9769449  47.6992024  70.4471158
  21.7262027  47.1830330  69.6257168  22.8491182  47.3183973  70.6031683
  34.6429073  27.5155359  62.6471836  34.8636951  26.8818721  61.9435639
  34.3051892  26.8931859  63.3292636  32.1859660  41.9431403  57.2639452
  31.6998945  41.7361361  58.1148108  33.0634998  42.1542787  57.6072152
  21.8568647  36.9274298  71.5112620  22.7183303  36.6321607  71.6416350
  21.5046116  37.0581934  72.4310498  35.7188706  39.5229042  54.7090950
  35.2286869  40.2142756  54.1660698  34.9561962  39.0564100  55.1093780
  27.8430045  21.5167040  57.0373924  26.9441158  21.2623871  56.7323160
  27.6279047  21.6486099  58.0093200  36.2146704  40.5350215  67.6127660
  36.1481439  40.7024978  66.6351719  36.4195169  41.4139251  67.9664978
  32.8125672  44.2774838  66.9620727  32.7046205  45.2107951  66.6363347
  31.8955394  44.0944753  67.2491084  37.3473495  20.9513797  70.8223127
  37.2122106  21.8690541  70.3904664  36.8254468  21.1210257  71.6581634
  24.3581596  19.2877238  62.2826356  23.6514355  19.2278148  61.6284688
  23.8509295  19.7524350  63.0169688  28.9297171  18.0522865  62.3934446
  29.7275903  17.4905311  62.6289458  29.2060855  18.8348263  62.9499598
  26.3160963  33.0525539  62.8082690  27.2045211  32.6316114  62.7809362
  25.7962852  32.4077968  62.3577413  26.2059901  23.6006333  64.1839284
  25.5810283  23.9399530  64.9106606  26.7487682  23.0518613  64.8586200
  35.4116606  31.7906825  63.7082958  35.8234206  31.0591733  64.2079500
  34.4769181  31.4355863  63.6256741  19.8794264  35.1525341  70.6117704
  20.7213861  35.6136195  70.6897492  19.8340280  34.9119175  69.7183019
  14.4575031  37.0293933  69.3583324  14.9447885  37.8491187  69.3044884
  15.1670193  36.3869745  69.1978129  32.2321246  41.7877202  69.1402044
  31.6440458  42.5029751  68.8915042  32.3296175  41.8395852  70.0933931
  17.5296863  48.2573468  62.2151202  17.9612174  48.4957721  63.0114884
  18.2687759  48.2550723  61.5991175  22.8058002  31.4571907  70.5854977
  21.9029076  31.0990556  70.7587000  23.1390378  30.7549932  69.9881894
  18.0682778  39.8514809  78.5646511  18.2020615  40.5415424  79.2048011
  18.2907357  40.2532469  77.7061905  27.4250824  42.0922362  56.4169340
  27.7386375  42.9879667  56.1554235  26.7326379  42.4690940  57.0843540
  25.3712584  43.3089835  57.9593508  24.4168404  43.1631533  57.7275411
  25.2577530  43.1957787  58.9539715  28.2290543  52.5591968  68.5596397
  28.4908933  52.6883290  67.5972312  28.3561575  53.5033324  68.8602457
  23.3724123  29.6945885  62.6638197  23.4088323  30.3929196  63.4323497
  23.7340532  30.2357776  61.9758729  17.7145413  40.4574362  66.6277062
  18.3836760  40.9822441  67.1285828  18.1612458  39.5861335  66.6090156
  25.4414202  51.8790213  66.8767558  25.7495272  52.6248188  66.3115372
  25.2752233  51.2009110  66.1988765  23.9997068  54.3361727  59.7076056
  23.6029986  55.1805997  59.2940910  23.9434760  53.7784242  58.8517800
  26.4111467  35.5024981  66.3576162  26.5254367  35.2667054  67.2919240
  27.3143623  35.7724524  66.1143136  38.4724514  74.0244494  15.8816440
  38.2544820  74.7436343  15.2946232  38.4482949  74.4133883  16.7994754
  29.0595999  17.5738760  65.3246648  28.2863465  16.9509646  65.3296941
  29.6807169  17.0643076  65.8964769  20.1372438  31.7320007  60.6692353
  19.9709047  32.3415002  61.4063933  19.8753954  30.8809108  60.9085984
  34.1227946  38.3099927  52.2369464  33.9915881  38.3523939  51.2726122
  33.2203420  38.6776060  52.5242054  36.4867779  23.3503256  69.9374986
  37.0205803  24.2155088  69.8286083  35.7713603  23.7151664  70.4650517
  28.1291465  30.5748411  68.1165665  27.8799294  30.1837601  67.2602633
  27.2588775  30.7555247  68.5909038  27.1421793  21.5386677  59.5691137
  27.9789302  21.1737498  59.9645574  26.7922352  22.0614479  60.3270497
  40.4469457  39.7228763  55.3210185  40.9773799  40.5288726  55.3881246
  40.1053167  39.7603172  56.2770219  24.5363471  35.8404330  61.2458756
  25.2293450  35.7514992  61.9211623  23.8068775  36.2253366  61.7581163
  32.0505448  38.5901107  65.3993022  31.4666744  37.8714426  65.7689517
  32.3274852  39.0918016  66.2045299  33.3941877  51.3118496  67.0384421
  33.6988812  50.8919531  67.8291005  32.4589751  51.0666455  67.0034857
  25.1278126  14.5873021  58.2379036  24.2817994  15.0570377  58.1507625
  25.6770627  15.0570547  57.5252142  30.7804727  31.3921444  65.2527845
  31.2244826  31.2681647  66.1075486  31.4793748  31.1832559  64.5613391
  18.8976748  40.2315775  48.7057539  18.8786298  39.4665644  48.0746447
  18.1254288  40.0529772  49.2340081  35.0538426  38.5874192  74.6171625
  36.0157127  38.6720599  74.8635754  35.1085918  37.9768091  73.8505020
  33.9601924  35.5349832  48.3191046  34.2301498  36.3226127  47.8271753
  33.1766250  35.2700911  47.8432746  23.7232225  44.3506601  55.2971182
  23.9539927  43.4742496  54.8473850  22.7556394  44.3688185  55.0295082
  33.9346688  45.1643426  53.5621448  33.1773146  44.4976935  53.5551545
  33.8967391  45.4137820  54.5571594  15.1001830  45.2624527  64.3110056
  15.6358626  44.7337230  63.6836193  14.2583294  44.8100655  64.2760182
  25.1590927  37.8310566  54.2579877  25.4717993  38.7815124  54.2696353
  25.8752955  37.4243821  53.7919303  24.6068243  32.1846322  66.9623963
  25.2691825  32.2215700  67.6199219  24.0511298  32.9708302  67.0751283
  30.5800217  27.9027583  55.7587038  29.6847609  27.6326920  56.0229492
  30.8263454  28.4304277  56.5672713  38.8561033  45.2665513  58.0339216
  38.1148556  45.8493219  57.8590337  39.6145970  45.8973879  57.9220052
  36.5159284  26.9161866  64.9323634  36.2405047  27.8417348  65.0830042
  37.4384129  27.0913209  64.5617171  22.4683544  37.3998762  62.1289214
  22.2014938  37.0777742  63.0002882  21.6826034  37.3693464  61.5764340
  32.9615382  33.2937241  58.2942895  33.1546842  32.5313565  58.9090943
  33.2440670  34.0277458  58.8276017  31.9452036  34.5716918  68.4862590
  31.6456296  34.5625379  69.3942223  31.3687501  33.8220108  68.1359279
  24.9759130  37.8159998  59.6437508  25.1619715  38.4713088  60.3465769
  24.7160000  37.0300471  60.2437438  18.7312886  47.7707263  57.0322400
  19.6496593  47.7053585  56.5847191  19.0528959  48.3900958  57.7162477
  28.9235243  22.4708428  62.5978743  29.0252471  22.6684698  63.5413518
  27.9830713  22.2721468  62.5390336  40.7706391  43.0223000  61.2753544
  41.1309699  42.4485214  60.6201815  41.2038941  43.8853322  61.2299451
  33.7491962  36.0145076  76.5620750  33.7383888  36.7787008  77.1378031
  32.8347567  36.0473323  76.1876107  38.1507628  43.4844523  64.1497993
  37.2304983  43.2115664  63.9111602  38.1738391  43.4399646  65.1155718
  16.3218426  42.6048421  68.4445454  17.0602761  42.4315743  67.7853942
  16.4711444  43.5800674  68.4967278  30.9182649  37.8026421  53.3624973
  31.1669143  38.7129215  53.2942373  29.9942019  37.7564496  53.2169988
  11.3112956  28.6057364  65.8024025  11.2095648  29.1459624  64.9622259
  10.3599452  28.2561484  65.8273932  33.7801562  63.8480184   3.1351730
  33.4901847  64.6529141   3.6558412  34.0063663  63.2251291   3.8935165
  27.5002721  38.5876971  67.2313856  27.2804979  39.1968419  67.9996832
  28.1083823  37.9679440  67.5967685  34.5969339  34.2394005  62.7060281
  33.9370242  34.6848170  63.2753666  34.8045080  33.5090019  63.2751472
  21.3238057  43.1679248  69.0575740  21.0282986  43.8488912  69.7398718
  22.3002900  43.2911971  69.1195571  21.4499769  34.2690947  74.9879824
  20.5601187  33.9086276  75.1038879  21.4002866  35.1663672  75.4565526
  38.6374514  37.3640332  67.5727645  38.1837076  36.9200440  66.8095572
  39.3805077  37.7644591  67.1477992  31.2946042  56.8901646  59.8859366
  30.5979041  56.1731665  59.7543946  31.5302006  56.6741090  60.8284453
  15.3556068  52.1342566  55.1538265  15.2996808  52.2171381  56.1031365
  15.3256642  51.1135873  55.1468233  20.6926925  36.4028922  60.1797078
  21.4159178  35.8725151  59.9637280  20.2319661  36.7019651  59.4014926
   0.6838220  15.6775476  27.7992979   0.7323777  16.5015601  27.2661920
  -0.2355833  15.3714572  27.6409094  38.7135465  37.6572061  50.2855525
  38.5048680  38.3142563  51.0059519  39.6928774  37.6678458  50.3679968
  40.3158614  68.7323513  15.9534336  40.5875355  69.4191719  16.6072254
  40.2382621  69.3078746  15.1445962  30.0368688  38.5035294  68.6180264
  30.8144829  38.9660098  68.9956443  29.3197472  38.7453709  69.2516197
  36.6627379  65.4256405  19.4569000  35.7858989  65.7748810  19.3841326
  37.2723478  66.0473591  19.0058045  19.0055789  45.0903532  63.7024376
  19.1388707  45.3680367  62.7617091  18.1360814  44.6594451  63.6538482
  28.4973662  50.5027103  72.1526492  28.7412208  49.9970800  72.9728959
  28.4887532  51.3902324  72.5201752  22.0146509  33.6743785  64.8938151
  21.8433290  33.9931288  65.8029906  22.8840947  34.1452223  64.7212751
  29.4899797  25.1830755  70.6933313  29.7672421  24.3365969  71.1629394
  28.5236960  25.0596119  70.7847811  40.5803769  48.7092764  59.7723560
  39.8398328  48.9026838  59.1330343  40.6573625  49.6399418  60.1163147
  31.4551141  40.0020904  61.1621890  31.8183505  40.4362392  61.9622731
  32.0127873  39.1729994  61.1696724  22.1284674  37.1303352  64.6938093
  22.7733068  36.7224032  65.2997479  22.3305037  38.0852529  64.8753256
  44.3400413  33.5251913  64.4189090  43.4688910  33.2254596  64.7913990
  44.0025330  34.3720173  63.9658903  22.0752141  56.8587131  67.8879846
  22.3330760  56.9310266  68.8302058  22.4134693  56.0161258  67.6513168
  37.8342439  38.5863735  47.7144519  38.2596574  38.0131511  48.3781903
  38.0963534  38.2768940  46.8974782  27.6204048  27.0494893  74.2048712
  27.3677982  27.4375084  73.3625090  28.2517436  27.7585345  74.5052292
  40.9143085  46.9868076  67.6089799  39.9205790  46.8555503  67.6562147
  40.9298769  47.2727046  66.6426916  32.4334201  65.5580169  63.7697538
  31.8722539  65.3970519  64.5167449  33.0337625  66.2850570  64.0835834
  33.7589947  31.6196109  56.2486661  33.1467755  31.7915118  57.0138312
  33.6336820  30.5925987  56.2282879  32.9477929  21.8748972  70.2729864
  33.4370480  21.0155032  70.1739350  33.6373823  22.3081071  70.8481473
  25.4367937  34.6490877  74.8573399  25.7712922  33.8017593  75.2396238
  26.1922859  35.2109976  74.8992036  23.3257344  58.8037303  65.2077099
  22.5991241  59.3904953  65.4898749  22.9277547  57.9287241  65.4859607
  27.6138716  61.0661962  68.2682874  27.0301592  60.8741518  67.4762811
  28.5262532  61.1161515  67.8194840  55.5337958  68.2615585  23.9733946
  56.1313415  67.5749009  24.1375338  55.7617628  68.5319249  23.0500597
  24.5547941  43.2771269  60.9246637  24.1693501  42.3515126  61.1002766
  25.2287685  43.3137247  61.6267032  27.7298460  59.7401455  62.9131906
  26.7355645  59.6471057  62.9079708  27.9581196  58.8162798  62.7221340
  19.5688581  33.1466999  72.5619917  19.3378574  33.6650660  73.2745971
  19.5167768  33.8242169  71.8036512  25.5924866  45.5990069  56.7572935
  24.8341358  45.3573539  56.1978781  25.7177028  44.6839379  57.1473242
  43.9939079  64.9308941  10.3957765  44.2083457  64.1219438   9.9022612
  43.2317174  65.2902150   9.9124911  20.2698901  35.0571908  67.8292798
  19.3278590  34.8996267  67.5619341  20.3824928  35.9656345  67.4821779
  30.4635202  36.6907631  66.6960021  30.4647814  37.2945361  67.4740527
  30.7297550  35.8632174  67.0923304  25.9982398  22.8150183  61.6278814
  24.9814287  22.6600698  61.5446386  25.9729359  23.2328769  62.5067882
  30.5780515  39.4799235  71.5251172  30.4494556  40.3421523  71.8983091
  31.5671831  39.4818933  71.4256280  29.0837914  41.3318570  53.8848084
  29.5625328  40.8845946  54.6241978  28.4078566  41.7656033  54.3753841
  24.7233688  44.2724225  72.1715004  23.7831056  44.3703924  72.3738851
  24.9790932  43.4740714  72.5597077  41.5870984  73.4888431  19.5614906
  41.4458589  74.3007850  20.0432155  41.4329270  73.8120795  18.6303916
  32.4221451  37.1387789  59.2007735  33.2982487  37.3327952  59.1246472
  32.3893872  36.1248981  59.2149919  27.1127010  48.8621004  58.1544332
  26.4794469  49.5676511  57.9183996  27.5621235  48.7593793  57.2818305
  29.2599103  27.0540290  62.1413804  30.0795259  26.7553928  61.7224418
  29.5486460  27.1699637  63.0926877  37.8550576  47.9976964  65.2394168
  37.1219487  48.5709341  65.5842231  37.3677993  47.2147870  64.9318021
  31.5428152  28.3878158  65.3726366  30.9815853  27.7168227  65.8792372
  32.1363776  28.5947176  66.1761208  33.4628462  35.6228823  66.5223366
  32.8756129  35.2437819  67.2036356  32.9331739  35.6747800  65.7059570
  15.2646241  40.1699857  69.2948957  16.0539113  39.8189029  69.8299593
  15.6935185  41.0394846  69.0035526  24.5821069  15.4318324  61.6525887
  25.2174906  16.1064779  62.0786143  24.2984435  15.0647372  62.5728750
  25.4173965  38.9528649  62.1306612  25.0620974  38.2960785  62.7383224
  26.2942353  39.0949885  62.3855056  31.4558222  26.0320407  61.2579336
  31.8294230  25.3101144  60.7211123  32.2364906  26.3335421  61.7863705
  24.9153809  48.7341748  73.1227270  25.1696242  49.7055269  73.1197432
  24.8223434  48.6853242  74.1462126  39.2294050  54.9946087  57.0400265
  38.8160822  55.4651030  56.2688588  39.9284250  55.6380151  57.2382922
  18.6527615  34.1838110  75.0634403  18.1475865  34.9679566  75.2590952
  18.5348431  33.7399987  75.9722347  18.9867733  30.6005224  73.6612667
  19.0406443  31.5125531  73.3833839  18.0276443  30.3991557  73.5517684
  32.4185988  28.5686133  52.4671343  31.5648156  28.2374217  52.1475251
  32.2665381  29.5058771  52.5607663  38.2559493  50.5995017  62.0009729
  38.8717452  50.9806978  61.3309146  38.7831919  49.8371974  62.3158769
  24.1076391  45.0893458  67.1457769  24.2474938  44.8273309  66.1731869
  24.1312015  44.2566248  67.5837102  35.6497439  47.0317771  58.4905201
  35.8620543  47.7743519  57.9163668  36.0726596  47.4359614  59.2981696
  32.8326863  43.1959429  64.2195041  32.7822032  43.0171622  65.2039320
  31.8943181  43.0581615  63.9577912  38.6338496  62.9766576  63.0099789
  38.1269322  63.7955086  62.7181502  38.7810140  62.5310462  62.1876234
  15.0112916  52.9664495  57.7173549  14.9369940  52.2293280  58.3430588
  15.9195740  53.2063331  57.7464897  37.6361404  51.5654858  71.3872715
  37.7415463  50.5921097  71.1250290  37.0903616  51.4221409  72.2066982
  24.1622197  42.8444712  68.8778118  24.4127572  43.2993246  69.7180285
  24.2544187  41.9465137  69.1190337  46.9778824  68.2661014  15.2172451
  46.0866467  68.1311284  15.6666586  47.4406158  68.7730020  15.9174600
  25.5738853  42.3091861  74.0375363  26.2316862  41.7992671  74.5479932
  25.5017407  43.0913805  74.6731086  29.4581382  38.0967212  75.3571232
  30.0209462  38.8491876  75.4430396  29.5995910  37.6213681  76.2032928
  31.1799591  43.7864839  55.0601000  31.0110007  44.0282466  56.0083168
  31.6916746  42.9002786  55.2484264  36.7072857  32.4226221  74.0586588
  37.4285739  33.0852783  74.1426022  36.0466629  32.7742760  74.6955222
  21.4051407  36.7286363  75.8881141  22.2715308  36.6549418  76.3116628
  20.8082491  36.9009510  76.5777504  31.4800280  46.5263119  64.5773635
  31.0990429  45.9051957  63.9213069  30.5948618  46.8750618  64.9181226
  41.2318134  41.7682328  58.4549741  40.4724035  41.2576337  58.2168816
  41.4945710  42.1771338  57.5673111  38.2115424  41.9472336  60.9221213
  39.0442247  42.5068009  61.0526141  38.4360523  41.2231629  61.5172512
  37.5744028  39.5166008  52.1462310  36.6732598  39.4727329  52.5376174
  38.1145453  39.0137302  52.8441731  26.6976262  25.1275242  71.0261962
  26.7840058  25.9594126  70.4675019  25.7129938  25.0608278  71.0723918
  17.7086327  35.8113953  67.3047417  17.2441542  35.5304755  68.1760484
  16.9171228  35.6176975  66.7362010  28.3382171  31.0311313  74.3681352
  28.1872435  31.6127072  73.6056733  27.7906193  31.4647135  75.0606813
  28.8030456  38.2104807  59.4944012  28.8359083  37.8992926  60.4203410
  28.1971037  38.9732171  59.5466750  40.9004536  42.9376597  67.8676229
  41.0739151  41.9633485  67.6794254  41.6639556  43.2957973  67.4192468
  57.7116991  53.6279205   8.8346670  56.8703237  54.1108569   8.8995358
  57.3383608  52.7542920   8.4930620  27.8314149  39.7744463  50.4390262
  26.8583855  39.5449091  50.4225183  28.1282374  39.5500487  51.3010933
  33.6486561  50.2501336  52.6164635  32.7813953  49.8026281  52.7557864
  34.0551113  49.4555604  52.1213442  39.3342299  36.3125920  63.6827063
  38.5804131  36.0610295  63.1797851  40.0757105  36.1768837  63.1094956
  36.9753213  26.1627435  56.3066022  37.5146556  26.9507119  56.4653333
  37.0332922  26.0779087  55.3563221  32.3904705  38.2941550  74.0199411
  33.2402824  38.7569609  74.2684565  31.7288238  39.0008723  74.1490111
  36.7018310  42.1843571  71.1760076  37.0678020  43.0742041  71.4735720
  35.7888016  42.3875324  71.0363297  42.4176573  45.0458653  78.4365628
  43.1629195  44.7074105  79.0372856  42.4780407  44.3924875  77.7076980
  26.9457563  35.6223605  62.5454148  27.4454265  35.9229052  63.3708040
  27.0368045  34.6760778  62.6438643  21.6198248  38.1705323  53.2612407
  21.5681210  38.0952096  54.2189554  20.6820216  38.4317249  53.0439600
  21.1016428  37.5497911  67.6848038  21.3854038  37.8783658  68.5540911
  21.7755466  38.0537031  67.1801631  33.2073781  27.5874772  58.6348369
  32.5100454  27.9327161  59.2133541  33.6916170  26.9966353  59.2447899
  40.6594718  29.6349637  68.6747908  39.6787129  29.6543240  68.6424123
  40.8717949  30.5872512  68.8053837  39.6685963  75.8024048  23.5051692
  40.1507251  75.7492988  22.6281541  40.5024719  75.8115099  24.0819527
  25.7527165  38.4049807  65.1233601  26.2052459  38.5728087  65.9578824
  25.0758961  37.7658919  65.4483619  32.0437465  29.0847725  62.7100013
  31.6573538  29.0734562  63.6293915  32.8014080  28.5220226  62.8478349
  29.9868555  33.5205776  59.4998527  30.9217609  33.5935606  59.4571251
  29.7333735  34.4796886  59.6036635  25.1903205  39.4232213  80.4921335
  25.7549586  38.6812309  80.2089621  24.9202663  39.0754016  81.3500331
  35.0716313  37.1635127  61.1776458  35.5525664  37.9249102  60.8956750
  34.4704595  37.5160102  61.8075228  22.8380048  49.3402580  67.5807670
  22.7356255  48.5264037  68.0441767  23.3761700  49.8696213  68.1459761
  17.6323250  39.7945389  70.4030238  17.9570034  38.9039167  70.5911977
  18.1297261  40.3480464  71.0085713  25.2682283  34.6497127  57.3792764
  25.1464883  34.2713524  58.2810179  25.9432981  35.2985657  57.5122197
  30.1526544  40.1549790  56.0359388  30.5386134  40.6679563  56.7609094
  29.9894353  39.3255824  56.5129167  43.1345674  31.6795002  68.2254698
  42.9259995  32.5368232  68.6223882  43.0448798  31.8066488  67.2792312
  10.8516214  53.6255730  57.3646052  10.4839168  52.7278556  57.3430463
  11.5581779  53.5238539  58.0425996  29.7234555  37.7428599  62.2473036
  29.3153880  37.3657453  63.0643388  29.9285710  38.6668153  62.5913977
  25.0233851  26.8878255  61.0720132  25.0508352  27.5195632  60.3418105
  25.8602767  26.4119140  60.8676286  37.8352218  43.0092500  66.7536440
  38.3582614  43.6038833  67.3455187  36.9537018  43.3156418  67.1060023
  24.1922874  49.7192704  54.8011783  23.2448283  49.3660217  54.8814365
  24.0607514  50.2941617  54.0174018  41.0598105  45.6250129  54.4090471
  40.1076493  45.3794581  54.3466154  41.3743951  44.9327022  54.9832365
  35.7588631  43.3837593  48.7221330  36.3758842  43.9087769  48.2326407
  35.8617268  42.5158615  48.2824107  24.6738442  28.0947755  73.7776396
  23.9452754  28.1693881  73.1204095  25.4201085  28.3928771  73.2425195
  36.5383923  41.2197661  77.1711949  37.3797204  41.3636895  77.7206022
  36.6833529  40.3402769  76.8122821  24.0323111  33.4673437  59.7380574
  24.2675515  34.1463279  60.3543870  23.1461098  33.7510900  59.4401101
  27.2507507  40.2732898  58.8298877  27.6858465  40.6719223  58.0432969
  26.3492708  40.1620849  58.5221903  19.2824077  49.1195757  60.0754655
  18.9932325  49.9385857  59.6987067  20.2485846  49.1037357  60.0979032
  25.6858818  26.8994100  63.9015289  25.3559962  26.5951210  62.9909466
  26.1757916  26.0963447  64.1155362  50.9209335  56.4957366  57.4723481
  50.3445007  56.4684412  58.2475273  51.7518256  56.7864854  57.8974798
  37.0134757  59.5659064  62.8049481  36.4735678  59.6836270  62.0063551
  37.3825043  58.6556534  62.5502357  43.1577755  56.6621767  64.0493124
  43.2386556  55.7289057  64.3527329  42.2214721  56.8217037  64.2026788
  29.9006204  45.0943884  57.2785852  30.5703065  45.3679222  57.8984891
  29.2338264  44.6660468  57.8840620  26.4480686  62.3966177  74.6633167
  27.3212579  62.0646524  75.0559722  26.5826507  63.3529071  74.9111760
  36.8141039  59.3212984  54.1562962  36.6796769  58.4519924  53.7614660
  37.1452702  59.7623853  53.3714651  29.0812512  63.2967822  46.0693909
  29.1016910  62.3645905  45.6570605  29.9269892  63.5932341  45.7233157
  11.0053763  33.1751205  13.0779768  10.5037187  33.7062800  12.4859113
  11.2248128  32.3681693  12.5120005  32.6758740  57.6525337  71.4467832
  33.4450802  57.7281069  70.8458052  33.1977936  57.5179518  72.3134823
  13.6509214  38.0666378   3.0298989  13.3870758  38.1622527   2.1027507
  13.2707684  38.8593548   3.4530051  36.3573270  69.6499705  63.8349233
  36.4088257  68.6964472  63.6365645  35.8644764  69.9619611  63.0613647
  38.3157489  60.2776080  66.9530298  38.9703208  60.3072294  66.2302114
  37.5862521  60.7881952  66.5398140  48.9496837  63.4179488  68.8183858
  49.5120473  63.2777846  69.5892773  49.5891863  63.2875824  68.0960553
  56.7165552   5.1966658  66.4597123  56.7680202   5.8509724  67.1469283
  56.9881781   4.3772041  66.8734403  33.2340272  75.8847773  61.4409876
  33.3612038  75.4331998  60.5846131  33.5618315  76.8179053  61.1941698
  46.1079752  40.1471640  69.5347344  46.2761516  40.6673443  70.3272787
  47.0753325  40.0792246  69.2110575  37.9570307  58.3517714  56.9022206
  38.5581217  57.6570749  56.8038810  37.4449266  58.3642392  56.1109741
  44.1160810  55.2553177  69.8808445  44.1274140  56.2522497  69.9035541
  45.0550661  55.1249024  70.1798497  31.4487206  58.3297738  63.9410915
  32.1796930  58.8968092  63.8102362  30.8630080  58.8376260  64.5337705
  40.0678800  52.7074988  58.0398399  40.1725392  52.1240307  57.1930996
  39.7543327  53.5449163  57.6026574  36.9011272  61.6271944  64.6614477
  36.9271223  60.8554796  63.9831525  37.4349271  62.2727478  64.1290141
  23.9042346  48.1783202  64.1778457  24.5430778  47.4728587  64.4383638
  23.3435776  47.6597453  63.5255314  30.5512702  73.3689830  53.3167738
  29.8920829  72.9762427  53.8993720  30.2170169  72.9577237  52.4906093
  38.4919017  47.2095227  68.7632118  38.4119812  46.2358884  68.9364422
  37.5374092  47.3945009  68.5614450  48.5354376  47.0866418  73.3826804
  48.7200328  46.1675596  73.7690919  49.4040808  47.4747720  73.4830912
  34.6194498  44.8823908  59.8759061  35.3981501  44.2154289  59.7670938
  34.9088833  45.5708167  59.2783524  32.7935736  55.6309392  74.2090654
  31.8797575  55.6375991  73.8058033  32.6953827  56.5126184  74.7306171
   8.9474381  21.7321905  14.5154163   8.9454805  21.9503963  13.5624666
   8.1565119  21.1006670  14.5468257  41.4607763  53.8369136  64.9382027
  41.1827344  54.7502364  65.0060564  41.5008015  53.5617821  65.9052923
  45.3502622  51.0344040  70.0218060  45.4319119  50.5970036  70.9205346
  44.4358437  51.3695900  70.1849008  48.9451151  56.4866316  65.8703200
  49.2598226  56.0845537  66.7382135  49.7267745  56.3682645  65.3023450
  40.2078553  53.5900238  62.3466774  40.2684391  53.0158947  63.1670915
  39.5381585  54.1864944  62.7036926  38.3471323  66.9447250  66.0333206
  38.1425573  66.5811461  65.1656005  39.2365272  66.6488004  66.1897810
  30.9092238  42.2035816  74.0709626  30.0406450  42.6557471  74.1889723
  30.8083521  41.4480722  74.7058727  23.8191252  62.5971243  56.7914687
  23.8980886  62.2847690  55.8603991  22.8961014  62.3234876  56.9844353
  38.4414798  54.0673718  67.1538726  39.3627476  53.8076701  66.8958418
  38.3500390  53.7714169  68.0717690  29.5893110  46.2156952  48.6903920
  30.1946279  46.4755603  47.9737801  30.2161105  45.8646762  49.3474494
  38.7159554  48.0864341  82.5778916  37.7464550  48.0135504  82.3187420
  38.5947341  48.9185533  83.1138867  34.5596139  49.6074458  63.7913773
  33.5547863  49.6088283  63.9403542  34.6253286  48.7184921  63.4274516
  47.2946590  53.7199809  65.2945253  48.2111587  54.0168797  65.2092183
  47.3974261  52.7960602  65.5676053  36.7479554  43.6216824  59.1932440
  37.2619318  43.3479346  59.9469806  37.4009220  44.0208035  58.5888219
  38.3194202  59.5919372  76.1231801  38.7809069  59.0886020  76.7910204
  38.3254765  60.5044570  76.5384170  27.6997300  58.0263325  73.5415185
  28.0833975  58.8726900  73.2211749  27.0094534  57.8617606  72.8585833
  50.1214151  47.9585812  55.5007392  49.6490256  47.9274217  54.6634709
  50.6799808  48.7542392  55.3147905  40.9375056  63.4116557  56.7075860
  40.6543565  62.9937959  57.5812083  40.8812311  64.3708309  56.9682496
  27.6028903  63.9014370  67.8517497  27.6164841  62.9362521  67.9597919
  27.6674210  63.9484755  66.8695620  32.6386458  70.6998110  57.6686810
  32.8029110  70.5460846  56.6795350  32.2240599  71.5734561  57.6832906
  29.4904003  56.4264951  56.9361467  29.5252067  55.5014420  56.8192141
  29.0710264  56.5385512  57.7787687  30.5580713  34.8980607  71.2114003
  30.9337300  35.0354444  72.1322995  30.0517424  35.7141536  71.1866418
  51.2141245  63.3015898  67.3168269  52.0188818  63.4164438  67.8928042
  51.5087441  62.6652072  66.6417378  22.7127749  17.5065069  11.8468512
  23.3475945  17.0473352  12.4353924  23.0037849  18.4547416  12.0143258
  40.5550105  60.4457587  65.2629434  41.1550642  59.8419125  65.7773454
  41.0777671  61.2423639  65.3814077  13.3008664  34.6477448   8.0413972
  13.1024894  33.8061219   8.5812423  13.1481296  34.2732471   7.1207989
  37.8124876  67.7675624  61.7973525  37.2059246  68.2001912  61.1739437
  38.2361720  68.5571345  62.2033461  34.1538839  46.3858165  69.8082762
  33.3909473  46.9900168  69.6183130  34.6748137  46.5778815  68.9954275
  28.3770997  52.2462081  53.7057663  28.6212799  52.3484323  52.8197228
  28.3016290  53.1677745  53.9902892  26.1521206  53.5874533  61.6112539
  26.4855206  52.6827872  61.2902224  27.0729164  53.9818136  61.4296144
  42.0687246  46.2895762  51.6062925  41.7297028  45.3909248  51.4059358
  42.0421620  46.2317471  52.5672098  45.3328601  46.1233276  75.6965229
  44.6932992  45.3888080  75.7915838  45.1551693  46.5703619  76.5678532
  52.2690877  46.0600241  72.0894404  53.2394088  46.2465650  72.4046755
  51.8245912  46.8166280  72.5294726  36.5184728  45.3305939  56.4285099
  36.3472528  44.4137642  56.1563882  35.6231195  45.5480471  56.7646020
  48.7021524  48.4547005  65.8241163  48.9207811  48.0236646  64.9494805
  47.8753714  47.9387830  66.0273142  35.0664842  60.7709977  61.3087717
  34.5525522  60.5687036  60.4511194  35.8100268  61.2001247  60.9050485
  44.4996099  53.1441107  67.6527519  45.4539579  53.0678702  67.8288619
  44.1883459  53.6243141  68.4583435  28.4806210  43.3490328  58.9250093
  28.7637826  42.4333708  58.8616081  28.3290822  43.4665054  59.8990452
  45.4034872  56.5392792  62.6653007  44.4407395  56.6730482  62.8387371
  45.8246493  56.8899958  63.4551615  38.7707417  45.9010132  63.0923958
  37.8966971  45.9439184  63.4629614  39.0953862  45.0550641  63.3675855
  30.6600860  40.0011128  63.6683650  30.5525367  40.8720772  64.1013478
  31.2461125  39.5587054  64.3602078  38.5549221  45.0955244  51.1429923
  38.5802551  45.1694597  50.1924109  37.6113849  44.8969171  51.3151235
  40.1664623  51.4179925  60.4684722  40.1540599  51.8632696  59.5737255
  40.5767419  52.1164798  60.9687228  38.6350823  57.3875708  62.5814544
  38.0646093  56.9805965  61.8302824  38.6158697  56.5797862  63.1142173
  36.8861015  56.3176815  60.8437343  37.3313225  55.7103250  60.2482870
  36.0629620  55.8604675  61.0531231  43.0987233  51.9381202  59.2171155
  43.7020579  52.6732912  59.2634867  42.6169845  52.1439725  58.3820372
  42.1685517  57.4592808  54.3727372  42.3622464  56.7102123  54.9620162
  41.7236219  58.0987839  55.0216516  42.7062201  62.4504619  54.8115462
  42.7315557  63.4731884  54.7413445  42.1111476  62.4580101  55.6096264
  39.3274401  58.2562650  71.6708455  40.2064109  57.8558315  71.5206244
  39.5271114  58.6029151  72.5976599  19.3386847  44.4501217  58.4259051
  19.6014215  43.7796937  59.0903241  20.2305961  44.8843012  58.3204195
  40.2469437  65.4283036  47.4148194  39.5546521  64.8113093  47.7536629
  39.7086536  65.9717551  46.8151085  37.1473003  52.7726022  53.1173941
  36.7230311  53.6145753  53.3723740  37.1214861  52.8480374  52.1185063
  33.5502787  52.9448543  52.3471677  33.0352912  53.2048700  53.1929223
  33.4291573  51.9897028  52.3961691  35.6103212  51.0444255  54.9082416
  36.0547252  51.6535088  54.2950038  35.0133132  50.6191770  54.2500137
  46.9837547  56.1961345  60.6005806  46.2108285  56.5775510  60.1478153
  46.6031732  56.2211222  61.5468147  40.6086173  59.4401643  62.4966754
  39.8525554  58.8457677  62.5276706  40.4642690  60.0041647  63.2791173
  35.0734328  54.1918280  68.9545639  35.3233081  54.8153919  69.6497161
  35.8540028  53.6983205  68.8270049  48.0890478  52.2224239  71.5191334
  48.9539277  52.3361991  71.8716830  47.7339932  51.3618528  71.8530255
  40.3539763  47.3824513  64.8248451  40.0600871  46.6594678  64.2483483
  39.4316710  47.7574853  65.0632103  14.8905133  23.9020459  10.7757222
  14.5007752  23.0176792  10.6000619  15.6276254  23.6364305  11.4404750
  44.7881449  54.5504421  64.9249780  44.4111510  54.1113641  65.7336599
  45.7453234  54.3068514  65.1020824  34.8740724  47.3459949  62.1794352
  34.5409478  47.9117892  61.4505606  34.9655604  46.4932646  61.6223881
  37.9015728  53.6480514  69.6777989  38.2060483  54.3888161  70.2420255
  37.6360568  53.0112295  70.3812822  47.7701712  52.3581370  62.6563067
  46.8092583  52.4703821  62.3383139  47.7176368  52.7579176  63.5045655
  31.3131439  44.5899022  62.2906415  31.9338712  44.3323887  62.9412524
  31.6266631  45.4762237  61.9483734  41.0396632  50.4998298  65.0180412
  41.7918921  50.7684749  65.6012855  40.6399782  49.8446385  65.6684291
  36.5154726  52.8798556  65.8326237  37.1595233  52.6087656  65.1292634
  37.0480073  53.5020669  66.3838128  35.0448107  64.3917974  65.6309113
  34.5308738  64.9852519  66.2073652  35.1510992  64.9826816  64.8687177
  42.5173825  52.8758437  52.1914572  41.8709953  52.1336187  52.1778065
  42.0502190  53.3806759  52.9363567  13.1887640  32.9424268   5.6455107
  12.4753715  32.2681443   5.7503979  13.8241968  32.4392503   5.0799182
  46.3628769  57.5984868  65.0164314  47.3046547  57.3765148  65.1261476
  45.9357320  56.7589414  65.3199074  38.7941457  52.0856206  64.3929287
  39.5282306  51.5029868  64.7081779  38.4923455  51.6455753  63.5934876
  38.5290546  49.8061975  58.2842914  39.1129258  50.2499996  57.6482045
  37.7876266  49.6069742  57.7183160  23.9201226  23.3314163   9.0369614
  24.6267773  22.6721939   8.9462396  23.2267231  22.8243620   8.4960311
  50.4137706  52.2324954  73.2354985  49.9703930  51.4362310  73.6351511
  51.1374220  52.3565208  73.8665361   8.6054814  39.6449782   4.9307409
   9.3693730  39.6466100   4.3539160   8.5577154  38.7006704   5.1959206
  31.1809065  53.5154404  63.9686301  31.0198595  54.3359135  64.4895058
  32.0843818  53.3259838  64.2615487  32.9343658  54.8398497  80.0149978
  32.9385800  55.3119033  80.8468771  33.8808527  54.4843623  80.0453154
  23.5982765  40.7209157  61.5056624  24.1772835  39.9900994  61.7821612
  23.1991925  40.2706062  60.7397839  28.0800507  44.0843368  72.3763162
  27.2898252  44.7117870  72.5623637  28.4817093  44.0123357  73.2803313
   8.8659983  25.4472872  13.6469788   8.6848457  24.5310532  13.3397894
   9.2003775  25.8930757  12.8444371  39.9245017  62.7458449  59.7681476
  39.0458388  62.4479161  60.0871629  39.8807397  63.7310743  59.9209972
  39.2148037  40.1710910  57.6309001  38.3414524  40.6284774  57.4513580
  38.8036242  39.4198901  58.1198323  44.6172335  53.3834554  62.3541316
  44.0863575  52.7924414  62.9595329  44.5803979  54.2004970  62.9308632
  30.3924717  75.5574204  61.8056933  29.8720304  75.9248229  61.0907172
  31.3095429  75.8717620  61.5810347  15.6261857  34.8164739   4.2561791
  15.3573870  33.8847573   4.1221259  14.8100541  35.2320367   3.8816494
  44.8320582  63.0235992  65.8038872  45.4574228  63.7976120  66.0138049
  45.4042064  62.2542445  66.0787602  45.8618340  60.9116280  51.6448315
  46.0664289  61.3614272  52.4949692  44.9270930  61.0962591  51.5828788
  38.1720968  60.9257215  70.7673670  38.3703608  59.9926360  71.0979070
  39.0635676  61.2335173  70.6102287  40.1528488  50.7528975  56.0800153
  40.5633854  49.9019030  55.8675595  39.7995814  50.9759074  55.1375102
  37.0168135  36.0145345  65.8791463  37.3303290  35.7762484  65.0160640
  36.3408358  36.7005746  65.5846840  53.4047922  49.0439158  67.2355104
  53.7588906  49.3723918  68.0517582  52.4429181  48.9198801  67.4051105
  42.9129803  69.1988857  61.4975858  42.7280297  70.0879125  61.1365075
  42.0895538  69.0664399  62.0046440  50.3624060  66.4940779  60.3827140
  49.4723464  66.2206796  60.5717678  50.3018000  67.3058098  59.9016554
  13.5331911  10.1562216  26.5602905  13.3391000  11.1257621  26.7035924
  13.6852898   9.8203002  27.4847300  36.4306929  59.5210756  74.2193535
  36.6233661  60.3955774  73.9090185  37.1391458  59.3683783  74.8811516
  38.0831947  66.8990163  49.4712969  38.3898068  67.5145266  50.1709162
  37.6050089  66.2217526  50.0651485  29.4461039  49.2908555  74.3789388
  29.1228526  49.5688425  75.2563126  30.3814377  49.2225090  74.4893694
  19.0073591  21.7305533  12.1263276  19.4867580  20.9228830  12.4032210
  19.0433827  21.6505653  11.1309309  27.2700708  47.4316946  69.7358137
  26.4483766  47.3834454  70.1790680  26.9209338  47.4632707  68.7704892
  33.4742235  47.3873954  66.3447267  33.1483093  48.2659781  66.6125385
  32.8292201  47.1768604  65.6490738  36.4749039  50.2674688  73.4751215
  36.6179639  50.9692998  74.1673188  37.2012305  49.6878164  73.6509491
  25.4487486  50.4095452  64.0815243  26.2780885  49.9054719  64.0297354
  24.7959936  49.7056669  64.0194738  42.6635375  65.5785973  61.9487676
  42.2474009  66.4192215  62.0628398  42.8680519  65.3150897  62.8740341
  38.2589600  54.7536465  63.9851213  38.5049202  53.7902586  64.2078965
  37.9691466  55.0160902  64.8963248  34.2082640  61.5555103  65.6562470
  35.1607383  61.4909597  65.4106068  34.0359052  62.5124636  65.4981115
  34.7161375  46.9464932  78.6283400  35.6114418  46.7342149  78.2484566
  34.2659186  47.0702193  77.8127529  30.6327112  51.4524720  61.4825273
  30.3185695  50.8584524  60.7584886  31.5978610  51.3470504  61.3701022
  31.0603607  55.3030048  71.3228305  30.5189468  55.4535918  72.2095081
  31.5922478  56.1139259  71.3592319  33.1577730  36.8547965  54.7340205
  32.3930749  37.2398472  54.2264404  33.3426211  37.5066170  55.3923308
  37.5357220  59.0431802  59.4741323  37.2480569  58.1505160  59.7466191
  37.6998091  58.9224334  58.5219166  31.3070670  47.6895710  79.7782594
  30.7569832  47.0865471  80.2931258  30.7533981  47.9359777  79.0438572
  46.4111822  46.9091147  66.2615961  45.6314656  47.4632283  66.6139763
  46.1838342  46.8173586  65.3793172  36.0663547  51.8316064  62.7268744
  36.8272184  51.2840325  62.4059056  35.3483245  51.1762196  62.8256517
  36.2134031  49.0080962  56.7258924  36.1345805  48.4204235  55.9444826
  35.8164022  49.8268095  56.4018891  35.4992200  66.3896139  63.6618250
  35.0884650  67.1329974  64.1750509  34.9791117  66.5553236  62.7875668
  28.5266574  49.1531475  67.6930385  28.8982787  48.8699921  68.5311726
  27.6424621  49.4495798  67.8508093  32.1601221  44.8551910  58.8774800
  31.6883572  45.1866790  59.7112283  33.0974405  45.0140212  59.1775032
  28.3195343  28.0909976   6.1929176  28.0925316  27.8463715   7.1069954
  29.2778232  28.2768428   6.3131620  37.1738691  55.7515853  72.9378565
  36.2818279  55.3543600  72.6527828  37.4775829  55.9908315  72.0283210
  29.1516328  54.9542367  59.6329897  29.1680327  54.4144105  60.4109863
  28.2902882  54.8047875  59.2359779  33.8034414  35.0579034  60.2905472
  34.3955451  35.8467698  60.4263329  34.1197642  34.5976126  61.1196023
  51.4282707  56.1253971  63.9932298  52.3137682  55.7122991  64.2878331
  51.7833968  56.7219334  63.3077371  41.9224640  57.2114120  71.2970765
  42.4988728  57.4638135  70.5371908  42.5800408  57.0065249  71.9800346
  31.6061632  46.8262095  76.5658914  30.7630577  46.8735447  77.0395993
  31.8529483  47.7916189  76.6273968  46.4962840  52.3907634  48.4100444
  46.9892798  53.2302724  48.2418833  46.5210592  52.3260712  49.3453611
   5.0261901  23.3537827  21.5530269   5.2625503  24.2773541  21.4143607
   5.4135858  23.2839177  22.4467154  38.3603730  73.1717013  62.3084072
  39.0761522  73.7773879  62.6262830  37.9086831  72.9172843  63.0971376
  33.7945925  59.6323418  63.7428793  33.9400689  60.0721053  62.8679311
  34.3227803  60.2000077  64.3025760  31.8871901  71.9312775  60.9308695
  32.1463039  71.0312603  60.6714373  32.5304932  72.5080946  60.5100254
  32.7434736  53.3192692  70.2646372  33.1592879  53.6843822  69.4666908
  32.2441751  54.0963481  70.6510810  35.7267666  45.5821868  75.2199535
  34.7804081  45.5057497  74.9311440  35.7181062  45.0008242  76.0241829
  41.2126099  53.0389136  67.6339492  41.6522948  52.1718738  67.5227105
  40.9929600  53.0190452  68.5959890  41.3555361  50.7464700  73.4620635
  40.5554997  50.3423345  73.8760897  41.6924694  49.9405784  72.9040851
  39.7152227  62.2001431  68.2770854  40.2383269  61.4269639  68.6029702
  38.9623638  61.6706692  67.8395700  33.5957075  46.9084134  72.9397815
  33.2486594  46.3792451  72.1127121  33.3842280  46.2220942  73.6288037
  40.5812027  66.0070040  69.7493932  40.8280546  65.8958722  68.7425269
  39.8967750  65.2857232  69.7043977  44.5455126  48.2287673  71.0421103
  45.2474271  48.5749261  70.4984859  45.1265982  47.7546753  71.7454934
  52.5127641  60.1971642  55.2668591  52.8712507  61.0322667  55.5597531
  53.0951802  59.5364177  55.5821991  46.8919678  48.8691190  69.5317033
  46.4580273  49.7440193  69.4263578  47.8198127  49.0718157  69.2400612
  28.5896923  60.1332387  60.2653291  28.7447267  60.0703493  61.2573233
  28.4612416  61.1577336  60.2079149  29.6838225  48.0731064  70.7176454
  29.4594214  47.8579603  71.6681819  28.7684219  47.9186345  70.3188861
  34.3450013  41.8235910  53.4616612  34.9270664  42.5379139  53.8624289
  34.4110825  42.1275018  52.5208347  45.8661294  47.2016599  63.7615022
  45.0117973  46.9049103  63.5620230  46.3517183  47.0176059  62.9618017
  45.0820953  53.4499883  57.3235201  45.7274412  54.0945065  56.9846208
  45.0713318  53.8042354  58.2644105  31.0876472  22.1270246   6.5007306
  31.9749527  22.6085454   6.5457145  30.7887975  22.4822909   5.6283182
  46.1284997  36.4465453  73.2250179  45.9433927  36.0711662  74.1171738
  45.3674205  36.0427230  72.7456840  29.5174874  68.3770922  58.5580918
  29.5570227  68.1791200  57.5995242  29.1724562  69.3314146  58.4698480
  39.9764089  65.3372867  60.9151394  40.9308560  65.4507743  61.0386303
  39.6372141  65.5755356  61.7729240  13.2319731  26.1528300  10.6478461
  13.3946873  26.6216016   9.8117267  13.8408900  25.4118925  10.5555102
  42.4957582  55.8322773  50.9817861  43.2617884  55.7292440  51.6315907
  42.7467275  55.0572151  50.4038108  46.0599556  48.0454631  60.6827516
  45.5020773  47.2057224  60.7975428  45.3470993  48.6698929  60.9879356
  45.2358657  54.3070696  73.7711803  46.0721900  54.8507745  73.8803448
  45.0836187  54.0832509  74.6919386  44.8796980  57.1566238  59.3225978
  44.7068888  57.4256348  58.3592810  43.9439572  57.2701313  59.6123380
  40.2059132  51.4480022  69.6288535  39.9020468  50.7150400  69.0246831
  39.3976180  51.7572618  70.0231927  32.5460497  53.6632069  61.7636394
  32.3001129  54.6288134  61.5791174  31.9240010  53.4847997  62.4602420
  28.0377017  53.3439938  73.0963631  27.6795033  53.7433241  73.9280772
  27.5419869  53.7997768  72.4109642  28.9126087  53.7417817  66.0845690
  27.9776760  53.8817721  66.0895201  29.2578440  54.6379341  65.9383187
  42.2406965  48.3140111  72.4169583  43.2034048  48.3405350  72.2393018
  41.9595364  47.6042339  71.7469732  36.9813221  35.6742951  62.6025961
  36.4315906  36.4356389  62.2237667  36.4709142  34.8915926  62.3239686
   7.9246984  10.3349049  22.5929258   8.4127367  10.4417009  23.4097747
   8.2523343  11.1228335  22.0878460  36.2589790  40.7251786  48.1895088
  36.9293560  41.0043545  48.8458237  36.7941333  40.0062106  47.7931799
  13.2530878  56.8134813  63.8672486  12.8965702  57.3376850  64.6289614
  14.1917586  56.7670780  64.0479647  48.3723135  45.2526164  61.6283658
  47.3835248  45.0573671  61.6413304  48.4871019  45.7104050  60.7749934
  46.6656100  46.2538040  68.9829300  46.8341580  47.2511648  69.1265403
  46.4706109  46.2024004  68.0444386  41.1707731  44.8141403  72.9747446
  41.4459010  45.4269021  73.7182869  40.4840702  45.3342498  72.5425912
  26.7703847  53.5270227  49.1841621  25.8923935  54.0539074  48.9635328
  26.4129086  52.6230063  49.0562622  27.5079705  40.0276919  69.5704680
  27.2641844  40.8412811  70.1133244  26.9281065  39.3467530  70.0567672
  30.7952561  60.1454615  74.4652356  30.0265922  60.7108203  74.7175799
  30.4431131  59.5837701  73.7721641  43.4763601  46.7115732  62.8671406
  43.7377946  46.4734212  61.9449910  43.1475923  45.8815505  63.2113513
  48.1669796  57.1680830  69.0923853  48.3673085  56.2220896  68.9960277
  49.0414785  57.5437602  68.8861439  31.0487058  63.3275178  71.7509996
  31.2563218  64.2976681  71.8835799  31.8579662  62.9926449  72.1987916
  34.3303582  59.1587268  66.8114813  34.0494075  60.0240171  66.5037175
  34.2889595  58.6754930  65.9449483  40.5921312  67.6307502  51.2507368
  41.5348813  67.5069607  50.9404350  40.3578615  66.7796350  51.6235836
  40.8347864  45.8794292  60.9937907  40.1215384  45.7689773  61.6879437
  41.0885999  46.8141020  61.1485137  34.8838831  42.9971840  57.1355080
  35.6247514  43.1985537  57.7918207  35.2544751  42.1916039  56.7851440
  44.2328208  48.2787936  66.7907848  43.8771851  48.6745360  67.6599147
  43.9054149  48.9149250  66.1628318  20.6776086  54.2735790  69.7829471
  21.0208826  53.3817756  69.9792527  21.3939048  54.8458076  70.1136207
  48.4290304  54.0753843  59.2168294  48.1496209  54.2485102  58.2517962
  48.4748223  54.9580550  59.5732937  43.4890796  59.9047181  47.9030664
  43.6703506  59.1840027  48.5154451  43.2207802  60.6852920  48.4189475
  28.5307336  41.1908931  61.7530204  28.0465700  40.6044922  62.3608844
  29.3680905  40.7084964  61.7066010  39.2498008  46.7980280  71.8340853
  38.6025965  47.5162947  71.4849104  39.8185017  46.7067729  71.0382020
  32.7373802  56.0255403  53.5573471  32.7108026  56.5185918  54.3809051
  31.8325070  55.6894031  53.4774474   5.0217622  36.9473177   6.9267030
   4.4941238  37.6966898   7.0748218   4.3430403  36.2292521   6.7308627
  39.4939807  70.4027062  65.7155152  39.0672060  69.7651042  66.2891858
  39.6693727  71.0799785  66.3827082  36.0872629  49.9666228  66.2050504
  35.5523872  49.8433624  65.3675564  36.0818469  50.9690576  66.1542807
  50.0072962  69.8766377  62.2967865  49.0695116  69.7888804  62.4240087
  50.3021835  69.0345747  62.6746044  24.8783914  35.5980896   2.6765989
  24.2273092  36.2966968   2.7694768  24.4453089  34.9568829   2.1103405
  15.6166618  38.8244216   6.6298200  14.8005115  38.3185996   6.5193919
  15.9380612  38.8213127   5.6800375  20.8420760  28.6724544  12.5751771
  20.5517980  29.6002576  12.4139005  20.0001002  28.2157940  12.3747077
  75.7057955  25.3597199  64.6863756  76.4193003  24.7986160  64.2538938
  75.8005473  25.0186559  65.6073040  46.2772799  62.4077881  68.9969434
  47.1377832  62.8352894  69.0448608  46.3321160  62.0459948  68.1037943
  20.0971150  39.3279455   5.2554417  20.4275577  38.7592443   4.5577141
  19.4984961  38.8034428   5.7866181  44.9431613  69.8987525  57.9536085
  45.4463248  69.0807236  57.8625175  44.0264065  69.6323978  57.7684014
  61.1324687  65.6215556  61.4237634  61.2329392  66.4842996  60.9058045
  62.0154243  65.2365184  61.1132002  27.7835131  44.3332784  -2.0108376
  27.9864641  45.0431142  -1.4298840  28.7021807  44.1588449  -2.4147048
  26.0456765  35.2629743   5.1609002  25.3645290  35.0573192   5.8337212
  25.5296234  35.3138540   4.3771506  29.9497015  47.2435364   4.2250353
  30.3216483  47.6435566   5.1034881  30.8831009  47.1790856   3.7814559
  54.8117274  66.0696623  52.8174563  55.1436250  66.6897727  53.5299038
  55.6447403  66.0234171  52.3145323  49.2377703  59.5018665  59.5034568
  48.3435992  59.6824189  59.1082002  49.1513196  59.9698683  60.2836529
  40.0336338  56.1662503  52.0160008  39.9397600  55.7378783  52.8974862
  41.0203719  56.0174304  51.9010496  47.6073080  72.2427154  59.1882328
  47.6923568  73.1585151  59.4921913  48.4575464  71.8888714  59.4054476
  52.8681287  57.3708740  62.1286841  53.7888169  57.5513399  62.4016329
  52.7498069  58.0588184  61.4372768  51.1221518  68.6770505  58.5876382
  51.8936471  68.4092909  58.0345770  50.8528114  69.4942820  58.1369862
  17.5598291  37.7752131   1.6211201  17.4074032  38.2975918   0.8503184
  17.3259589  36.9010721   1.2816887  50.3198025  74.5342162  51.8670704
  50.3459054  73.6932801  52.2769035  50.4113600  75.1792362  52.5601729
  31.3201760  24.5055303  10.9514411  31.0565228  23.7950555  10.3103892
  31.8322669  23.9914079  11.6173828  50.2379610  71.3275698  60.0075894
  50.9016995  72.0841286  60.0183229  50.2835822  71.0030025  60.8938636
  27.5498409  32.2778129   5.5507552  28.0204320  31.6212263   4.9745700
  27.6935625  33.0873183   4.9603235  24.6054748  32.0787347   3.3105428
  24.1215745  32.8526700   3.5285467  23.9213802  31.4457320   3.0676818
  16.1908322  38.6044564   4.0554061  15.4370451  38.1562915   3.7042404
  16.7995331  38.5353276   3.3184402  47.3607081  70.0002171  62.5853044
  46.6743466  69.8220281  63.1993934  46.8523188  70.3090875  61.8409467
  45.7124060  67.2225540  58.4330902  44.8240750  67.4271165  58.9137902
  46.1530082  66.7213989  59.1802144  12.0203722  43.8559150  10.5351956
  12.8636504  44.1088369  10.1318082  11.3865170  44.4376486  10.1006414
  36.9176754  63.6644757  67.1703290  37.6505688  63.8789414  66.5561716
  36.1054958  63.8022906  66.6212574  38.5051890  64.2829549  69.3149776
  39.0566441  63.6586813  68.8370414  37.7164330  64.2507426  68.7449812
  21.0158257  39.8652363   0.4846836  20.3700132  40.5745438   0.7625618
  21.8393359  40.2900744   0.7283896  57.9058880   9.4972309  67.5771699
  57.5469916   9.3545515  66.6707779  57.3647702   8.9084387  68.1070183
  40.8926984  73.9766472  48.7285257  41.4396635  74.2882229  49.4683713
  40.3137963  74.7509979  48.6103889  18.5037018  39.1999999  13.7077967
  19.0952809  39.4771769  14.4338935  19.2083972  39.0690294  13.0135175
  55.4235792  58.1021248  63.1340445  55.7277810  57.7487095  62.2745685
  56.2303109  58.4486478  63.5086118  19.8580136  42.7182380  -1.9846847
  19.6984659  41.8285191  -2.3800124  19.5536962  43.3452121  -2.6314505
  43.1600292  75.8096168  46.7163160  42.3766492  76.1109395  46.3412880
  43.8057916  76.3965548  46.3068467  41.2155866  59.3466920  56.1945256
  41.5701996  59.9727545  56.8949570  40.7068624  59.9032076  55.5955578
  24.5324577  30.1068202   8.7755913  25.3471657  29.9325467   9.2728385
  24.7004602  29.4844953   8.0024413  35.9858294  73.0280710  63.8954106
  35.4337549  72.2717979  63.5561095  35.3217093  73.7897176  63.8177914
  53.0447498  66.1648660  61.0847944  53.0915174  67.1689727  61.1692817
  52.1105270  66.1335015  60.7273578  49.1207167  54.6007759  68.9288282
  48.4681868  53.9093490  68.5874197  49.9289746  54.1653130  68.7583291
  24.7331361  41.2494436   9.9705708  25.0071925  42.0343231   9.4950583
  25.4818308  40.6476690   9.8088037  42.0634563  71.3513666  59.8048350
  41.1208589  71.3175616  59.6092505  42.4235792  70.8750401  58.9946624
  36.0818902  30.9278897  -1.0725619  36.9183933  31.2319297  -0.7047617
  35.4806927  31.6458131  -0.8215093  42.8609848  65.0871659  54.1204816
  42.9309716  65.4298319  55.0635324  43.3891551  65.7262491  53.6642182
  44.9099715  60.0819038  70.7746411  44.4399850  60.6814545  71.4048532
  45.3881471  60.7940181  70.2333464  45.7896458  77.2261708  48.8199347
  45.8945970  78.1067681  48.3036231  46.5020113  77.4422238  49.4625562
  51.7888132  71.6472979  50.6274848  51.6452651  71.0560649  51.4774476
  52.5093589  72.1769508  51.0433254  20.3272246  33.3978418   4.1882502
  21.2819909  33.3851887   4.5262281  19.9942413  32.7061109   4.7822324
  45.5691328  71.2162289  60.4169106  46.3485363  71.6412244  59.9193699
  45.1533164  70.7507727  59.6651513  40.5885011  65.3754657  52.6696120
  41.4447984  65.0912534  53.1101871  39.9341682  65.1168687  53.2851853
  25.3820268  44.7781434  -4.5231091  24.4350719  44.5025931  -4.2943332
  25.7835261  44.5834780  -3.6506452  44.2862459  61.1116970  58.3082812
  44.4504527  60.8123514  57.3966011  43.3096095  61.2742101  58.2395908
  54.0185164  64.6294045  58.8812344  53.9857483  65.1990467  59.7149193
  54.5956139  63.9090962  59.2848966  19.1596393  27.3471370   8.4345717
  19.6566634  26.6942549   8.9910082  19.9089318  27.6542637   7.8974438
  48.3271889  77.7277862  59.8500406  48.0412190  76.9238270  60.3362451
  47.4512605  78.1554402  59.6980623  17.0086332  36.9582630  11.3970873
  17.1343756  37.6790715  12.0028885  16.4818873  37.3849880  10.6678020
  20.3171534  37.7340097   3.1657884  20.2881270  36.9873740   3.8148867
  19.4898175  37.6210724   2.7050799  43.0639662  73.9993434  55.7899966
  43.4907845  74.2441655  56.6781992  42.5501522  74.8320302  55.6382420
  29.2436496  32.1742426  19.7489321  29.7139110  33.0299640  19.7297689
  28.6845690  32.3541256  20.5141177  46.3036214  65.2332128  66.6391373
  46.8474933  65.4695779  67.3950343  46.7372147  65.7737295  65.9277787
  26.4867907  32.9427504   7.9294900  26.6636757  32.8224666   6.9904019
  25.5903458  33.3090739   7.8959221  46.3273459  69.3915280  65.9524945
  46.4920361  69.6125846  66.9189981  46.3384216  70.3544113  65.6757229
  40.4227676  56.3754883  64.9523103  40.4749098  57.3608675  65.0207643
  39.5563389  56.2331039  65.3741694  32.3195274  73.6248812  67.4206478
  31.6106172  73.2563260  66.7678797  32.1214426  74.5803535  67.3145230
  54.8535890  58.7239294  66.8352643  55.6936110  58.2466005  66.7674759
  55.1964112  59.4987779  67.3771013  42.3177398  56.1407043  74.7605832
  41.7153894  55.5576035  74.2515399  43.0762210  56.1365274  74.0538274
  17.1119113  45.3588662   4.3703305  16.2746043  45.7808451   4.7017533
  17.5049319  45.0380116   5.1844709  20.8529160  45.3715913   9.2585658
  21.2496096  44.5792259   9.6797645  21.7173247  45.7343139   8.8289570
  42.9131623  63.5853464  72.1825391  43.7730165  64.0025167  72.4762915
  43.1810000  63.3922350  71.2332429  50.5601362  72.6035170  53.7805759
  50.6000156  73.5220799  54.2285417  49.6804297  72.3156610  54.2152755
  43.8541252  63.2789430  69.5417798  44.8248786  63.1758546  69.5308955
  43.5717836  62.7435478  68.7802495  40.8460755  71.6477859  52.8424877
  40.7551434  71.4052890  51.8930414  40.4446233  72.5309833  52.8298353
  29.5791829  67.8223171  61.9434678  28.8835839  68.4993332  61.9465705
  29.8745277  67.7256787  62.8285100  39.3320915  63.6466964  65.7228305
  39.1327741  63.2849853  64.8331209  40.1124896  63.1826880  65.9622964
  27.3920910  48.0928084  -1.6799551  28.0032838  47.3882268  -1.2463200
  27.2561677  48.6698909  -0.9052868  60.3007804  62.1370611  62.7591613
  61.1147422  61.7987673  62.4726674  60.2826039  62.0832172  63.7267977
  19.6388962  35.9771105   9.0874914  19.0651938  36.6314345   9.5345575
  19.1244479  35.8505565   8.2544803  48.4158336  59.1717210  71.6626688
  47.5633124  58.7595507  71.7025051  48.9775374  58.5144924  71.2315758
  50.4271199  75.1978521  60.2272576  51.0030645  75.9841347  60.3847276
  50.3607266  75.2034843  59.2709644  27.5133693  47.2930237  -8.4979351
  27.1088803  46.8405207  -7.7133988  26.7823247  47.8885651  -8.7706711
  24.7390413  24.3007009  14.1366319  25.5748768  24.1161915  14.6206736
  25.0465975  25.1454517  13.6890983  47.2817851  75.1507520  54.9656065
  48.1184360  75.4258303  55.3673519  47.3196592  74.2160153  55.0306706
  18.5213651  41.7699886   4.2239935  19.1510730  41.8907050   5.0011594
  18.3521611  40.7673028   4.3729189  16.8969784  45.6908370  11.7780851
  16.1659772  45.3246052  12.3254729  17.4119567  44.8029312  11.6600339
  34.1168232  78.6189219  60.9520387  33.2849116  79.0084108  61.1941173
  34.7152778  79.0861845  61.5742787  34.9976217  74.2878116  67.0329457
  34.0385185  74.1409028  66.9757368  35.0925676  74.9729107  66.2835088
  36.0812964  72.8670412  60.4878469  36.8901973  72.9218650  61.0144303
  35.9493107  73.8175867  60.2853154  10.0091469  26.9334613  11.5178517
  10.9640842  27.1301897  11.7359177  10.1398279  26.4116379  10.7240601
  40.8494021  71.6232812  50.0828734  40.6100559  72.4508204  49.5936550
  41.7615961  71.4398847  49.7438223  51.0322596  59.8289426  66.9853754
  50.2324419  60.1323298  66.5574330  51.7735997  60.1521169  66.4088617
  27.1969768  22.3268764  10.7485017  26.3598678  21.7603794  10.7677283
  26.7374838  23.1966704  10.9856470  36.8155950  75.7047330  60.4774307
  37.6949215  75.2827897  60.3828931  37.0603215  76.4603000  61.0402316
  33.7636552  39.7967714   1.6673843  34.4490949  40.4931182   1.3123038
  33.2866434  39.6900270   0.8511814  47.6099881  66.1581593  56.8868130
  46.7814950  66.3550092  57.4196229  48.0086988  65.5229395  57.5410036
  19.7318411  19.4117163  13.3466664  19.4010872  18.6544608  12.8594822
  20.3420797  18.9548420  13.9488450  48.3030580  69.2294823  59.7330556
  48.3949375  68.9784085  58.7729842  48.8130456  70.0560177  59.8077534
  43.4947070  65.9784247  70.3715227  43.9247877  65.2937568  69.7969174
  42.4968207  65.7484952  70.1473494  21.1798485  28.4214947   4.9191344
  21.3568783  28.6179523   5.8670122  21.7580800  27.6724764   4.7690832
  22.9893979  37.5656573   2.4844201  23.4826972  38.3353998   2.9644559
  22.1105596  37.9796572   2.5234539  15.2732743  27.5597968  16.8165196
  14.9987419  27.2963310  17.7070424  15.7565352  26.7583703  16.5023207
  25.5763639  29.6315678   4.3520693  26.5286775  29.6718794   4.3224932
  25.2921331  30.5441386   4.3131413  43.4347091  67.2984766  59.6945508
  43.3780107  68.1414037  60.1785429  43.2742202  66.6657466  60.4350945
  22.6022104  32.5136851   5.3287994  23.2616224  32.7020606   6.0689320
  22.0529613  31.8728293   5.8372634  22.6015370  36.4265456   0.0058565
  23.1980667  35.6424672   0.1873087  22.5110848  36.7262853   0.9603913
  39.9017055  54.8342441  48.2444733  40.0546624  54.5816932  49.1805135
  38.9549028  54.5886973  48.1770171  37.6080759  42.8561207  -2.6038435
  37.2741020  43.7358020  -2.3205732  36.8955636  42.7099196  -3.2920938
  11.4720096  12.2546344  58.0631147  10.5297762  12.4762522  58.2119047
  11.8229645  12.1137021  58.9567134  15.6391984  29.2685515  10.1195998
  16.4641204  28.9650769  10.5639738  15.9953243  30.0945523   9.6957900
  41.6894679  76.0746911  59.2075968  41.3206700  76.8110521  58.6457554
  41.7712958  76.5818423  60.0777754  14.5179765  41.0397478   2.1223552
  15.2021253  41.7471033   2.4328299  15.0314280  40.7535415   1.2945577
  15.0006994  24.6572728  13.9946578  15.7224939  24.0230451  13.7371982
  15.0262764  24.4711074  14.9827347  12.6605728  43.1464286   7.5655001
  13.3140217  43.6014077   8.0964049  12.9018327  43.3533025   6.6411281
  19.9113549  42.0859480   8.9337934  19.6127093  41.2338425   9.2394748
  19.6690859  42.0727468   7.9963955  31.3262082  73.1524179  57.3620960
  30.4403591  73.5295203  57.2489772  31.7301031  73.1979546  56.5178875
  49.3283112  57.8870398  62.8086546  49.9434992  57.2674146  63.1860641
  49.9234837  58.7256019  62.8904592  44.3521666  58.0281372  49.7465229
  43.8410284  57.9377108  50.5193363  44.6942268  57.1522087  49.5315122
  22.1246705  20.7349460   9.9969636  21.5770338  19.9301018   9.9073149
  21.9896369  21.1547515   9.0999846  52.7287832  72.7788871  60.6808962
  53.3663422  72.0929420  60.7866570  52.6173611  73.1493651  61.5607016
  22.0790697  28.0517059   7.6003890  22.1305267  27.1696651   7.9814357
  23.0309091  28.1708439   7.2630172  44.7698458  80.6849683  45.4278830
  45.6045445  80.3470596  45.7555953  44.8517049  81.6512807  45.4325124
  47.4303210  81.1504109  51.5332324  47.6633515  81.1633928  52.4827871
  47.4656590  80.2067217  51.3456028  43.2590081  65.0346382  64.5800362
  43.9704493  65.6936174  64.4117660  43.7657671  64.3408718  65.0700035
  52.5879564  59.4283458  60.4981659  51.7537378  59.5643023  60.8984057
  53.1752676  60.1532204  60.8065242  49.6776639  59.0889459  51.0120437
  49.9297289  59.7248560  50.2860009  50.2344308  59.3932844  51.7223995
  11.6365202  35.5465798   5.3591150  12.0629489  34.6833116   5.1416649
  10.7480072  35.3648511   4.9187718  14.6828228  30.6346017   7.5496239
  14.5735019  29.9601721   6.8897489  15.3340559  31.2404189   7.2383984
  49.1250054  57.5519909  54.9633805  49.7634184  57.3724828  55.7040782
  49.4182018  58.3847286  54.6113693  42.1678161  62.4719621  65.8445290
  42.2653670  61.9999313  66.7412260  43.1459373  62.5816788  65.6739940
  44.0685350  53.3836053  49.9922298  43.5374230  53.2020593  50.7996579
  44.9870071  53.2485422  50.3676014   8.4715727  36.2515283  17.8450856
   9.3237150  36.1283224  17.3691326   7.9700155  36.7553484  17.2122211
  42.7209155  52.1494134  70.1256200  41.7822360  51.8345114  70.0991506
  42.7702320  52.4163792  71.0336167  47.9644590  64.8514881  59.6919626
  47.5708286  65.6387338  60.2166156  48.4104573  64.4614761  60.5332362
  27.9558669  68.6388216  73.7624211  26.9852716  68.4448722  73.9348077
  28.2484735  68.4081104  74.6652208  27.5926250  28.0822644  10.0176281
  27.8743526  29.0291520   9.7121775  28.3782408  27.7162545  10.4284223
  48.6348913  63.0352557  57.8154254  49.3813191  62.9529061  58.5117134
  47.9194526  63.3466631  58.4176502  46.3750880  60.9662780  66.4645881
  47.2232901  60.8218924  65.9683652  46.3406756  60.2263386  67.0692970
  63.3089844  72.4178368  56.1973160  62.6582077  72.3524409  55.4251641
  63.2599508  73.3109699  56.3829302   0.8225712  13.8066996  55.8351362
   0.6503724  14.7661705  56.2122652   1.0241332  14.0859147  54.9236347
  46.0429553  74.4167459  64.0355341  46.1840585  75.1671470  64.6244178
  46.9655160  74.1820795  63.7619775  38.8399148  40.2025158   2.3309850
  39.0517658  40.0504360   3.2820323  39.6189409  40.7405292   2.1150795
  27.1255291  31.2554588  13.0373668  26.8924243  30.3304966  13.1866050
  28.1414941  31.0620727  12.8804289  52.3334295  51.8497636  61.7483656
  52.7122939  52.4893843  61.0917743  51.3570310  51.9831785  61.5198942
  30.1367411  41.3807057  -2.5791237  30.0835556  42.3039039  -2.5967147
  30.7784270  41.2299207  -3.2937075  52.0379891  77.2777045  60.5234869
  52.9543999  76.9925295  60.5335467  52.0087821  77.8831083  61.2644679
  38.0006961  56.3143170  70.5365736  37.7708767  56.9159456  69.8184786
  38.5880012  56.8737213  71.0697696  40.4299532  58.5919667  50.0573186
  40.1369019  57.7214385  50.2421657  41.1619004  58.7353228  50.7046051
  46.9977650  58.4025627  52.1358906  46.3168020  59.0349431  51.8293004
  47.8496086  58.7496998  51.8757553  55.1434990  81.5791376  48.0475960
  55.9334757  81.3274434  48.6399914  54.8463784  80.6676344  47.8684461
  36.9023699  45.1848231  -1.4906297  36.4633749  45.7479244  -2.1420748
  36.7441527  45.5662572  -0.6268657  51.6688793  82.2552454  39.4811201
  51.2679856  83.0205394  40.0340276  52.4979397  82.1846980  39.8907254
  27.0098748  36.9171002  -1.1910531  26.9120756  36.2653843  -0.4920934
  26.3788801  37.6405363  -0.9031237  53.2889655  81.1431789  45.0951353
  52.9377028  80.8217057  44.2281352  54.2069378  80.8277187  45.0229398
  18.6415159  43.6316126  11.3513888  19.0696429  44.0420865  12.1386308
  19.3979683  43.2452554  10.8765136  10.4059962   9.2498501  37.4960028
   9.5029074   9.5899557  37.3351713  10.2754866   8.8041301  38.3392493
  72.4156493  14.5506188  55.4361672  73.2212749  14.4341570  54.8437091
  72.7120905  13.9760311  56.1495092  28.1426043  52.2209492  -3.5324289
  27.9768244  51.7731619  -4.3827750  27.2410684  52.0917458  -3.0714064
  33.2716160  50.0509801  -3.5436061  32.7143857  50.8834971  -3.3128420
  32.4788584  49.4297045  -3.6851564  74.7168485  15.8900791  60.1738088
  74.0775049  16.5441294  60.5839540  75.1316598  15.4961095  60.9571200
  10.8301146   9.5167780  45.4715512  11.1962849   9.8219504  46.3686639
  11.6294196   9.5127294  44.9608031  12.9816402  12.7549891  51.2108890
  13.6389463  12.0817620  50.8992619  12.8679368  13.2789626  50.4022532
  20.8625112   7.7763668  48.0280603  20.9157836   8.6911896  48.2743801
  21.5914088   7.4047958  48.6376737  55.8331589  80.0266521  50.6414182
  56.8190764  79.9783568  50.4602380  55.9112657  80.7155347  51.4033367
   8.2361175   9.2701599  45.8686758   7.9160630   9.6049725  45.0022256
   9.1960795   9.4234735  45.7863762  55.6681068  76.8272959  50.0702955
  56.4105007  77.0828002  49.4996977  55.0546576  77.4876839  49.9595536
  40.9199734  43.6841375  -5.5196233  40.6109298  43.3117247  -4.6436964
  40.4415413  43.1699352  -6.1385318  43.4537361  52.4449382   1.4847531
  43.0698570  51.6415774   1.1207733  42.7156894  53.0655325   1.3306866
  18.5641879   2.8347278  45.0178202  19.4105692   3.2302468  44.8540195
  18.0980136   2.9150898  44.2091373  16.6079069  12.0187980  42.4686234
  15.8492072  12.2849594  42.9428320  17.2845313  11.9739849  43.1790992
  29.2978984   6.4163080  46.4433034  29.6434168   5.5847164  45.9393916
  29.4875248   6.0176384  47.3605919  62.7715138  77.0284551  54.5581202
  63.5952008  76.4502471  54.6033698  62.1164507  76.3648764  54.2570155
   9.5360267  12.0006263  49.4536022  10.4597716  11.6529075  49.3294282
   9.0801524  11.2408672  48.9645885  66.9848754  72.5262657  43.4244235
  66.0116184  72.2540254  43.2900923  67.1876440  71.8048783  44.0646005
  28.6002378   1.1118579  55.8239682  29.4369463   1.0021052  56.2509364
  28.8102911   0.9640457  54.8615039  37.3849197  -0.4811155  58.8281382
  37.7808622  -0.1981450  59.6534822  36.4947558  -0.0724920  58.8130970
  43.7783328  40.7097542  -0.0403661  43.6734599  41.6702180  -0.3961099
  44.7700441  40.7605708   0.0436558  64.4340726  72.4185815  42.8345565
  64.0220607  71.5473645  42.7812014  64.4893600  72.7229363  41.9508440
  63.1481841  77.3045208  46.5459506  63.8429574  76.9072974  47.1481548
  63.5461634  78.2309472  46.5116080  31.5192320   4.7049118  56.2517989
  31.7354788   4.9680002  57.1736867  31.9686936   3.8263007  56.2215746
  40.3846839  42.7046987  -2.8850427  39.3796787  42.5835813  -2.7347379
  40.7456138  41.9609800  -2.4249075  30.1760720   1.4360305  50.0848500
  29.6690862   1.7985029  50.8456199  29.5824420   1.8134802  49.3677173
  22.3065165  15.6421537  58.1941718  22.5653604  16.1305114  58.9820333
  21.6330558  14.9963665  58.5201683  62.0420259  78.7047510  43.8119063
  62.8226993  78.1697800  43.9572943  61.4895523  78.1442812  43.2356743
  46.0927977  44.9631229  -2.5692744  45.6661261  44.1224401  -2.7663204
  46.7529449  45.0714590  -3.2164508  19.4055607   1.5606732  52.0948815
  20.0303385   1.0279866  51.5870466  18.8239774   1.9201486  51.3555344
  25.5544372   2.4856676  48.2302760  24.7304878   2.9082563  48.3245976
  25.4241658   1.6517167  48.7768158  28.0637946   5.7868583  42.9829779
  28.8849552   6.3726892  42.8739529  28.4723077   4.9036011  42.8771790
  34.2944803  36.0636309   0.4579821  35.0892095  35.6934297  -0.0141017
  34.5521829  35.8432946   1.3724487  25.9419258   0.7448735  55.5919521
  26.9009049   0.8445257  55.6689319  25.7164369   0.6360764  56.5452183
  48.6338703  42.9886529  -1.6103679  49.1146751  43.8240847  -1.5540437
  47.8891015  43.2568484  -1.0061738  13.3097210  11.4809657  39.8488068
  14.3042116  11.4761545  39.6777700  13.0807458  10.6493340  39.4030551
  19.7056397   7.5318832  42.0184413  20.3646972   7.7512162  42.7195691
  19.0075699   7.1531464  42.5371762  20.7484075  -2.5792352  47.6404483
  20.1523121  -2.4957080  48.4078488  21.2040279  -1.7384380  47.5670570
  18.0208296   1.8783290  49.7794548  17.4788888   2.4558175  49.1717443
  18.6303560   1.4738245  49.1228734  31.8610666  12.2209943  50.0113502
  32.1232888  11.2659950  50.1616340  31.4547739  12.1476185  49.1210662
  13.7528871   5.8858990  54.7172023  14.3278313   5.1586657  54.5038507
  13.0733933   5.8831018  54.0129289  10.2728160  19.7043423  45.9020772
   9.8346250  18.8664120  45.8987458  10.4868091  19.8674266  44.9433051
  11.4463137  14.9303757  46.1885313  11.9095378  14.9160828  45.2951993
  10.7683240  14.2386879  45.9686236  42.1471368   3.6665465  44.5307706
  42.3562387   4.5392844  44.1869143  42.9901396   3.3143107  44.8963392
  46.6387695  42.1003135  -3.3700892  47.3602013  42.7519708  -3.3861594
  47.1015008  41.2618491  -3.6119141  11.8968364   9.1932940  40.9326604
  11.8412952   9.7167753  41.7786953  12.2243602   8.3280628  41.3431151
  25.4369364   7.5067067  56.3813358  25.2242063   7.0285280  55.4750979
  25.3464087   6.7229226  56.9244325  51.1714242  40.5773456   2.5813851
  51.7803285  39.9672087   3.0958399  50.5647129  40.8440328   3.2975746
  28.4290685   2.4177393  48.3226224  27.4541283   2.5252060  48.2420281
  28.6843426   3.2367606  47.8315599  52.6861418  84.4223171  47.0880678
  53.6578903  84.6259725  47.0827609  52.6284428  83.8639322  47.9030560
  22.8330444   7.1043616  49.7621317  23.6962556   7.4156355  49.5152358
  22.9019007   6.8915888  50.6863069  22.2882294  13.3922598  50.9952199
  21.5923771  13.2723682  50.3253273  22.1290415  14.2501253  51.3417242
  11.6377081  10.8373294  33.2445412  11.8733825  11.1651943  34.1444172
  10.6361230  10.7636216  33.3691217  35.1218165  42.7940983  -4.3413463
  34.6882698  41.9596759  -4.5493541  34.8746718  43.4018705  -5.0862430
   2.7215861  18.3749863  58.3236598   3.2406366  18.5726588  57.4877564
   1.9588723  18.9552656  58.0918234  44.6222733  38.6464742   6.4130378
  43.9347346  38.5964915   7.0787730  45.4157588  38.3416617   6.8611471
  16.2640178  13.0032770  58.4003814  16.7977102  13.7970384  58.2475034
  16.5388887  12.4018751  57.6728641  12.1429381   4.5837402  49.9694872
  12.5410416   5.2744338  49.4271960  11.2383468   4.8728909  50.0813169
  32.9292852   7.1714073  52.4889539  32.6925849   7.6802668  53.2978228
  32.9138404   6.2745638  52.8000080  24.6560485   4.9684668  57.5327567
  24.0229084   4.4351616  57.0115477  25.1826581   4.3448410  57.9888945
  39.3504841   1.6799729  58.3544560  38.7251826   2.1874240  58.9053546
  38.9948414   1.6783563  57.5274290  38.3065222   4.7399885  44.6854793
  39.0796983   5.3351211  44.9846458  38.6208808   4.5715372  43.7520015
  32.3992118  11.2173537  45.3944900  32.1097725  10.3246450  45.5406389
  33.2908822  11.1967628  45.8507818  29.5358777  12.7315665  43.7450353
  29.4253749  11.7758344  43.6502082  29.2100594  12.8824291  44.6581820
  52.4142058  42.3066987  -1.4760370  51.8280921  42.8675884  -2.0934760
  53.0730486  42.0850878  -2.1576368  29.3785081  15.9027354  42.1686644
  29.6323984  15.0314486  41.7164312  30.1952347  16.0779644  42.6669056
  22.4430246   9.9443756  46.5568791  22.4746718   8.9893130  46.5089928
  23.1506915  10.1446746  47.2092208  16.0112870  11.9419650  39.9570130
  16.1672791  12.1688979  40.8828356  16.5934935  11.1562504  39.8767336
  15.1802719  17.4696589  40.3073526  14.4112127  17.5454667  39.7293731
  15.0277236  18.2304589  40.9057268  22.3395912  22.9121860  48.2817043
  22.7648796  23.7692337  48.3693193  21.4622043  23.0798245  48.7008231
  16.8325666   8.4606328  49.4847328  17.6964556   8.7519085  49.8217262
  16.4332998   8.0570085  50.2980469  23.1208764  13.3912735  46.6569052
  22.5021384  14.1331442  46.3947862  22.8490209  13.2052362  47.5870096
  57.9708052  81.9008606  45.7943489  58.3441447  82.7692122  45.5239303
  58.7181907  81.6404748  46.4272851  32.6510759   5.8097690  43.2969469
  33.0911015   6.6318538  43.7084480  31.7611943   6.1469178  43.2288367
  29.8796122   5.0303956  48.6568635  30.4965050   5.4612725  49.3036077
  29.1073761   4.8646917  49.2117888  33.4329412  14.8840190  56.3258322
  34.0434507  14.3540546  56.8478875  33.3928372  15.7247477  56.8130882
  14.9739794   8.7777933  47.5022535  15.5971862   8.2516384  48.0730852
  14.1325682   8.3588951  47.8530131  27.4915048   9.4228058  51.0245747
  26.9975113  10.2376055  50.7975517  28.0018219   9.7699471  51.7356269
  25.2074502  15.8687794  53.2586781  25.3877368  16.7489574  52.8744311
  24.2126933  15.8593357  53.2698930   7.5165164  14.1347872  56.2190734
   6.8469474  13.6908453  55.6374118   7.0891409  14.9928653  56.4210665
   9.8928882  14.9994041  43.6825436   9.3873563  14.2059327  43.5141775
  10.7971200  14.7512016  43.4147777  11.0100458   7.4224210  57.1938161
  10.7341324   6.6089181  56.6778585  11.7489379   7.0850909  57.6862383
  38.9782112  51.4289870   4.4189469  39.1072098  50.5612127   4.0789186
  39.4909241  51.9633023   3.7796823  43.0680205  54.1567535   4.4842500
  42.4157236  54.5375492   3.8624877  43.1228929  53.2297768   4.1448857
  52.5370656  82.6336451  49.3857678  53.2450821  82.2242166  49.9501153
  51.7285029  82.4336525  49.9783288  55.8876447  39.1097627   2.6036794
  56.5671698  39.0477592   1.8968194  56.5195476  38.8392777   3.3047339
  23.0726570   5.7903352  52.4610338  22.9527751   6.2822806  53.3031490
  22.3003433   5.1901340  52.4829463  45.0524315  43.7988612   0.9536266
  45.7360986  44.4744466   1.0019378  45.5672354  43.0359372   0.5554164
   3.9102712  13.0611683  50.3995252   4.6607792  12.3802630  50.4365873
   4.4424246  13.8136126  50.0388146  32.5630443   4.9302944  53.8309024
  31.7942200   5.0771917  54.4711165  32.7127659   3.9976877  53.9613435
  16.5321734  21.9139717  44.8968514  15.5601239  21.6803183  44.8223823
  16.4401466  22.7687496  44.4314212  16.8894393   3.8290086  56.8525053
  16.1131712   3.2303493  56.7392799  17.6259769   3.1725424  56.7403801
  54.9032151  39.2295966  -0.6681174  54.9096188  38.5120722  -0.0031581
  53.9863040  39.5608785  -0.4873418  31.8195643  14.0629159  69.8052210
  31.6891571  14.0015373  70.7748143  32.2054422  14.9367768  69.7148372
  16.3302231   0.2830449  51.2137660  16.9646901   0.7678930  50.6358177
  16.4137044  -0.6400036  50.8349589  47.7209153  39.7487537  -4.0210920
  48.6623146  39.8866780  -3.9109899  47.7410294  38.8078577  -4.3831961
  56.2238423  29.4607017   4.4781256  55.8683302  29.3763465   5.4166286
  56.9494355  28.7997603   4.5266376   9.4306936  12.7855349  46.2613805
   9.1979506  12.6846797  45.3408899   8.5498063  13.0491706  46.6508731
   8.1427297  12.8631169  43.6832794   7.3161185  13.1097683  44.1474276
   7.7411450  12.6336213  42.7892596  20.2174012   0.8750241  47.8466246
  20.7279622   1.6874425  48.0103567  20.7981662   0.1660790  48.1722168
  24.4034957   2.7588120  53.8885859  23.5150331   2.3728176  53.8210226
  24.8423340   2.2391948  54.5330261  17.6550471  60.8545934  51.4770241
  17.2010059  61.7435217  51.2143790  17.4136585  60.3754767  50.6742899
  15.7774557  12.6361134  52.7512007  14.8089716  12.6259222  52.7843663
  15.9767952  11.8252761  53.2746425  63.3302578  74.2193471  44.7307718
  63.5092066  73.3713249  44.1878191  63.3591099  73.7965613  45.5978833
  24.0429452   2.6904049  44.2603874  24.5467909   1.9627643  43.7937908
  23.6678542   3.0522243  43.4277811  16.2643276  21.3517449  54.3227762
  15.7219228  20.9074120  55.0325302  15.9150209  22.2852804  54.4531883
  16.0005946  16.2468122  52.6006676  15.4074050  16.7568386  53.1854823
  16.2750408  16.9248621  51.9563549  21.9409072  22.6296960  66.1817689
  21.2443407  22.3821173  65.5093008  22.2944862  21.7163884  66.3123376
  25.8681308  11.5977814  50.9790395  25.1331323  11.3404318  51.5382422
  26.1579799  12.4287225  51.4098282  33.8493849  20.4617396  54.2075136
  33.3052089  21.1200987  53.6752234  33.3199193  20.3942679  55.0575610
  21.1946579  24.4823669  50.5346600  20.3071982  24.1830786  50.1406327
  21.1327368  23.9176212  51.3747064  39.2696443  17.3453245  52.6963276
  38.9564507  17.3675078  53.6450814  40.2195025  17.4061906  52.8792859
  23.8003179  15.7689223  43.7347812  24.2921382  16.5930795  43.6901508
  24.3905598  15.0781225  43.3302276  44.5343142   6.5766726  55.6038403
  44.8958651   5.7082084  55.9405721  44.1366582   6.8639315  56.5092480
  25.1599426  18.0731402  44.0097341  25.6599796  17.9231531  43.1700666
  25.6188142  18.8094502  44.3663605  41.8373287  13.6014559  63.6776932
  41.1113727  13.1781320  64.1893337  42.3951419  13.9508159  64.3579731
  18.6674812  13.1749040  52.6623213  17.9797000  12.8230410  52.0967903
  18.2177080  13.4493815  53.4463300  23.6123552  11.4016131  52.1175656
  23.0779662  12.0381084  51.5886093  23.3926833  11.7904012  53.0072025
  22.7821111  28.1344681  67.0058591  22.7157531  27.7138307  66.0763489
  22.4908982  29.0466374  66.7788732  26.0962636  17.3429406  62.6846952
  25.5176574  18.1586202  62.5379605  26.9085472  17.7769734  62.2416918
  26.1197189  18.0979485  59.5471602  26.7171689  18.8696784  59.3220771
  25.9159054  17.8158654  58.6154032  34.7083931  17.4567996  63.6975331
  34.5613994  18.3772373  64.0526412  34.2927681  16.9450297  64.3984128
  25.4943072   4.1351716  46.1014457  25.7872825   3.3664706  46.6045369
  25.0958062   3.6340962  45.3147886  39.2638287   7.4841561  61.8579932
  38.5513841   7.3987879  62.4845633  39.8781519   8.0491589  62.3385520
  30.3658765  15.3928328  66.2534305  31.3683086  15.4156174  66.3695355
  30.3172132  15.0392373  65.3303977  29.8663558   7.6167616  62.7429227
  30.4516965   6.8588433  62.7254501  29.9337257   7.7615571  63.7356723
  32.4230981  20.2225153  56.7480032  32.2823485  19.6027877  57.5076894
  31.5306517  20.1613162  56.3635763  20.7012688  11.8719002  53.9537452
  20.2637619  12.2520940  54.7850071  20.2064186  12.4052582  53.2862947
  34.3626240  11.1005777  67.3082579  33.6792032  11.7329872  66.9852521
  34.6943725  10.7319113  66.4437021  29.0514325   2.7177157  52.3274981
  29.1486153   3.7122577  52.3300202  28.0755877   2.6775613  52.4338628
  37.4030613   7.0809969  63.7422815  36.9087192   6.4124442  64.2069825
  38.1745027   7.0975359  64.2874765  28.6638606  16.5168598  59.9757230
  29.3379001  16.4687223  60.6357986  28.0782404  17.2078853  60.3213875
  22.5693731  15.8210054  53.5250044  21.7719166  15.7756203  52.9773869
  22.1947849  15.4055959  54.3699576  21.3438550  33.4742789  58.9337366
  20.8237358  33.2089293  58.1062214  21.0459895  32.7549799  59.5503863
  33.5309503  20.2813337  62.3604803  33.9952232  20.0753966  63.1871550
  34.1695251  20.8563384  61.9362719  39.7091167  14.8280637  69.8652537
  39.8611633  14.4196028  68.9658143  39.7675427  15.7835165  69.5591838
  58.1919590  43.4327168   6.6542971  57.7247186  43.3185773   5.8284738
  57.8130549  44.2516707   6.9776807  21.7763951  20.9078480  46.3704969
  20.9633511  21.3672055  46.0030447  22.0531086  21.5448813  47.0467399
  41.3089583  10.9363537  46.3221015  40.5197682  10.4665837  46.0035552
  41.8037429  10.2014999  46.7795802  27.8870873   4.2221136  61.0517465
  27.4934870   3.6124487  60.4688193  28.3894498   3.6717831  61.6389130
  68.1208181  73.9643210  55.4871757  68.7943286  73.4593448  55.0672047
  67.2730879  73.5702748  55.2678237  31.8879744  15.6465705  47.5276970
  31.6854522  15.4680146  48.4702715  32.5255585  14.9066792  47.3499035
  21.9734176  15.0920451  41.4952995  22.4689119  15.6814500  42.1047517
  22.2912621  14.1872860  41.7788691   5.0389773  16.4798730  41.8419594
   5.2776330  17.1040464  42.6011822   5.9307910  16.2095502  41.5754734
  20.5018981  12.3909621  46.0401064  19.9731444  12.0442439  46.7768329
  21.3613199  11.9681338  46.2948018  15.8626688   8.8657172  59.1663555
  15.1769757   8.1565167  59.1798080  16.4564907   8.5449917  58.4472801
  38.0558261  17.2336133  55.4187936  37.9569522  16.2470302  55.5582514
  38.3723783  17.5043037  56.3013182  42.8652456  12.0701113  44.3260562
  42.1509904  12.0476498  44.9773303  43.4835563  11.3967644  44.7163186
  38.6750381  12.7754227  63.0857665  38.7885944  13.2294134  62.2236913
  38.8468624  13.4841850  63.7076072  31.0533317  16.4643252  61.8229385
  31.5758285  15.8658831  62.4596749  31.8849590  17.0462711  61.6232781
  39.7834386  17.5032086  65.9062819  40.6459978  17.9344914  65.6650497
  39.1694944  18.2020970  65.5716393  19.2551917  14.7971447  61.1914869
  19.2473056  14.9212697  62.1246678  18.2447397  14.6651211  61.0334888
  25.6522527   9.6635475  58.1990301  25.2750145   8.8272206  57.9118426
  25.7374797  10.1837000  57.3795797  45.9715525   7.3021410  53.1571770
  45.4811497   7.4805719  54.0372286  46.8555172   7.1408589  53.5037714
  32.7660093  12.9828557  53.8059280  33.1933606  13.7346479  53.3863399
  31.8213641  13.2861097  53.7412712  32.8709581   8.1059190  64.2108226
  32.3166420   8.9393046  64.1280043  33.7212449   8.5419008  63.8635887
  29.9207422  13.7650628  59.2879918  30.4051540  14.3659736  58.7153547
  29.1921567  14.3392752  59.6146644  12.5551537  10.2639601  56.1574494
  12.4199131  11.0906855  56.6384716  11.9151463   9.6552966  56.5985907
  24.3480263  10.9259627  48.2279546  24.6035115  11.1785284  49.1600136
  25.1871226  10.8877303  47.8105245  35.7955351  24.8870863  58.2108908
  35.7285577  24.0230093  57.7269652  36.3173395  25.3597527  57.5080913
  27.1520861  12.5884972  57.5617108  26.1878832  12.6880083  57.4576269
  27.2856492  13.1089634  58.4078270  16.7123438   8.9596488  42.2456116
  16.8296529   9.0306398  43.2572843  17.2802760   9.6523965  41.9341040
  27.4168484  17.4349464  56.8249691  26.9607563  16.8300608  56.2153464
  28.3330368  17.4748394  56.4315376  14.9449257  20.8353306  56.7314854
  14.0369421  20.4366644  56.6811012  14.8036851  21.5894858  57.2859136
  14.8179529  10.9682228  49.8063233  14.8809051  10.2500586  49.2141778
  15.4579666  10.8029134  50.5050596  25.2059502   9.5692823  38.6451090
  25.6583584   9.7951030  37.7753448  25.1875371  10.5192376  39.0262749
  26.3560303   3.2222479  51.9636532  26.0889353   2.4830481  51.3809723
  25.5446886   3.2721460  52.5153188  26.2036679  20.9310929  50.7924778
  25.2495947  20.8834994  50.5496175  26.6323835  20.7533801  49.9005160
  36.0221608   8.3578902  54.6210455  36.9856076   8.2987164  54.6264585
  35.7597102   7.4492643  54.7097809  23.8058862  21.0503884  49.9015016
  23.3420723  21.5596409  49.2257291  23.0753982  20.8781537  50.4781594
  30.1384246  26.2271181  76.0171009  29.2354018  26.0431277  76.3775964
  29.9373205  27.0421511  75.4891261  16.7827139  17.3785139  48.3924440
  16.8782544  17.9332908  49.2032630  16.9038001  18.0908027  47.7122528
  13.1656820  22.7424385  46.5733259  13.6280624  22.3097862  47.2423780
  12.2296740  22.4118008  46.7685277  25.1712736  25.9884895  57.1731872
  25.1158192  26.7949935  57.7454898  24.4248359  25.5346738  57.6159012
  25.9491962  12.6420832  54.3255699  26.2866760  11.7772495  54.5929088
  24.9914956  12.5402466  54.3145429  25.1476301  24.5530406  54.2600148
  25.3586052  24.9266701  55.1448459  24.4477511  25.2636354  53.9537662
  29.9792618  32.4303643  68.3138170  29.1763992  31.8692799  68.0890033
  30.6666407  31.7840905  68.1805684  18.8325347  10.4072683  40.1700812
  19.1775933   9.8444966  39.4650964  18.7148846  11.2378378  39.6020669
  23.3876646  11.8129986  44.4464638  23.3727098  12.4653342  45.1728985
  23.3506050  11.0041412  44.9359104  21.5653415   2.1980358  54.0471821
  20.9680905   1.5619440  54.4340680  21.5586574   1.8853064  53.1113568
  12.8663937  18.7889553  44.5476060  13.6900786  18.2774457  44.4387762
  12.3041763  18.2495774  43.8936743  26.1136765  13.4284983  45.6982713
  26.0519534  12.6661115  46.2892848  25.2391656  13.5624220  45.3666934
  14.3282822   8.6347720  54.6088362  14.1367869   7.6673264  54.5976473
  13.6440064   8.9797155  55.0924914  35.1556626   9.0283067  63.2607641
  35.8531064   9.7331948  63.0245100  35.7248633   8.2686606  63.1810658
  29.8939386   8.8217280  50.0397695  28.9658183   8.9031278  50.3710789
  29.7842533   8.9856042  49.0860498  30.1094704  13.2892466  51.9636549
  29.7739133  14.0343613  51.4432033  30.8026931  12.9659101  51.3585568
  29.4160975  10.9859896  59.5806707  29.5622108  11.9985553  59.6376045
  28.7246051  11.0195410  58.8548923  29.2475030  12.0382639  55.9723895
  28.4163855  12.1225655  56.4142756  29.6429709  12.9325321  56.1063001
  23.1445855  12.4215878  54.4738527  23.0427530  13.3025556  54.9554529
  22.2069142  12.1634997  54.3368226  19.8161779  18.7111133  49.6897422
  19.6111937  18.5808635  50.6730096  20.3020596  17.9179400  49.5329098
  30.0799659  17.0028704  45.5892369  30.4843183  16.6645189  44.7544038
  30.5183055  16.4724780  46.2498946  34.7826133  11.2414099  46.9139388
  34.9578667  11.2843735  47.8725801  35.4066178  10.5869596  46.6232614
  12.9347685  28.9096891  68.3364128  12.3317753  28.7176113  67.6193763
  12.4029428  29.6668981  68.7542754  27.7012185  26.5559234  56.3336998
  28.0929256  26.4096706  57.2380902  26.7639137  26.3769856  56.5738838
  27.7392727   4.1013849  56.9088687  28.3612957   3.3580655  56.7333035
  27.2827300   3.7626705  57.7226932  25.0364355  28.1064444  58.7218304
  25.6564793  28.8375993  58.6695178  24.2371754  28.5172749  58.3335864
  31.8166502  18.4911040  58.9802540  32.0741691  18.5670281  59.8867019
  32.6573320  18.1555632  58.5520951  40.6390158  23.0308323  63.0809515
  40.7722205  23.8540271  62.6666648  39.7998382  22.7358771  62.7156230
  24.3075961   9.8849114  60.5648827  24.1725238  10.8379303  60.6811627
  24.8439820   9.8442907  59.7834020  39.3093999  20.7201817  61.7372849
  38.7143602  20.0748205  61.2788809  38.8124876  21.5395981  61.6333960
  38.2535825  16.4573867  50.3483637  38.4972928  16.9622026  51.1851532
  37.2922071  16.3443439  50.4340562  49.4494132  33.4107397  -5.6717428
  48.5492264  33.5867783  -5.9866762  49.5795572  32.5331572  -6.1045009
  29.2453182   9.4148198  46.9518394  30.2060165   9.3086101  46.6541661
  29.0940921   8.4476783  47.0293633  32.6546682  11.5109678  56.5693977
  33.5692572  11.1484698  56.4641259  32.6068323  12.0538053  55.7116077
  25.9748119  13.9900230  42.5386003  26.0554684  13.0395168  42.2431234
  26.1065910  13.8069882  43.5279051  37.4193864   3.0287567  59.4918019
  36.6259308   3.3986638  59.1924600  37.9175523   3.8173798  59.8082754
  39.0137407  10.2140577  56.4698074  39.6192418   9.7083147  57.0648609
  39.0094651   9.6454376  55.6785417  37.1122906  22.0317802  54.5835274
  36.3157406  22.0406997  55.1350970  37.7479642  21.6271679  55.1767738
  35.3406191  15.8991477  50.7866095  34.7531044  15.2226271  50.4171192
  35.0951477  15.8644750  51.7687883  58.1185296  48.0575431   6.7941175
  58.9279083  47.9542400   6.2239524  58.3851606  48.8395466   7.2756581
  13.5812395  29.4774415  63.7737444  13.7446731  29.5274594  64.7127978
  12.6560118  29.8238167  63.7105662  41.5365781  54.4029023   1.8707764
  41.3915125  55.3333128   2.0653039  40.6279038  54.0298336   2.0871446
  30.2525283   4.3032379  45.3944278  30.1149792   3.7887501  44.5711107
  31.2306606   4.2822555  45.4054205  25.6412362   0.0366266  58.2752618
  24.8440608  -0.3413286  58.7224824  26.3223085  -0.2749209  58.9135097
  48.0004232  37.5348834  -5.6825229  48.4431332  37.4275117  -6.5629918
  48.6240532  36.9671964  -5.1555805  26.7673458  17.2125500  41.8059989
  27.5283880  16.7003951  42.1696801  26.2277812  16.5151328  41.3892353
  19.3880286  17.1576540  54.6387353  20.0849008  17.1190579  55.3577869
  18.6487365  17.5617645  55.1645039  41.2703886  11.0863502  53.6933129
  40.6327573  11.6407604  54.2901587  40.8896008  11.3378974  52.8117827
  28.8848240   6.5176630  36.5736230  27.9565224   6.9109895  36.5168312
  28.6451866   5.7123346  37.0947761  24.7675091  21.5982179  58.5543540
  24.9266768  21.8185882  57.6761229  25.6545247  21.6589006  58.9886710
  24.7658112  14.9553528  50.0881455  24.2270810  14.1757409  50.0698972
  25.5345029  14.6258060  50.5643845  22.1472471  19.4673622  55.8995778
  21.6465415  18.6305616  55.9906894  22.6380991  19.4208078  56.7671461
  36.4249948   9.2845546  45.4283049  37.0357001  10.0935850  45.3814990
  37.1091287   8.6753668  45.8553888  33.9345724  14.2756236  46.2252929
  34.6813079  13.6096160  46.1870628  33.4042470  14.0306858  45.4637634
  36.0396047  17.0864030  59.1625841  36.9272981  16.7323023  58.8455081
  36.2072579  17.0653002  60.1425146  38.8266270  17.6740750  47.5902898
  38.4394976  17.5635047  48.4911848  39.7043008  18.0923900  47.7872068
  24.2076259  12.6638795  61.3244534  24.4607613  12.5404944  62.2395422
  24.3376024  13.6379608  61.1998424  27.1780860  27.5282779  66.3785364
  26.3702525  27.5326456  65.8732397  27.7128327  28.1887583  65.8534146
  21.2941936  10.5437885  41.8938314  20.3134436  10.3874500  41.7283805
  21.4464315  10.0082076  42.6902841  26.3464792  40.0899059  55.1005889
  26.7968041  40.8668173  55.5285854  25.8364158  39.7466684  55.9058767
  31.9579199   9.3340297  61.1073275  32.4557838  10.1309860  60.7865936
  32.0898289   9.5365400  62.0888593  45.2891106  39.9724706  49.6358400
  44.9623820  39.0850359  49.9335951  46.2839580  39.8548900  49.7338357
  39.0223994  40.7288470  65.7834946  39.6799651  40.6801671  66.4849539
  38.6621123  41.6357800  65.9247988  38.4226939  41.3067061  50.0525284
  38.7084300  41.9742911  50.7065356  38.1491504  40.5689010  50.6655794
  35.2397571  31.5789070  67.7269504  35.7103243  32.4196216  67.7697685
  35.9034141  30.9665022  67.3644900  44.3513144  26.3288588  63.3260372
  43.9734528  25.7110375  62.6610779  43.7055107  27.0679851  63.1533502
  32.9664696  30.9447416  60.0537752  32.5348960  30.0755251  59.8366475
  33.6595130  30.6445752  60.6682624  40.4565907  50.9168231  51.6423927
  39.7683679  50.6913332  52.2976797  40.5138859  49.9807017  51.2503466
  42.7197142  50.8714618  67.1012681  43.4120517  51.4650149  67.2583711
  42.7782317  50.2825499  67.9409481  32.9949857  39.5185754  55.6538988
  32.2176876  39.5925747  55.0884929  32.8589009  40.2362992  56.2441911
  35.6365185  34.4134042  50.0771351  34.9642055  34.7482855  49.4776984
  36.1725933  35.2325549  50.2472203  36.3676666  35.5015374  58.2955433
  36.0638446  34.5726155  58.0621274  36.4556914  35.8616656  57.3658903
  28.3034110  38.6616350  53.3107853  27.9968994  39.5633098  53.5350231
  28.1436104  38.2015954  54.1740865  32.0601020  42.9602233  49.5168585
  31.3403052  42.8217021  50.1192264  31.8896323  42.3491993  48.8143625
  24.8042134  41.3414675  50.2943252  24.6776829  40.3917494  50.3807921
  25.2845583  41.5276775  51.0964467  38.1036309  38.4078914  44.5793462
  38.6460441  38.3844825  43.7845006  37.7997608  39.3503710  44.5703081
  38.8972202  38.1464545  53.8699741  39.5773160  38.6751151  54.4159518
  39.0839488  37.2442390  54.1778975  38.6215710  43.0958007  56.2824394
  39.4843406  42.8302809  55.8278335  39.0403878  43.8425133  56.7978421
  20.4107818  27.7665377  54.9446031  19.6593731  28.2940743  55.1575425
  21.1311720  28.3824091  55.1412054  35.2371566  21.6866124  56.6606276
  35.4195787  20.8675839  57.1237858  34.3260442  21.5119317  56.3418649
  34.0931205  28.9182765  56.5042288  33.9575543  28.4641579  57.3784888
  33.9514550  28.0981620  55.9506074  41.0338065  43.9803307  51.3307982
  40.7181815  43.1749032  51.8594679  40.0928570  44.3679149  51.2447425
  36.2514866  45.8957099  64.1297491  35.8488975  44.9854974  64.1982433
  35.6395860  46.3370636  63.5031269  36.2395719  32.8942692  57.4693887
  36.7793132  32.1403179  57.2173034  35.3676320  32.8129597  57.0665445
  41.1826796  40.4006122  67.9032188  40.5212492  40.2309612  68.6306576
  41.8907255  39.8462087  68.3536944  26.8538602  30.2396859  59.4151226
  27.6609874  30.2478740  58.8024532  27.4152124  30.0512700  60.2543474
  36.8612366  37.0360950  55.9234258  37.1981991  36.4538920  55.2430631
  36.4439099  37.7701907  55.3353155  29.2756512  26.9746832  58.9248324
  28.7919574  26.5480504  59.6324109  29.9631363  27.4871839  59.4206492
  25.2445794  50.6257560  57.5320862  24.7963449  50.3240073  56.6723634
  25.1362059  51.5824904  57.3666898  29.3839739  53.1858613  51.1000238
  28.8343972  53.3691443  50.3294393  30.2810271  53.3062470  50.7598772
  25.0784403  51.1753823  49.0293462  24.4341909  50.5815179  49.4820890
  25.4778770  50.5516849  48.3928145  42.9364244  49.0388382  68.9318473
  43.2779558  48.4862227  69.6304401  42.0469437  49.2305953  69.3797279
  31.5499677  40.1381491  48.2794817  32.1600821  39.7102205  48.8721015
  32.1526638  40.1629642  47.4663205  37.4107089  38.1824845  58.4247850
  37.0279150  37.3218983  58.6839879  37.3580691  38.0404207  57.4573059
  32.7858016  27.0697981  54.8085793  31.9761463  27.4319370  55.2249851
  32.8770560  27.5326515  53.9818852  54.9212000  54.3505041  62.5253547
  54.6576000  54.1019416  61.6392709  55.7731770  54.7534362  62.3290028
  49.1085801  59.3125028  47.0594270  48.4061889  59.2682768  47.7214862
  48.6618969  59.6614693  46.2496540  36.3504032  39.7645236  60.5778087
  36.5002865  40.7083412  60.4531092  36.7429169  39.3989653  59.7637330
  44.6798100  50.0502879  64.6379618  44.6178042  49.1659985  64.2289354
  44.1039782  50.5775362  64.0506747  42.6271411  53.2276318  56.3819127
  43.6155415  53.1013672  56.6278725  42.5993495  54.2123107  56.4048009
  43.7043249  49.7905778  61.0088180  43.0921676  49.5254316  61.7103257
  43.2190636  50.5147310  60.5645923  40.8771741  53.7863124  54.1670633
  41.1249887  53.8710352  55.1128205  40.0137838  53.3695560  54.2229444
  54.3491570  55.0511497  52.1262986  53.3926621  55.2813027  52.1622104
  54.5729480  55.0490128  53.0797892  53.3775836  49.4733600  57.6845302
  54.3017243  49.8345272  57.5706492  52.8353987  50.2486394  57.3615987
  52.5239461  55.3572391  55.5519292  52.1091779  54.8087084  54.8673766
  51.8136502  55.7367861  56.0736857  38.4418724  46.5575781  54.9081186
  37.7915872  46.2812973  55.6258213  37.9359385  47.1595080  54.3697798
  35.4076168  54.0982278  61.2661569  34.5049167  53.7059834  61.5441614
  35.9988657  53.3954434  61.6680701  48.1183571  54.6987921  48.4279582
  48.6543820  55.3068340  48.9558746  47.2274063  55.0097726  48.7970735
  50.9257603  53.9700727  47.9634798  50.6811377  54.9494064  47.8219482
  50.0243897  53.6139557  47.8544778  54.3529810  69.4808763  49.0696204
  54.2081521  68.5274745  49.1395912  53.4505035  69.8317043  49.3416014
  50.7974067  56.8990416  47.2290086  50.2589947  57.7369254  47.1232009
  51.6242863  57.2957234  47.5756192  39.7412481  41.7567555  52.4621862
  39.3700911  41.1257340  53.1489231  40.4296678  41.1709549  52.0521000
  55.4091323  57.8745864  42.6474992  54.9420151  58.7376713  42.3409963
  56.0898325  57.8379824  41.8961268  41.0265091  40.8212088  48.6824509
  41.2439768  40.2502245  49.4608493  40.0405266  40.6780642  48.6802130
  62.3041531  63.3799400  46.6641998  63.2413668  63.1493134  46.7943772
  61.9163852  62.5018471  46.5254966  55.7460728  50.4692174  57.5307078
  56.7603154  50.3254586  57.5104301  55.7584220  51.1479654  56.8534835
  60.9782761  52.0728327  39.0545568  60.5696415  52.4275386  39.8603258
  60.4917211  52.5209486  38.4012863  33.7343065  45.4143825  56.1659560
  33.8382846  44.4741978  56.4054281  33.0863465  45.7220499  56.8343184
  61.4436520  44.3979166  49.1911720  62.2299999  43.9753307  48.8356217
  61.4280918  45.2771650  48.8284799  55.4031459  53.2800678  49.9697972
  55.2742119  53.9003229  50.7218685  56.2577595  52.8994629  50.2366439
  56.6612257  63.5795876  55.4526456  56.3494717  64.3792271  55.9555244
  56.4754852  63.9163585  54.5359942  34.8389464  54.6171407  58.3666931
  35.7494219  54.3099096  58.6947248  34.6043187  55.0416808  59.1873291
  55.9129938  53.4049210  59.9438038  56.5500643  52.6558297  59.8647972
  56.3425533  54.0902734  59.4351824  46.7976077  57.0098474  71.6142495
  47.0612946  57.0931047  70.6781354  46.6470446  56.0408426  71.6048574
  39.8617611  59.1186570  46.3227900  39.5849661  58.1880809  46.4512217
  40.3872719  58.9621217  45.4966223  29.5088894  38.4551940  48.3813106
  30.2844225  39.0654430  48.3179528  29.0692993  38.8098986  49.1635772
  31.8619859  63.3304568  53.1636486  31.7046696  62.9550619  54.0688392
  30.9632478  63.1513880  52.7680711  40.6374024  47.9754646  55.7623670
  41.1256288  47.3517105  55.2694296  39.6945732  47.6765042  55.6028759
  41.7602996  45.0622552  57.8744546  41.5056126  44.4450638  58.5868523
  42.1058772  44.4932960  57.1991513  42.9208190  55.8592717  56.4366391
  42.4861877  56.3211294  57.1647572  43.7878622  56.3092524  56.4618880
  41.0058596  57.0960912  57.7026306  40.6368278  57.3692510  58.5907356
  41.0215111  57.9346966  57.2376507  35.9968776  44.6125234  52.0187816
  35.2741690  44.9131639  52.6784458  35.4240263  44.0741431  51.4667526
  60.5274253  62.7752169  50.7887561  60.5318871  61.8283259  50.5314486
  60.2064165  62.6374443  51.7287851  63.2898472  57.6926935  52.3934718
  62.6447951  57.3021914  51.7371681  63.0210740  57.0984797  53.1532348
  42.7150535  59.0768559  51.8409622  42.8844335  58.6131852  52.6603166
  42.4760906  59.9421180  52.1137757  60.5906700  60.0582116  50.0463187
  59.9628567  59.4911802  50.6418918  60.0128318  60.0409956  49.2549735
  53.8025981  69.8097407  54.5134705  54.3589919  68.9849614  54.5869109
  54.5176076  70.4086044  54.1543530  58.1116290  78.5408239  45.6078886
  58.2003704  78.4821742  44.6272384  59.0942873  78.6328757  45.8318896
  54.3277967  69.6706236  38.2013275  54.2866392  69.7746937  37.2311226
  55.1833725  70.1361795  38.3893158  44.5990381  67.4830832  65.3921267
  44.4233413  67.2379907  66.3183102  45.2575743  68.2373163  65.5550942
  41.9564212  64.5822110  49.0425647  41.2077064  64.8764352  48.5786232
  42.4042095  65.4118522  49.2177480  56.6455380  62.8276489  52.6018708
  56.1364693  62.0640878  52.9503004  56.1468107  63.0737153  51.8130411
  57.6582193  50.3202226  46.6000085  57.7160325  51.2457565  46.9895656
  57.8043665  50.5157915  45.6661520  57.0219128  78.9188669  41.3029738
  56.1140809  79.3385247  41.3047044  56.7723854  78.1357549  40.7546287
  68.9168450  59.2662037  55.8490265  68.4195700  59.8993452  55.2850511
  68.1277454  58.7258787  56.1377758  58.4547971  72.7339371  56.8560556
  57.8071356  73.0804037  56.1856622  59.0338441  73.4939000  56.9280164
  58.7559253  63.7855719  45.0538921  58.4108636  64.6711316  44.8481040
  59.4429479  63.6299453  44.3909132  67.7658832  57.4994248  45.2097060
  66.9154717  57.0423402  45.2239297  68.3460264  56.9213174  45.7857335
  61.5372821  58.5474262  43.7473658  61.1617644  59.4145650  43.7261033
  62.1538880  58.4516363  43.0467098  58.8699915  65.4901968  53.8392726
  58.8697585  65.2998918  54.8249153  58.9034842  66.4903446  53.8550307
  51.9365696  47.3339986  62.6316139  52.1165135  48.1742185  63.0658824
  52.6424268  47.4069181  61.9314431  55.0895279  60.5011334  53.0376466
  55.3904871  59.6716718  52.5998095  55.3032827  60.2354406  53.9841122
  56.1912515  61.6304356  57.4521368  56.9609916  61.0931515  57.2429019
  56.0243199  62.1274182  56.5875006  45.1857704  68.8401867  55.1849818
  45.8753931  68.8378467  54.4509639  44.7861491  69.7333127  55.0328328
  55.9411470  58.2750700  52.1230710  55.8406926  57.8002217  51.2616078
  55.7503273  57.5484322  52.7335226  74.4714314  59.0951626  54.9142264
  73.7382126  58.5827806  54.4460040  74.0282967  59.2658835  55.7418916
  55.1302073  64.1867250  43.7573622  55.1278070  65.0883309  44.1760465
  55.2185388  64.4873274  42.8467804  58.1594787  62.6938980  60.8620807
  58.2762742  63.6250729  61.2037671  58.5335632  62.1596595  61.5491931
  60.5949352  74.5913164  51.7003469  60.7557717  75.1774855  52.4979617
  59.9086118  74.0004919  52.1214164  60.9457678  65.8073621  57.9038555
  61.0469749  64.8639424  57.6285323  61.2805203  66.2206794  57.0880175
  70.5531813  61.4847719  47.5112554  70.2640811  61.0346788  46.7373689
  71.5005532  61.6084315  47.4115336  65.2518267  63.0550052  46.8921731
  64.8570986  62.4576011  47.6101464  66.0109988  62.4831389  46.6581764
  34.2215906  21.7891828  10.8978886  33.6645958  22.3130121  11.5566393
  33.7449715  20.9149992  11.0578373  59.9508979  75.4129164  57.0863560
  59.9741760  76.3790373  57.2353314  59.4347771  75.1539479  57.9038093
  63.2990864  59.3955278  56.8873259  63.2329336  60.3298030  56.7040068
  62.5749041  59.2115015  57.5009256  47.2458812  59.1352500  48.8844861
  46.4088067  58.9577016  49.2468462  47.4452563  60.0413239  49.2347083
  52.8610180  73.1715013  46.3961606  52.5894141  74.0326048  46.8547254
  53.7727562  73.5070717  46.0820033  48.2609383  61.6771770  61.6404316
  47.8485755  61.0194331  62.2569609  47.5666453  61.5616106  60.9099527
  46.1094181  50.9902243  56.9100832  45.6428749  51.8256612  57.1376234
  46.7013800  50.8940677  57.7189657  43.8959498  34.8445714  -2.9344327
  43.3907729  34.1848492  -3.4658664  44.3532783  35.3539912  -3.6439122
  59.7973057  57.6545863  55.0461461  59.8469914  57.3170692  55.9814154
  58.9000690  57.2029377  54.8124384  44.1373682  57.8528410  69.6307690
  44.6838433  58.1512938  68.8472063  44.3215294  58.6813526  70.2224234
  66.0355530  58.9913285  56.5698514  65.1123219  59.0371043  56.9050090
  65.8636625  58.9905468  55.6052218  71.0671966  69.6966209  55.1332898
  70.4463878  70.0351841  55.7919324  71.4625112  70.4224394  54.7023399
  56.2066908  60.4105611  49.0717294  56.3406153  60.6251889  48.1327099
  56.3789009  61.2543822  49.5098752  31.9456600  27.3672536   4.0710366
  31.6898722  27.4321143   5.0544947  32.7091510  26.8148371   4.1667518
  43.1399370  60.8219050  63.2814261  42.2775338  60.3678813  63.0476050
  42.7592821  61.5393599  63.8224891  56.1241415  68.5341858  58.2250629
  56.6541632  68.7921421  57.4856856  56.2811383  69.2146221  58.9067731
  56.1384841  55.9179718  57.2515122  56.3617968  55.9533448  56.2459355
  56.8157122  56.4862935  57.5924858  44.8200536  53.2697524  54.2225424
  44.0006410  52.9266732  54.6410542  45.4301917  52.5446132  54.4211242
  58.1568234  65.4133440  58.4474399  58.7186269  66.2114998  58.6292679
  58.9029387  64.7950738  58.2927462  69.7884665  72.7231423  53.3280634
  70.6760789  72.9684563  53.7640486  69.7695000  73.4747623  52.7045957
  59.6253767  70.4835991  56.0655167  59.8674847  70.1528540  56.9471640
  59.2857679  71.3797324  56.3050332  48.8234035  68.8387453  65.5210333
  47.8956433  69.1071302  65.7457253  48.5669020  67.9811999  65.1088992
  49.2135167  65.6723302  54.9302235  48.5905699  65.9808792  55.6831590
  49.1361917  64.7016036  55.1510817  51.7560619  64.3257134  47.3919520
  52.4103606  63.6398680  47.4730378  51.3825955  64.4143482  48.3018561
  64.4526396  64.1279566  39.4611600  63.7403045  64.7409839  39.5864303
  65.2186384  64.7116148  39.3313803  58.9687382  58.5951632  51.4030972
  58.8470485  59.0029082  52.2975441  58.1088982  58.2176467  51.2848662
  61.4190498  69.6530410  44.3612969  61.7705080  68.8751391  44.8470611
  62.2040533  69.6993690  43.6832837  67.2540476  59.9590720  49.5337992
  68.1505976  60.2205075  49.8126280  67.2558595  58.9541530  49.7713883
  68.5370751  49.2154672  51.8355520  68.4337879  48.2542950  51.8406218
  68.3042278  49.3974582  52.7671294  54.6391015  50.7594223  41.3240147
  55.5024047  50.2690769  41.3393535  54.9233297  51.6444389  41.0535292
  54.0744308  62.7440258  47.5674870  53.5398600  62.2911762  46.9125359
  54.8659195  62.9494430  47.0147858  55.1927807  72.9515210  35.1428229
  55.3339913  72.8036261  34.1618484  54.7310511  72.1276911  35.3937487
  53.0526015  62.1238234  52.6774149  52.9214606  62.4296323  53.5004769
  53.6872813  61.3689640  52.7278565  60.0107735  56.3938058  57.3584330
  59.7027938  55.5508596  57.6585467  60.9829440  56.3536129  57.3480015
  53.8894578  67.3362912  46.8189451  53.6943972  68.2841393  46.9280701
  53.2258005  66.9310195  47.4259652  67.6455021  71.1289263  45.6367226
  68.4972969  71.1875297  46.1377345  67.0159409  71.4699978  46.2591565
  52.4081156  77.3390641  43.6518541  51.4829715  77.0376671  43.6880351
  52.5254020  77.6176186  44.6365732  58.1428693  56.9322700  48.0110911
  57.8432180  56.4997990  47.2073861  58.8721685  56.3548125  48.2428652
  60.6665139  52.3434266  49.1694443  60.6855244  51.3636355  49.0265446
  61.5127931  52.5274217  48.7262949  13.8666471   4.4421807  41.2288180
  14.5313199   4.8155474  40.6035445  13.3178503   5.2310482  41.3821856
  59.8099414  55.2770376  40.7498438  59.4346966  54.9133484  39.9173700
  60.1308393  56.1442441  40.3087884  62.1378787  59.5928926  63.7084238
  61.4929998  58.8982417  63.3339266  62.9564895  59.0355688  63.7103012
  67.7237995  49.8371687  47.2188453  67.7350427  50.4216771  46.4724931
  67.6052343  50.4948065  47.9433614  68.4013281  53.8499266  49.6676139
  68.0271626  54.2512086  50.4896662  68.4873248  54.6188308  49.0935360
  74.8469888  66.7831791  52.9295176  74.0395324  66.3197843  53.1044690
  74.9300731  67.4485360  53.6529387  55.1997378  67.5315682  55.1946349
  55.9163905  68.1524930  55.5084931  55.3415913  66.7627550  55.7684261
  58.4482864  64.1335881  49.7930101  59.2157302  63.8520131  50.4254255
  58.6475047  63.4697756  49.0653029  41.0684235  66.0170201  57.7495685
  40.5637792  66.7158581  57.3473355  41.7408985  66.4294790  58.2581438
  54.6826458  55.1834360  43.7175748  54.6435323  56.0621382  43.2562967
  54.0998624  55.3679510  44.4837969  53.7807897  53.5534981  58.1703819
  53.0882672  53.9887030  58.6741561  54.3747764  53.2108533  58.8936556
  65.2868924  63.3445862  51.5658123  66.2703455  63.4236797  51.6299288
  65.2202718  63.1172703  50.6078987  57.8205398  63.7293893  64.3646343
  57.9501579  64.3257511  63.6023214  58.5759919  64.0528415  64.9440495
  54.0359471  75.2104104  51.6199755  53.3363906  75.4093116  50.9479505
  54.5301661  76.0536729  51.6640913  57.0164570  53.1687130  47.4900428
  56.1484872  53.6860573  47.4989787  57.4702346  53.7508356  46.8858455
  57.9404770  71.1309728  59.0169651  58.1486073  71.7545275  58.3002033
  57.2850611  71.5482168  59.5515409  64.0807642  76.5740169  43.1778147
  64.6619657  76.0566060  42.6086880  63.6442720  75.9433650  43.7973620
  59.0374292  62.4740932  47.9721426  58.6065083  62.5994059  47.0938521
  59.3123741  61.5512394  47.9161097  53.4257769  64.9933866  55.2846416
  53.9752937  65.5170307  54.6811216  52.6126638  65.5225979  55.2805124
  72.1224201  55.4144102  41.3669353  71.3044653  55.5951670  40.8734462
  72.2137304  54.4552528  41.2316510  70.0293345  61.5951867  58.9850372
  70.0112623  61.0791399  59.8211492  70.6855017  62.2842388  59.1955629
  56.3274940  72.5695279  60.5341614  55.5814721  71.9183009  60.6489795
  56.5441217  72.7193152  61.4796789  51.4448349  49.9828832  54.4688061
  51.6246141  50.5281970  55.2495832  51.5563438  50.6469274  53.7458100
  43.0806092  73.3011303  37.9564391  43.5448177  72.4993347  38.1867821
  43.7074838  73.6914203  37.3035784  17.8622510   8.1659965  57.0887527
  17.6441427   7.3534178  57.5938091  18.2383937   7.8089403  56.2712416
  43.6142493  53.2768283  46.9521820  43.0336971  54.0160330  47.2683360
  44.1844976  53.0906823  47.7416078  37.1947324  58.5029981  49.5085384
  37.5711489  57.8516423  50.1172208  36.9742291  57.9873626  48.7270098
  58.1379211  66.9255813  41.9488809  57.9178370  67.8682537  42.1695099
  58.3568408  66.6059296  42.8949889  51.9228172  58.2267260  53.1732234
  52.6744368  58.4426820  53.8314147  51.1835358  58.6656979  53.6486462
  76.8751199  65.6841014  54.9399379  77.0248352  66.6640574  54.9726239
  76.5503965  65.5109292  55.8198002  65.7963396  65.5916377  55.3900064
  66.1632314  65.1402587  56.1808181  66.6425439  65.6482263  54.8819970
  58.8534073  59.7260098  53.6224844  59.5025542  59.2563554  54.1911501
  58.8170752  60.6604066  54.0180082  64.4745210  55.2723086  61.5632560
  63.9553748  54.3973552  61.6252998  64.5988465  55.2857247  60.6246118
  63.2592304  64.0481716  44.0106224  63.3358119  63.9106418  45.0041189
  63.7222466  63.2899575  43.6578875  54.1692091  72.7170427  52.2426329
  53.8400241  72.6709047  53.1289020  54.4350188  73.7056690  52.1663136
  61.1601448  65.6559706  45.6241201  60.3408222  65.7854473  46.1155117
  61.3542299  64.7354993  45.9332891  61.8887847  64.0299397  55.0528905
  60.9568320  64.0122935  55.3859236  61.7238823  64.2326856  54.1173010
  70.0910271  67.3367047  44.9988617  69.1837415  66.9714241  44.8280018
  69.8864632  68.3081377  45.0306983  56.3841675  57.7594925  45.2583831
  55.8873534  57.8320647  44.3864321  56.9491059  56.9762420  45.0302317
  63.6178510  62.0880797  55.5482598  63.8892337  62.4268976  56.4137901
  62.9083287  62.7199747  55.3224112  46.3902934  79.6617544  48.0215028
  47.2389897  79.6959289  48.6341339  46.0618807  80.5631885  48.3517149
  60.6725735  78.6362890  46.5246535  61.2405842  78.4667700  45.7872750
  61.0752495  78.0334276  47.2004479  45.0200634  72.5306998  54.5032359
  45.6794083  72.3995849  55.2498156  44.5981908  73.3314431  54.8637937
  10.6211464   4.4919074  41.0065566  10.3379576   3.7224673  41.5404983
  11.5451338   4.2879447  40.8297528  47.2626980  59.6795027  63.0370002
  47.7513982  58.9942258  62.5238750  46.3844234  59.3567070  62.8371486
  29.3621989  34.8016524   2.0720666  28.4436544  34.7443913   1.7906881
  29.8154184  35.1918771   1.3339581  53.7363578  57.6249821  54.8995108
  54.5964549  57.1349059  54.7704055  53.1731055  56.8529509  55.1998213
  49.6708130  65.6196479  49.7492214  50.5409335  65.6473154  50.2321364
  49.4752113  64.6427486  49.9610744  60.2135172  55.2217397  48.7234805
  60.2721962  54.2639122  48.8770048  60.4816388  55.3065037  47.7738053
  66.3398010  70.9655144  48.7031339  66.2468451  71.8673844  48.2109817
  65.4920750  71.0053497  49.1399498  47.5131836  54.8121215  56.5402611
  48.1877944  54.6815978  55.8139291  47.3236959  55.7456228  56.2965799
  52.9562892  57.1163290  49.0986906  53.9129096  56.9172864  48.9735011
  52.9738082  57.9453521  49.6123093  63.1367434  71.4326418  49.3664338
  62.5640464  71.3722954  50.1665323  62.7431101  70.7096915  48.8663086
  57.9325633  52.1172539  49.8505995  58.9284269  52.1538615  49.6658437
  57.6500749  52.3028336  48.9248343  56.5300596  68.9816474  61.5805280
  56.6720317  68.5128038  62.4547419  56.6465388  68.2080641  60.9847095
  64.3319369  51.2331109  44.2546773  63.6539416  50.8703869  43.6974137
  64.5281448  50.5699542  44.9041440  62.2499181  56.5188947  54.6816089
  61.9447722  55.6874418  54.3062382  61.4412535  57.0345267  54.6887842
  51.1612890  54.0873454  53.5200693  50.1792569  54.0649573  53.6509375
  51.2328244  54.5933826  52.7050871  57.8531403  76.6138787  52.9870359
  57.0059445  77.0623461  52.8457459  57.7842356  75.8926415  52.3517248
  66.1009646  72.9985277  47.3267542  65.1756727  73.3132361  47.1074995
  66.6201692  73.8228147  47.4164308  48.8159853  60.4990902  65.0082244
  48.1316041  60.2327785  64.3503126  49.6494091  60.1849959  64.6178809
  54.1590045  58.2215623  46.5822740  54.0823289  59.0078042  47.1281907
  55.1067857  58.2062910  46.3346177  57.2078784  78.2802359  56.6675271
  58.1586322  78.3186135  56.9492735  56.8051634  78.5878858  57.5601516
  60.5216537  66.2381395  39.3510669  60.7244803  66.9357049  38.7355249
  59.5380903  66.3115176  39.4907140  44.7554699  54.3502724  59.8128432
  44.9682146  55.3127593  60.0025666  44.9866289  53.9995019  60.6998198
  71.0155506  58.3783050  46.7560832  71.4536600  57.6153505  46.4305660
  71.7510925  58.8807269  47.1748361  24.9842059  38.6534096  -0.3387574
  24.2815283  39.1112012   0.1807240  24.4634424  38.1849829  -1.0009424
  46.9911950  77.9766030  39.3801431  46.0023493  77.9347333  39.4084845
  47.1190346  78.3517675  40.3023123  43.3919092  62.3507614  49.3209218
  43.2659910  62.1476499  50.2289143  42.8955613  63.2073694  49.2287876
  49.8416928  56.9992813  59.7125190  49.0017780  56.8698011  60.1599610
  49.8911851  57.9971573  59.6503831  38.7410096  69.0594005  52.7433017
  38.6323288  68.3224542  53.3831162  39.5453149  68.7519175  52.2703352
  47.5820697  69.0826518  53.6695465  47.7250783  69.9743151  53.3393418
  48.1950692  68.6017737  53.0608132  29.3589694  38.0604065   0.6158095
  28.6259390  38.0615229  -0.0517464  29.9518557  37.4020339   0.2712509
  56.5144679  69.1187010  51.1030720  56.1228616  69.2732306  50.2385822
  56.7703787  68.1517217  51.0405380  55.4779335  66.9292937  44.4413868
  55.0133484  66.9898194  45.2926610  55.4257367  67.8838144  44.1507700
  58.0586266  51.5533416  59.6392063  58.2786694  50.7763575  60.1790721
  58.2076568  51.1350442  58.7497880  49.8718839  59.9732114  54.1253452
  50.5862273  60.4579292  54.6207622  49.4090117  60.6825160  53.7104807
  65.9522028  66.1518779  60.8622965  66.5161839  66.7548877  61.4256660
  65.2033990  66.7438978  60.7342708  56.0114447  71.2436672  47.5627463
  55.5253646  70.4743069  47.9376198  55.7807057  71.9046967  48.2600603
  36.1240854  29.2438378   9.3090818  36.9517702  28.9637928   8.8411126
  35.5191025  29.1534512   8.5017071  46.8666738  59.3348136  57.6605063
  46.3604009  58.6056020  57.2539481  46.1271877  59.8300736  58.0486451
  69.8782888  56.7703199  43.8674628  70.0227273  57.4188502  43.0716325
  69.0529274  57.1460898  44.1835428  67.2682033  73.0633149  35.4912942
  67.7844180  73.8865619  35.3150216  66.9322536  72.8857126  34.6091495
  56.5918974  66.8447617  47.2974695  56.6722323  66.2441315  48.0529484
  55.6285863  67.0355138  47.2803018  68.8227433  55.4204874  59.1954505
  69.6588674  55.8572964  58.9858885  68.1977066  56.1349944  59.0744835
  58.8478188  70.4099470  45.1743523  58.8240837  69.6561088  45.8161649
  59.7554642  70.2254055  44.8056919  73.5767459  56.5413467  47.9186487
  73.2396759  56.4741625  47.0153193  73.3819438  57.5311762  48.1415748
  65.8731796  68.0864359  51.3184037  65.8554962  67.3788427  51.9176214
  65.0443140  68.5649880  51.5299939  57.0364586  49.2314428  40.2192752
  57.5629392  48.5430322  39.8036482  56.8745836  49.8216274  39.4118078
  70.9092706  43.1261170  50.6543003  71.2411614  42.6929383  49.8428024
  71.4411657  42.6389023  51.3476683   7.0959295  58.3978925  46.2866384
   6.3415604  57.8551525  46.5451953   7.8045862  57.7499207  46.2476813
  76.8982784  55.4010389  59.0922188  76.8064998  56.3739192  58.9062429
  77.8005943  55.2713913  58.6957486  69.5338810  67.9525719  53.5305644
  70.3270149  68.2621139  54.0532744  70.0094960  67.8381680  52.6314084
  51.8474321  55.9103433  51.4491226  52.2004204  56.3348892  50.6777511
  51.7347803  56.6658537  52.0751145  43.7081555  66.6959880  56.1373694
  44.0204996  66.8418894  57.0719810  44.0421387  67.5000673  55.6929674
  57.8115162  55.5233020  38.3028418  57.7562718  55.3042627  37.3035482
  56.9663472  55.0547461  38.5325913  53.3576855  62.6073799  56.4615643
  53.6821951  63.4697658  56.0877869  53.2894793  62.8603121  57.4111184
  55.1586888  55.1957519  47.6377166  54.4117951  55.5210208  47.0554157
  55.5064388  56.0218387  48.0480155  44.4838874  77.9738814  39.9906962
  44.2100276  78.7248893  40.5430415  44.3050959  77.2682404  40.5989089
  51.0276325  57.4603048  68.6162177  50.9813363  58.2415263  68.0479782
  51.9297780  57.1213497  68.3061075  45.7545547  63.4667784  47.7869687
  44.8886888  63.1610046  48.1279319  45.7711561  64.3983787  47.9678916
  47.3550321  61.8504290  49.5493722  46.9466990  62.4714336  48.9294715
  46.6319437  61.6945947  50.1445304  50.0206716  68.2104294  52.4309140
  50.6803142  68.9613810  52.6893781  49.8877991  68.4769471  51.4972418
   0.9255245  50.8879986  40.6067270   0.6268074  49.9993705  40.3495171
   0.2848037  51.0224021  41.4219396  65.6647542  52.5296088  58.0264714
  65.5975732  52.7751536  57.0955465  65.4333066  53.3777878  58.4696961
  67.1781741  61.5097177  55.5431247  66.6008907  61.4225973  54.7140423
  66.7358736  60.8494877  56.0732873  32.0246661  37.9324407  -4.9359403
  32.2998745  37.0770194  -4.5444756  31.0894929  37.7141185  -5.2059367
  57.9861109  65.2301661  33.9663236  58.9778108  65.0339193  34.0911563
  57.8568843  64.5939208  33.1609633  47.5473415  51.4488263  58.9192933
  48.0672018  52.2690045  59.2052274  46.9068009  51.4176759  59.6877175
  66.7083385  56.3177045  55.3943873  67.4607157  56.4019806  54.7201659
  65.9979185  56.6122516  54.7951129  49.9192781  18.5238871   2.2911723
  49.0815189  18.8528933   2.6421392  49.6764356  18.2176477   1.4441087
  45.2282348  72.5833496  49.9061752  45.1230265  73.4226098  49.3536959
  46.0944039  72.3282365  49.6672751  63.7760493  61.7776815  40.5546588
  63.8351148  62.6458319  40.0249244  64.4041796  61.2649314  40.0972777
  72.8113879  57.5621858  53.6401547  72.2312350  57.9055946  52.9529906
  72.3072973  56.9352958  54.1552377  52.2846054  51.8785955  56.4279006
  52.8468052  52.2324374  55.6918556  52.7116753  52.3491010  57.1703550
  53.3170567  68.5612261  57.2053808  54.1674816  68.1557635  57.4752136
  53.3104388  68.3076494  56.2595216  55.9818853  53.0949381  41.2570704
  55.5010560  53.5830415  40.5530300  56.4191505  53.8836601  41.6987759
  50.4793372  62.8836311  55.6607991  50.1336132  62.7766264  56.5868148
  51.4462282  62.8108627  55.9043480  56.7606029  73.5391636  54.7974818
  55.8809614  73.1723377  54.9785483  56.6278536  74.4878076  55.0599603
  49.9088038  52.7512336  61.0920892  49.0599392  52.6183363  61.5883108
  49.5926655  53.4177137  60.5096789  41.9810676  50.1787693   1.3633270
  41.8843009  49.3785010   1.8865409  41.0701593  50.4145838   1.1576271
  13.0100684   7.9621063  51.6819048  13.0677407   7.9793180  50.7002627
  14.0496672   7.9806855  51.7807761  27.9366116   6.6838662  57.7199656
  28.1601299   5.7561513  57.3290080  27.3898313   6.9790299  56.9560682
  63.3722303  73.4397803  47.3158331  63.4420264  72.5932405  47.7754794
  63.0484725  74.0018188  48.0240466  25.4862792  10.2058485  55.4599859
  24.8342166  10.0172086  54.7559237  25.5589440   9.3312233  55.8467837
  68.5035180  63.7403333  46.7747686  69.3422311  64.1714896  47.0454833
  67.8749357  64.4434762  47.1268408  52.3910411  29.1524498  -5.1089674
  51.6343003  28.6691514  -4.7112807  53.0247325  28.3870653  -5.1137549
  57.8871736  74.3344878  43.6634021  58.8317447  74.4900307  43.6209552
  57.6590358  74.9959091  44.3797227  65.6770657  72.7289864  54.0721010
  66.2421945  72.2888145  53.4609173  64.8144497  72.3636184  53.8709869
  65.2936357  69.2349305  54.8976882  66.1178963  69.7574704  54.6620947
  64.6781627  69.7286356  54.2864608  54.2860055  74.8475673  48.6107115
  54.9737276  75.3343156  49.0813406  54.3312907  75.3977709  47.7266507
  52.3677125  77.7118164  46.6928987  51.4905381  78.1322368  46.8618787
  52.9156690  78.0691953  47.3782679  45.4690026  36.9829270  -4.9365474
  46.3851387  37.1250439  -5.2709217  45.2111603  36.3198832  -5.7161369
  22.6402534  -0.6680448  43.8384955  22.0118045  -0.0135171  43.8045544
  23.3198208  -0.3991583  44.5242676   5.6605059   7.8146509  54.7645071
   4.8469035   7.4764706  55.1855778   6.2240941   7.0122569  54.8842273
  28.5443504  -4.8624014  56.6665806  27.9412554  -4.0908799  56.7124839
  29.3045242  -4.5940795  57.2477468  64.5415770  75.8456255  50.0425995
  64.9640928  75.8340961  49.1646671  64.6380206  76.8607481  50.2301927
  15.6661706  11.4456519  60.7192356  15.7955158  10.6723502  60.1570167
  16.1121337  12.1055150  60.1942804  21.5823115  14.3963957  55.6893726
  22.0430624  14.7753009  56.4909055  20.7878230  13.9755194  56.1396005
  61.3313119  72.0144946  54.1880982  60.8896756  71.4743030  54.8765937
  60.5687676  72.4513693  53.7807654  12.1128245   5.7150774  52.6439724
  12.3897544   6.5580850  52.2517931  12.0803095   5.1667491  51.8653158
   9.3308807   5.2133966  36.1835439   8.5955450   4.6657046  35.9346230
   9.1440307   5.4520511  37.0962069  29.8025501  42.1506268  -5.6016635
  29.2310390  42.9493433  -5.5214828  29.5025185  41.6458987  -4.8532205
  18.4949616  11.1874283  44.2457870  19.2114562  11.7997453  44.6147228
  18.6845098  10.4451983  44.8613837  40.0109450  38.5489031   0.0954685
  40.2458553  37.9151567   0.8480160  39.2883589  39.0629837   0.5717955
  62.9767665  66.4301442  50.6687480  63.6951000  66.0584220  51.2430760
  62.7605160  65.7147131  50.0664631   7.1749862   6.7694900  47.8159512
   7.9535216   7.1815633  48.3109383   7.7738849   6.1277123  47.2528100
  23.1560027   7.3497783  46.0220594  24.0555208   7.1746765  46.3562527
  23.1650679   6.7158904  45.3116894  20.7858468  -3.0687872  54.0806152
  20.4938108  -2.2098487  54.4602871  21.7600403  -2.9224299  54.1165490
  13.4250326   9.7482279  44.0816372  13.4930278   8.7648508  43.8596012
  14.3376764   9.8731565  44.4262166  17.4922849   1.2957557  40.8029402
  16.8717645   0.5252830  40.6501721  18.3525512   0.7223946  40.8294701
  76.5231952  62.8597009  57.1781901  75.9829434  62.5414739  56.3624006
  76.0588591  63.7661445  57.1784509  68.0739306  73.0267863  38.1198842
  67.8947216  73.2438118  37.2297156  69.0965336  72.8915266  38.0386226
  69.1889421  72.1450443  50.1280506  68.8814719  72.1745482  49.2008627
  69.5533894  71.2176688  50.1202868  66.2293947  75.7116160  39.2838909
  65.7047280  75.1877462  39.8834350  66.5831990  75.0616697  38.6387997
  17.3470213   5.6983291  58.5837748  17.5037324   4.9313286  57.9385656
  16.3951676   5.8529313  58.4733562  23.0150959  12.5758050  41.9672267
  22.2584195  11.9375592  41.7175045  23.0271387  12.4183774  42.9320630
  72.8188428  57.5448478  61.4549575  72.9145219  57.4667674  60.4605835
  73.8385075  57.5848834  61.6609332  71.0488142  67.6649848  51.4804654
  70.7045980  66.9015502  50.8727684  71.9808840  67.4553001  51.4732977
  61.4220972  72.3703429  58.5901456  62.1071191  73.0746896  58.6876195
  60.7768113  72.7324127  59.2580877  16.7780479   2.7168680  43.0471049
  16.2035727   2.0278579  43.4237442  16.8830239   2.3786454  42.1355045
  41.8025959  38.7965431  -7.0299594  41.9636122  38.1946677  -7.8612963
  40.8262376  38.7656849  -7.1184697   9.8107262  11.6223764  54.4548051
  10.2397318  10.8701314  53.9551252   9.3231013  12.0928068  53.7426282
   5.5767643  65.4361078  52.9652319   4.7004509  65.7491242  52.6370016
   6.0056153  66.3033012  53.1548616   1.8588088  11.7521099  43.8748503
   2.4191714  12.4539848  43.4289336   1.3438018  11.4004365  43.1387300
  36.9556631  47.4125021  14.7876877  37.2122681  46.9120447  15.5927252
  36.3158283  46.8930164  14.4278859  68.2008634  65.2033093  54.5753824
  68.3057696  64.3697842  54.1159761  68.9451756  65.7312780  54.2369587
  35.4366124  52.6661104   4.9049965  36.1698030  52.0275377   5.1810922
  34.8762535  52.7353524   5.6612754  38.0160039  49.9739696  -1.3915107
  38.0757059  50.9561319  -1.4718068  37.0638200  49.8451531  -1.6409976
   1.0689358  55.2063347  53.3358508   1.6786908  55.9359668  53.5517491
   1.3318398  54.5320175  54.0009752  43.2022807  79.9088005  43.2608005
  43.7089004  80.3946816  43.9779678  42.3380803  80.2799724  43.4785759
  56.8808202  69.5410097  55.7475149  57.5863457  70.1083150  56.1466984
  56.6100591  70.1592156  55.0218794  53.2486929  73.6225212  58.1710529
  52.8709435  73.4818896  59.0690893  53.1850269  72.7122834  57.8346344
  24.3662566   0.3228738  45.8283235  25.2984181   0.3553426  45.9379477
  24.2372344   1.2146131  45.4090427  17.7384271   0.1120552  46.8009232
  17.8741575   0.3923398  45.8421164  18.6556506   0.3070683  47.1100411
  35.5232074  46.2626381  -3.4820545  35.4381954  46.0050362  -4.4277423
  34.5345701  46.2438384  -3.2935833  55.8738830  70.8097605  53.2609166
  55.3158790  71.5120432  52.8100571  56.1157808  70.2604819  52.4749084
  40.9606691  72.0094040  55.4892434  41.6055289  72.7314696  55.5383091
  40.7656512  71.9311196  54.5336248   6.7426473  13.4833438  47.5048798
   6.0368847  13.5647798  48.1784357   7.4337296  14.1107949  47.8724028
  63.3564108  72.1426231  35.8780087  62.4109046  72.1914275  35.6561819
  63.5082564  73.1065649  36.1365564  11.2236163   9.7098743  52.8257782
  11.8295705   9.0299860  52.3746425  10.6203111   9.0078112  53.2839269
  17.6642167   7.8129673  53.7326660  18.5395069   8.2799047  53.7177888
  18.0360759   6.8702439  53.6796320  58.6925336  75.8062615  45.7871951
  58.4068675  76.7126540  45.6530173  59.6078149  75.8606857  45.4003692
  57.7255443  72.7594121  33.2994206  58.4568336  73.3204441  33.0387777
  57.9581558  72.4373491  34.2153066  39.1716115  33.4122790   2.6925053
  39.0148761  32.4328320   2.5023353  39.9314157  33.5537653   2.1479597
  57.3479031  66.2645193  51.5384215  58.0591255  66.1739461  52.1373037
  57.6905707  65.6852276  50.8008282  22.0550140   1.4387810  51.3296579
  21.9467654   1.8798632  50.4955233  23.0328486   1.3438181  51.3619117
  71.2293910  63.4796942  50.3195630  70.8031795  64.3364044  50.1259586
  72.1087526  63.7109307  50.5400981  55.8793816  80.5290018  55.5812870
  55.1300615  80.0022463  55.2316512  56.4887076  79.7529340  55.7704393
  67.1282202  60.2126237  39.0315820  67.0795949  61.2359614  39.1906308
  66.4474391  60.1479230  38.3670802   9.1833324   7.3722850  49.3849035
  10.1691391   7.3971806  49.3045896   9.0559963   6.4641954  49.7487201
   7.0873025  14.5015007  51.7079229   6.7525850  15.4046021  51.4722372
   6.4067209  14.1838039  52.2885444  32.3588015  34.2039041  -1.9295570
  32.0841416  33.5005992  -2.5700628  33.0486353  33.6860424  -1.4256453
  72.8606219  70.0167743  51.6539089  72.0737477  69.5096215  51.5828711
  72.7356475  70.4302413  52.5731320  25.9829754  43.6129491   4.9588282
  26.0238127  44.0812241   4.0884035  26.5456407  42.7832453   4.7429877
  14.0660615   1.8475844  41.8590463  13.9316057   2.7831619  41.5421318
  14.5477216   1.5017045  41.0542560  63.4244365  75.3511418  39.1331468
  63.6623978  74.4945428  39.6175037  63.4336600  74.9864558  38.2201324
  60.0661190  69.2195355  51.6762903  59.8307885  68.9261573  52.5594140
  59.3860090  69.8587350  51.4609142  57.3396088  74.7211587  50.9900095
  57.7913926  74.8477333  50.1292829  56.5705791  75.2128008  50.8071785
  19.0089461   2.1224410  56.8268856  19.6167157   1.8669664  57.4681209
  19.0597900   1.3456026  56.2082945  58.3270654  71.7681468  50.5991512
  58.7112240  72.6598225  50.5180179  57.4137059  71.9700598  50.2449501
  14.7122120   7.2791540  43.2809234  15.2661051   7.8388775  42.7539933
  15.3702757   6.6978487  43.6924907  51.0590790  35.1715774   2.0872710
  51.5580199  34.6332685   1.4558755  51.1955390  34.6817193   2.9182763
  72.1539867  68.8686292  48.4034683  72.0216078  69.1608526  47.4791348
  71.3035848  69.1904716  48.7516683  53.1298226  75.6449575  56.4266200
  53.3394349  75.0470468  57.2152367  54.0663627  75.8310246  56.1941718
  27.0921218  40.1092688  -0.1290274  26.8673196  40.9477602  -0.5683669
  26.2768145  39.5924740  -0.4465177  67.1627999  71.1990752  52.3412327
  66.8183932  70.8933771  51.5016468  67.9922773  71.6387202  52.0496306
  71.7114643  63.9642687  59.4667867  72.4982351  64.1538088  60.0875204
  71.1643773  64.7154966  59.7748646  57.5696265  55.1984883  45.5690602
  58.4261618  54.7541612  45.6136076  57.1633793  54.7924952  44.7745733
   8.6286873   5.7596206  39.4926072   9.0046008   6.6517171  39.6715773
   9.2328056   5.2296555  40.1296399   2.2758275  59.6373119  53.6727543
   1.4279095  59.9918224  53.9612260   2.3351888  60.0275413  52.7575579
  24.7910047  -2.6518264  50.0577586  24.7364361  -1.7092627  50.3322143
  25.1381157  -2.5723962  49.1661510  55.9844764  73.5433490  39.8378421
  55.1954841  73.7389870  40.3605423  55.5988778  73.7121634  38.9254018
  16.9290713   5.2601971  49.7202690  16.1314070   5.3112974  50.3001083
  16.5601786   5.0688442  48.8869465   9.8864132  62.6713644  39.2943794
  10.2107296  63.4456647  38.7703072   9.2171182  62.3536683  38.6843126
  27.8073096  -0.7895412  49.6705358  26.9859364  -0.2417902  49.8405259
  28.2059458  -0.9096179  50.5403508  29.6210485  46.4059662  -5.1494955
  29.3252688  45.7439462  -5.8683079  30.5180362  46.5971341  -5.5527571
  71.5821725  60.7243388  42.3496335  70.9798872  60.9161555  41.6392393
  71.3197251  59.8661023  42.6826238  44.7847960  35.3627036  -6.9386417
  43.9108090  34.9849447  -6.9579439  44.8071110  35.9799661  -7.7198957
  76.7235799  66.7000194  44.6712922  76.6217095  66.2981213  43.7714448
  77.2488201  67.4800594  44.4423823  69.6101051  59.9805295  45.1304474
  68.9518679  59.3818375  44.7456386  70.1612746  59.3509897  45.6794853
  34.1488324   0.1191723  52.2105079  33.7535943  -0.4977594  52.8126322
  33.9909203   0.9665393  52.6227901  29.7731091   2.9418389  42.9303601
  30.2760908   3.0966564  42.1112833  28.8466291   2.9065659  42.5160333
  26.3824844  -2.2228316  47.7951858  27.0634880  -1.6321307  48.0561604
  26.7623664  -3.1054769  47.7358997  32.4985251  -1.9896716  37.4912033
  33.4378091  -2.2264336  37.5858793  32.3965092  -1.1497219  37.9484312
   1.6639160  65.1556701  54.1264459   2.4870414  65.2936367  53.5396922
   1.3938006  66.0627616  54.2592008  28.4992094   2.2815542  26.5600504
  29.3064634   2.7261512  26.2394760  28.6604468   2.0872210  27.4428101
  11.8397968  61.8474307  40.8502084  11.7566564  62.7412638  41.1095738
  11.1471923  61.7566364  40.1075933  30.8928131  -0.2027100  44.0299734
  31.3672430   0.5094548  44.5204234  30.0370905  -0.2121718  44.5781006
  18.9664555  62.9486319  32.8092417  19.8568820  63.3757206  32.6428593
  19.3050068  62.1768161  33.2939915  17.3473014   3.3766083  47.4446432
  17.6862486   3.0907693  46.5421654  18.1188711   3.9326333  47.6811529
  67.5388008  75.1522579  46.9754105  68.4992789  74.9557248  47.2306077
  67.6459322  75.3196320  46.0152544   7.9829170  62.6701032  41.8264630
   7.8157021  62.9803913  40.9397071   8.2033013  61.7317065  41.6602126
  32.9286575   9.9447969  31.3883194  32.2384100  10.5579648  31.0549664
  32.8282404  10.1442920  32.3609210  68.5884331  60.5353686  52.8885070
  69.4367461  60.1346510  52.5802931  68.1461978  60.8771348  52.1212567
  72.0097536  71.2100974  29.8868596  71.7459455  71.7614848  29.1707612
  71.2541955  71.3630680  30.5183708  28.2831617   8.0978679  38.9180335
  29.1023557   8.0319741  39.4283062  28.5872037   7.8796603  38.0109838
  25.6111404   9.1053143  44.9256245  26.1358085   8.3843925  45.3360954
  25.3207726   8.5536355  44.1284753  18.5061499  -0.0301997  43.5688616
  18.0896532   0.8495986  43.5560947  18.9806881  -0.0404327  42.7166658
  25.6086361   5.7224699  54.2228173  25.5058822   4.8292473  54.5309325
  25.4245081   5.6107342  53.2698527  23.4197422   3.6788558  41.6264119
  24.1770746   4.1298603  41.2148610  22.8396440   3.6865095  40.8341583
  33.0634089   2.2149972  31.2381217  32.2115953   2.7675480  31.1142097
  33.5878404   2.6423701  30.5707270  35.8736925   6.9908934  23.2328192
  35.6276955   6.0724291  23.2868795  36.5791082   6.9757034  22.5458920
  33.6065074   4.4500336  41.2731384  33.4105911   5.0455288  42.0075756
  33.6875623   3.6003479  41.7588798  11.0049070  70.7030679  39.8695400
  10.9042341  69.9855576  39.2738850  11.3366062  70.2901499  40.6741564
   1.4219424  66.4150254  31.8131239   2.0288981  66.3694501  31.0325030
   1.5924551  67.3770224  32.0432866  64.8131151  68.8754112  24.3741570
  64.4220960  69.0314652  25.2901631  65.7192136  68.6592170  24.6727169
  45.1107007  38.5176216  84.9824994  45.5959006  38.9651341  84.2380780
  45.8034245  37.9532452  85.3776358  14.4891657  69.2144531  36.7871055
  15.3596560  69.1899233  36.3718861  14.6255891  69.7424949  37.5640100
  30.5514947   1.2391620  28.0915326  31.0051549   0.6472710  27.4178080
  29.9146257   0.6021464  28.4848909  25.2224145  -3.1724583  45.3152864
  25.4668716  -2.6565188  46.1442230  24.2891890  -3.0841175  45.3806677
  38.2034776  -2.3214853  48.8447864  38.8772706  -2.1160200  49.5092123
  37.5080078  -1.7277338  48.9741692  76.8358995  65.7199110  42.0482728
  77.6093587  65.0970495  42.1923738  76.0891394  65.0765747  41.7698877
  26.8855542  -5.3916940  37.1305594  26.0723285  -4.8053618  37.0608539
  26.5775914  -5.9538322  37.8650158  72.3152050  63.4867740  35.7723434
  72.1257347  63.8897926  36.6325428  71.4492095  63.5747804  35.3216653
  13.8914681  59.8505949  31.8520378  14.2035530  60.1408748  30.9645154
  12.9895641  60.2094514  31.8601338  11.0123578  69.9042067  47.0827490
  11.5952803  70.4424932  47.7140230  11.2163567  70.5007261  46.3187966
  21.3388704  -1.9938450  41.9217371  22.0908295  -2.2917649  41.3544594
  21.8762777  -1.7041871  42.7187547  23.3359056  -3.4159923  40.7914883
  24.1976926  -3.1369246  40.4644773  23.6063730  -4.1469235  41.4119831
   9.2276091  66.6670706  43.1847073   8.9636385  65.8207780  43.4891043
   9.0021017  67.2888740  43.8994033  76.1607575  67.1188494  48.0417767
  75.9826955  67.6680354  48.8591410  75.5572064  67.5269902  47.3729388
   7.7017831  63.7200467  34.1189372   7.8765074  62.8510472  34.5190541
   6.8205298  63.9651478  34.5334101  31.8381034   8.6389901  46.4676283
  32.4782514   7.8790292  46.2463396  32.3218868   8.9594403  47.2932304
  16.6302505  12.4007945  29.3429622  16.7957828  11.6390505  30.0140010
  15.6280414  12.5070657  29.5468609  25.6566834   4.3522995  34.6745453
  24.8131534   3.8744703  34.5822015  26.0926045   3.9658640  33.8740154
  36.2379168   1.6467130  22.2908806  35.4997015   2.2362531  22.1694407
  35.6843085   0.7971197  22.5033991  24.8138824  -3.4203699  37.1375543
  24.8791673  -3.2206279  38.1025826  25.2953821  -2.6554087  36.8202235
  18.3754458  17.0254371  44.0344152  17.7980376  16.2759409  44.0161219
  17.7937884  17.7380245  43.6469648  10.3658635  70.8106003  43.7097352
   9.4765259  70.6709498  43.9724545  10.7371295  71.5011465  44.2800628
  24.6885572  12.0460852  39.7090219  24.0681558  12.1887290  40.3917676
  24.6247854  12.7945517  39.1413991  18.6539761   6.4894302  44.7312183
  19.2916030   5.7740721  44.5305918  17.8503302   5.9149364  44.6856885
  30.5045391   3.7926048  38.0847619  30.7386055   3.8334569  37.2170588
  29.5092269   3.8698117  38.0645914  73.2620640  69.6651901  43.5223631
  72.9464700  70.4547364  43.1257927  73.9880512  69.9859425  44.0623784
  28.7595385  12.8435880  46.3090084  27.8231651  13.0624719  46.0499424
  28.6261440  12.1332442  46.9371640  29.4373804   7.6335032  28.2909616
  29.9833386   7.1956373  28.9821582  28.6347304   7.0799914  28.3005556
  27.7257243  -3.1542026  53.1310062  27.1588020  -3.7034210  53.6868266
  28.5914468  -3.2504947  53.4937767  20.4189681   4.5194724  43.8816237
  20.1575461   4.3413620  42.9652428  21.3663905   4.6485712  43.7321404
  26.2175910  -1.4664952  35.9783021  26.4169068  -1.0377157  35.1030533
  27.1411782  -1.3734548  36.3529825  26.7180823  10.5704065  46.9226479
  26.1996109  10.0096384  46.3627044  27.5614025  10.1357438  47.0293000
  17.7304978   1.9323644  30.8220420  18.2753775   1.7559836  30.0499993
  18.3774604   2.1524851  31.4823384  20.4881977   4.5905009  36.1103591
  19.9756844   4.9091239  35.3529015  21.2655356   4.1790199  35.7095948
  15.4261115  13.3198915  44.8469470  14.6693270  12.7455982  44.8770671
  15.9094017  13.0406384  45.6927214  28.9408304   9.9828460  43.5805633
  28.1750397  10.2394279  43.0643502  28.6233459   9.2334653  44.0979449
  29.6886638  10.4822165  32.7573097  29.1809632  10.6685087  33.5917307
  29.6753562   9.5226977  32.7921345  16.9752040   2.1638484  37.2703519
  16.9346621   1.2211023  37.4639888  16.6998243   2.5981132  38.0380133
  22.2804813  -3.4915827  45.5108930  22.5608751  -4.3163886  45.8496045
  21.5996300  -3.2590683  46.2008595  40.0409713   2.7444910  45.9946879
  39.4339750   3.3803906  45.6162982  40.8466381   2.8694293  45.4834808
  26.3531320  -1.7035728  43.1384262  25.9919529  -2.2434587  43.8579242
  27.2007853  -2.1050467  42.8982015  40.1115192   6.3047342  30.5388767
  40.2618871   6.5657293  31.4575469  39.9339642   5.3680575  30.5726814
  10.7655004  59.2513312  39.7950567  11.2592993  58.9569182  40.6157587
  11.5959593  59.6451664  39.3163929  15.8836234  10.0130737  45.1172077
  15.6493090   9.6768432  45.9869899  16.8317140  10.0938666  45.1633738
  21.4542040  12.8552687  38.5328192  21.3176725  11.8627041  38.3182865
  20.5197648  13.0204424  38.8182796  22.6368627   0.4351460  36.2330974
  23.5401697   0.1035768  36.4534077  22.8190084   1.3173726  35.9461169
   3.7944104  62.0925671  54.8606129   3.2773379  61.5634387  55.5674378
   3.4523484  61.7147828  54.0536782  37.6722525  11.7324570  45.2326998
  37.2236906  12.6078486  45.1768748  38.2187351  11.7684394  44.4527116
  22.5163439  -0.4056252  48.2433972  22.8993565   0.0376713  47.4183184
  23.0491714  -0.0531418  48.9371842  27.4401701  -0.5197950  33.7493878
  27.2799094  -0.1550708  32.7980578  28.4048315  -0.3390977  33.7795079
  36.9286866   3.9860365  48.1025117  36.7483247   3.2116663  48.6188443
  36.7294147   3.6181784  47.1733024  19.6770171  66.2645281  37.3345011
  19.5069924  65.7382303  36.5754329  19.8510379  67.1568140  36.9526819
  43.0326292  -0.6717884  54.1547513  42.6215182  -0.9615021  54.9186019
  42.4499219  -1.0465190  53.4815328  27.1316592  10.2715300  30.9655966
  27.0773410   9.9425851  29.9967565  27.5923784   9.4563875  31.2984451
  23.5425922   6.6696118  32.0498083  23.7853313   6.3805337  32.9591399
  22.5767219   6.8750836  32.1973967  28.2432686   4.8550051  30.7893744
  27.8065622   4.8154672  29.9078381  27.6898496   4.1619012  31.2695462
  28.9516583  -0.4773852  46.6877699  28.7378496   0.0088501  47.5405576
  29.4822410  -1.2184262  46.9960495  25.6599361   4.8044459  40.3994650
  25.7026265   5.7650820  40.3641116  25.4014555   4.6021836  39.4781557
   1.1869734  67.6317452  34.7926442   0.4101802  67.0452399  34.7092853
   1.1141195  67.9414637  35.6713250  12.1144862  62.3587573  36.8840065
  11.7809308  62.9222441  37.5460910  12.8837228  62.8723995  36.5569983
  37.7789669   4.7143130  25.5124188  38.2555425   4.6785830  26.3243384
  37.1531097   3.9361388  25.6188527  27.7297005   1.9572755  35.8489787
  28.1800233   1.2203057  36.2884314  27.1522596   1.4675375  35.2345225
  31.4078651   8.2845171  40.4985181  31.5573750   8.0910739  39.5298414
  32.3481452   8.2048167  40.7599812  33.2118181   2.3445948  42.6096111
  33.9958505   1.8649978  42.9999304  32.7963903   2.6461920  43.4465895
  23.7170091  17.2057268  60.0277104  23.8006275  16.3491549  60.5668234
  24.6435284  17.4701654  60.1245645  27.8365770   3.9564452  37.5944984
  27.8461120   3.3080076  36.8993274  26.9272661   4.2785683  37.5251663
  40.4173795  11.6935983  50.9342026  40.4420859  12.6296560  50.8718891
  40.0051839  11.4025151  50.0979639  36.7589607  10.0932921  31.9553820
  36.8806979   9.1315166  32.1887874  36.1230934   9.9650898  31.1876858
  40.2602065   3.4997830  30.3082539  41.1986751   3.1338452  30.1736836
  39.9199125   2.8809545  30.9309312  23.8433116  73.0030801  47.8971507
  24.7789999  73.3308667  47.7932723  23.9881902  72.0407787  47.6611043
  37.5821515   5.7359295  35.6520284  36.7034606   5.3509015  35.5070277
  37.5589788   5.7411507  36.6662410  25.4656147  74.8967074  44.7457653
  25.4563893  75.6110922  44.0553173  24.6790240  74.4163293  44.4417533
  31.2283048   3.2878626  40.5390466  32.0580780   3.7362321  40.4957641
  30.9307120   3.3354605  39.5866801  33.6926075  14.0101638  49.4877838
  32.8656859  13.4190746  49.7215747  34.1653027  13.4188185  48.8659312
  52.6602584   9.7183389  38.6447562  53.2653624  10.5181676  38.6537327
  52.8178660   9.3015482  39.4576218  13.4355302  68.2708275  33.9571075
  14.0613565  68.9254319  34.2326535  12.7339432  68.7771926  33.5694342
  35.0686815  16.2091304  47.6636876  34.5106730  16.3016347  48.4916824
  34.6082308  15.4823407  47.1872898  34.7163280  -0.0906923  38.7246730
  34.3443946   0.3973830  37.9696460  34.0770854   0.1200991  39.4402015
  27.1370006   3.0733749  42.0088886  26.5558202   3.7892793  41.5902320
  26.4239517   2.4065335  42.1093951  29.0097988  11.0213582  53.4287651
  29.2217143  11.3118214  54.3729220  29.4266408  11.7614474  52.8990375
  28.3938573   7.9733157  31.8342552  28.5476670   7.4708049  32.6615187
  27.9201280   7.2402118  31.3063907  25.2986295   7.8406730  51.8241000
  26.1442802   8.3066327  51.9788394  25.4620634   7.4730898  50.9242861
  54.9465707   9.5062719  45.9364252  55.5405181   8.7593637  46.0576279
  55.5801365  10.2087627  45.6715680  27.5350387   8.4789611  59.7820253
  27.6622837   7.8293000  59.0237671  27.0165755   9.1621011  59.2449972
  26.0045893  74.7831696  51.6792218  26.4764376  75.5017880  52.0907849
  25.9972909  75.1420365  50.7382639  40.1090070   6.2669571  45.7417087
  41.0618123   6.2841304  45.7918369  39.8624464   5.9776843  46.6550781
  33.9927640  -3.0704394  49.9635754  34.6579866  -2.5037218  50.3441844
  33.2860978  -2.4404238  49.7308380  31.8838206  15.1527126  26.3034150
  32.5787898  14.4643227  26.4881550  31.0993608  14.5831957  26.3560616
  20.7185958  65.3037719  55.3927933  20.7554848  64.3451898  55.2639101
  19.8340400  65.4626532  55.6997056  39.4310019   0.4026887  29.9897951
  39.4509471   0.5420236  29.0261175  39.9787625  -0.4574829  29.9979308
  27.0669849  76.2040428  37.0339266  26.2585466  76.6659878  36.9836343
  27.5882149  76.7267611  37.6790851  43.2909032   6.5216618  43.0939349
  43.9144109   6.7632063  42.4107958  42.8275967   5.7362519  42.6882634
  52.8905746  11.4719908  46.0066813  53.6033049  10.7982933  46.0446754
  53.1376534  11.9289773  45.1609405   3.6797482  68.4146633  46.6330786
   4.0177959  67.7819103  47.3195924   4.1442334  68.0270549  45.8661426
  58.3843409  16.4708649  52.9592411  58.6228832  16.4735603  52.0078004
  58.2760634  15.5185178  53.0793511  23.2756908  10.7292938  33.9973411
  22.6700439  11.1264365  34.6487110  24.0027959  11.3684338  33.8921787
  34.3947476  -0.4662753  45.7857517  34.0417352   0.4610855  45.6039936
  35.3443583  -0.2903470  45.8506351  34.9759345  12.5416448  29.1604252
  35.1145484  11.6298829  29.5906688  34.0254000  12.3390552  28.8993151
  39.9174167   1.0791569  39.7942056  40.1523208   0.8747733  38.8755590
  39.3621227   0.2754592  39.9613395  20.4106825  72.0152054  39.5062563
  19.5682812  72.1004203  39.8152883  20.5862283  71.0974064  39.2227297
  19.8014987   9.9437468  32.8779922  18.8868319   9.6697928  32.5977499
  19.5782639  10.4648870  33.6863345  58.9299966   5.9606245  48.8462529
  58.0642796   5.7185691  49.3237775  59.2553444   6.5974791  49.5397228
  27.2416420   5.9273810  28.3514311  27.0369749   6.0835797  27.3945320
  26.5126825   6.3911297  28.7747173  34.7087441   4.6477107  34.5267335
  33.8117049   4.9427053  34.1964607  35.1496355   4.5814421  33.6974628
  40.0603853  14.6511762  51.1158506  39.5811171  15.5041632  50.9358301
  39.3811477  14.3021510  51.7713391  41.7387170  12.0796271  39.0434315
  41.5358158  11.7303467  39.8995742  40.8200918  12.2602222  38.6996967
  35.8459507   0.8146068  48.5832058  35.3290803   1.6228383  48.8035669
  36.5128113   0.9095875  49.3075511  25.9763214  11.3858992  42.0932072
  25.3503831  10.9918199  42.8037559  25.4725822  11.1491872  41.3070612
  42.9581530  18.4318563  35.7783769  42.0509719  18.3373094  35.4008090
  42.8820386  19.2904739  36.2028237  27.4466132  12.4869098  39.2789737
  27.4670148  13.3656852  38.8743369  26.5254766  12.3933121  39.5741021
  42.8345980   6.1224644  30.0476956  42.0321785   6.7265080  30.1906737
  42.4859855   5.5597326  29.3254851  31.7615661  10.8716218  36.4010342
  31.8269144  10.0215194  36.8722497  30.8832817  11.1870413  36.5957112
  32.1852843  13.6605200  44.2662101  31.1685372  13.6905739  44.0508511
  32.2211915  12.6712658  44.4872839  34.4106002  68.5207984  50.2879412
  35.2204971  68.9935306  50.6183121  34.5262794  67.6995060  50.8485580
  48.0871495   9.2069770  44.1265586  47.8998732  10.1343506  44.4988794
  48.3599116   9.3588232  43.2476922  56.0387639  12.8671059  41.8010971
  55.2782008  13.4400739  41.7101243  56.8055702  13.4536385  41.8134901
  46.1349938   9.6937884  36.4100646  46.1747129  10.1225435  35.5101130
  47.0667598   9.9822509  36.6946391  35.9898379   5.8598594  44.0058716
  36.8531693   5.5703627  44.3787662  36.2667164   6.0963888  43.0967460
  37.8886336   0.9823776  50.5004136  38.6579865   0.9405769  49.8860894
  38.1654560   1.7382543  51.0545473  25.7250624   7.3807620  42.9280372
  25.8331113   7.4684576  41.9433818  26.5771380   6.9052336  43.0804626
  30.2951971  13.5598826  41.3164518  29.7153273  13.1420604  42.0052793
  30.0587738  12.9143902  40.5737646  33.7665559  17.4769585  57.6113011
  34.2558683  17.6025703  56.7419315  34.5477513  17.1891525  58.1412255
  29.1798272   6.5113115  33.8593726  28.7796404   6.6039096  34.7412500
  29.2700533   5.5110218  33.8718228  28.1937018   6.7981865  21.2037616
  29.0646788   6.4728630  21.5603993  28.2766238   7.7437777  21.4620129
  34.2781629   7.6299338  40.7643112  35.0524170   7.5761243  41.2792529
  34.3274423   6.8032047  40.2506879  22.9759790   6.5238125  38.2187277
  22.6592391   7.1212288  39.0093326  23.2721870   7.2297383  37.6022928
  32.4751916   5.3928219  33.5114454  31.7730554   4.7408917  33.5566295
  32.5290973   5.6260814  32.6141432  35.4029876  -1.1628638  42.1577257
  35.8437803  -1.8755958  42.7208545  34.4920693  -1.5502998  42.1673451
  42.5052510   2.2361584  30.1031868  42.8359378   1.9994055  29.1725086
  42.7721502   1.4187927  30.5757885  33.7296300   7.4037546  32.1133292
  32.9641581   7.8008813  32.6793016  33.9490800   8.2653418  31.6676300
  43.4277400   4.5317683  32.2109780  43.5402737   5.3048010  31.5837874
  43.3369773   3.8446421  31.5525468  25.2972289   0.8815442  42.4277157
  25.5872194  -0.0290920  42.7759053  24.8667038   0.6080555  41.5748258
  42.5969694   9.2241828  36.2886884  41.8088095   9.3664707  36.7585360
  43.2844896   9.4856219  36.8852251  10.6431005  58.6216355  35.5965551
  10.3528534  59.3454420  36.1995017   9.9181903  58.5897329  34.9767639
  32.0227211  15.6428515  40.7449378  31.3113384  14.9182733  40.7822346
  32.3491889  15.4466429  39.8081134  34.6377141  15.1726632  53.3433062
  34.9407964  14.3836030  53.8587492  34.7416118  15.8560352  54.0483959
  43.1810508   7.2906275  45.5164592  43.0427428   6.9226051  44.6549407
  44.1260136   7.5745258  45.4054720  36.0834811  -0.2616303  34.9471113
  36.1925902  -0.8903217  35.7214730  36.9132636  -0.5143074  34.4976537
  16.5070622  71.8497003  42.8113934  17.2074391  72.1314661  43.4372290
  16.4663150  70.8919751  43.0733908  46.0617401   7.1941149  44.6096210
  46.8380431   7.7559468  44.3181673  45.8384252   6.8110690  43.6530072
  42.7572731   3.5832406  48.1235335  42.9738572   2.8328920  48.7216638
  42.4297311   3.1856089  47.3268251  22.7311619  64.8269711  42.2315201
  22.0548792  64.5111004  41.6665260  22.4007375  65.7153263  42.4918713
  40.8450993   7.2507225  33.1495128  40.3819716   7.9491694  33.6634712
  41.7732111   7.6425823  33.3073225  45.1527878  12.7012055  42.2813370
  44.8984974  12.5770725  43.1923199  45.0199905  11.7947404  41.9410220
  40.5416823  13.5228407  22.2700794  39.8346100  13.0081526  22.6237330
  41.1897427  12.9723659  21.9014341  44.9071597  10.5982641  45.4834265
  45.2582683   9.9521982  46.1748295  45.5186520  11.3310508  45.5873287
  23.3165259  67.9886508  32.8787848  23.3728862  68.3111048  31.9000013
  23.6490195  68.7217231  33.3202292  48.4809842  14.8357203  51.2255207
  49.4653214  14.5319114  51.2192677  48.1540577  14.0033471  51.6902242
  49.4636974   8.2862511  46.2624186  50.2863890   8.5087212  45.7732499
  48.7805799   8.5302146  45.6046097  46.6509675   4.1665616  30.4283651
  47.0264612   5.0172343  30.6298473  47.3829979   3.5853050  30.6556204
  37.3678240   7.0490615  26.9495226  37.7831105   7.6642140  26.3380090
  37.3703732   6.2391961  26.3698564  41.7572148  -1.1117682  32.6717042
  42.2232124  -1.9419598  32.8957345  41.8097307  -1.2074676  31.6954001
  38.0275878   2.9611229  40.7252104  37.2331489   2.3616107  40.8911167
  38.6718910   2.2838333  40.4487795  35.9291918  13.0799144  54.5826418
  35.9196285  13.3013212  55.5468427  35.7356591  12.0935582  54.6795313
  42.4122950  12.8357279  25.5746592  43.3471743  13.1844383  25.3737828
  41.9268750  13.6619086  25.2600057  47.7315821  11.8542039  45.0842928
  48.0150726  12.6929185  44.7032965  48.4409896  11.7279610  45.7775007
  44.2595634   7.6964444  39.3611457  44.2106197   8.6568958  39.0473023
  44.8696849   7.4402427  38.6081411  61.9909447  42.1037646   2.4695128
  61.3493404  41.5468902   3.0239424  61.3099501  42.8277154   2.2529074
  20.1880912  16.4690360  39.7498894  19.3016137  16.2848384  40.0638125
  20.7198094  15.8187627  40.2272433  50.0416246   5.8140595  47.6265450
  49.1268046   5.4121676  47.4855167  49.9685500   6.6502379  47.0909679
  49.9295200  10.7292998  39.0665593  49.7392007  10.4959016  39.9568073
  50.8098813  10.2815660  38.9077448  46.9794005   9.5236827  40.6890823
  47.2008731  10.4035141  40.9781600  46.3263436   9.2473981  41.3581047
  40.8324896  12.9480007  28.2970889  41.1589521  13.3584171  29.1048162
  41.4993273  12.3894259  28.0024828  52.1839743  11.7154797  35.9848940
  52.3414059  11.5380386  36.8824454  53.0723930  11.4671465  35.6232836
  47.8608097  14.8249684  44.3651966  47.4263737  15.0062753  43.4437368
  48.7752817  14.6480560  43.9987010  43.3688686   8.0589589  34.0372796
  42.9067460   8.5123179  34.8064631  43.8607612   8.8244598  33.6399048
  21.3837162   8.6487073  43.9933557  21.9983533   8.2309273  44.5693201
  20.7545440   9.0598310  44.5217492  30.5292339   3.7498395  25.2512846
  31.4664940   3.9574819  25.2489825  30.2951618   3.9829484  24.3015235
  24.2307360  68.2942793  39.2010031  23.8948651  68.1476316  40.1065741
  23.5076474  68.8018356  38.8623231  78.5579664  64.6204363  49.8019978
  78.6579039  63.6875986  49.8625519  77.6692204  64.7585222  50.2381559
  57.6385395  23.5961135  40.0342721  57.7671648  22.7875405  39.4608501
  56.7649400  23.6006293  40.2768593  49.9738957  11.4911284  42.6219938
  50.1372494  10.6295474  42.2091419  49.2018256  11.8264262  42.1744859
  56.8271999  22.6052144  46.3641217  56.9641676  22.2085317  47.2766724
  55.8574818  22.4454141  46.2239052  47.6770051  12.1436398  41.1074558
  47.6971796  12.4947021  40.1734611  47.0282956  12.6702983  41.5635277
  54.6532784  20.9451849  41.3389882  54.2280988  20.1374942  41.0289756
  54.7170971  20.7263284  42.3116794  54.5397375   6.6763314  28.6011079
  54.4659703   7.3733553  27.9236946  54.5060400   7.2023050  29.4192873
  56.6802667  22.5436983  43.5239337  55.7947179  22.8618594  43.5575850
  56.9123099  22.5309906  44.4803076  52.0896572  18.7871663  44.6753393
  51.2976423  19.2272002  45.1241316  51.5400210  18.1609634  44.0815322
  54.1396897  20.2193036  37.9531329  53.5529528  20.7524108  38.5385179
  54.0956852  19.3852576  38.4375687  63.3373553  16.4135254  35.3298206
  63.0431738  15.6612051  35.8961880  63.3344027  17.1862155  35.9206110
  56.0625291  24.3723178  35.5072966  55.6413463  23.5076731  35.6668107
  56.8304339  24.0799239  34.9847841  62.2657990  40.8363052  39.6733495
  61.4617190  40.9407292  39.1377209  62.5393175  41.7527173  39.8390640
  67.4494735  45.1322602  42.2890351  66.9322352  45.2880497  41.4498147
  68.3023665  45.3829376  41.9555576  52.9835343  36.2261157  28.1885186
  52.9620180  36.0014886  29.1296240  52.0769195  36.3696427  27.9278801
  63.4237398  35.6769264  35.7867005  62.8360768  35.3163612  35.1011720
  63.8236518  34.8270315  36.1011785  63.7091853  38.5378872  39.8445845
  63.2759725  39.3944630  39.7897593  63.6547046  38.3002407  40.7643945
  67.0964014  47.0187802  37.6367010  66.4397704  46.4467973  37.1526020
  66.5642665  47.1007311  38.5109216  68.9398369  40.4209282  37.1161281
  69.5746230  40.1914788  37.8365240  69.0845920  39.5809966  36.6110039
  67.1029505  34.4527053  38.4718364  66.8378280  35.2037252  39.0481917
  66.6714010  33.7288767  38.9321508  67.0854189  46.4966002  44.9382641
  67.0600574  45.8175859  44.2784585  67.1089318  46.0579307  45.7758209
  68.7909626  42.1032452  44.2311729  68.9143493  42.0981735  45.1977717
  67.8904206  42.5125376  44.1431236  71.1515380  37.1433982  22.7198415
  70.5622011  37.9062065  22.7153475  71.1462927  37.0345977  21.7216407
  65.4435526  39.1753013  37.8706228  64.8133245  38.7940874  38.4992165
  66.2644510  39.1740777  38.4659699  75.4079286  33.9024907  33.6004614
  76.3634884  34.1714742  33.6612616  75.5343618  32.9530883  33.3855171
  69.0297317  31.8428188  27.4714495  68.7696678  31.3331205  26.6962277
  69.3579746  31.1015366  28.0667860  60.1959688  51.8745503  30.3616063
  60.3650060  52.7941371  30.0891084  60.7965743  51.8263938  31.1133086
  58.8307890  49.7329398  37.1766273  59.1620251  49.1892864  36.4086906
  59.6654489  49.9841564  37.5554248  76.9379789  37.2239365  33.2423263
  76.1533354  36.9024183  32.7566062  77.3183747  37.7252170  32.4011109
  66.3777622  51.1687341  32.9362591  67.2367287  51.5229003  33.1329429
  66.1667947  50.5259209  33.6471093  66.5469298  42.3529613  33.5530731
  67.0104117  42.8025240  34.2756041  67.0502605  41.4695981  33.6428027
  69.4494019  54.4105691  45.7704137  70.3009586  53.9338645  45.6982920
  69.4062936  54.9249177  44.9652570  64.5700454  56.5385138  37.6673200
  63.8360588  55.9746629  37.2561696  64.3952176  57.3429313  37.1871853
  60.5127551  45.0489928  39.9003869  60.3184647  45.5422517  39.0553828
  61.4312757  45.3581554  40.0646408  63.1730837  40.1478528  29.3485981
  64.0680236  40.4586890  29.0718498  63.0093610  40.7019917  30.1434773
  68.6782547  33.9837562  45.0588053  68.0176395  33.6801148  44.4357236
  69.2944786  34.4488056  44.4694027  66.9676383  38.8835416  35.2027086
  67.3613014  38.0171882  35.3237717  66.3518212  38.9314307  35.9492191
  55.9398866  46.6764020  51.0179518  56.7160626  47.0691878  51.4309404
  56.3684750  45.8788959  50.6612342  70.3993510  34.7906510  32.3014018
  70.8023942  34.6452463  31.3918904  70.7353470  35.7360309  32.3839369
  59.4923942  43.7299764  33.4558580  59.9671672  42.9752459  33.0653126
  59.4425612  43.4629738  34.3978894  64.3218029  44.9309266  44.2226453
  63.8860836  45.4132985  45.0399359  63.4787951  44.5290186  43.8952966
  70.0862935  46.9354610  39.4254845  70.8912493  47.4805370  39.3995097
  70.0109154  46.7304331  40.3871482  56.7504713  50.8688438  38.2444318
  57.3725276  50.3335698  37.7346623  56.7604698  51.7009554  37.6833337
  65.4209394  43.6125472  49.3616452  64.8859664  43.5299688  50.1459207
  65.6446586  42.6962989  49.1850520  69.0922464  40.4288565  41.8216237
  69.5749679  40.9618391  41.1569244  69.0721261  41.0627384  42.6075321
  66.1949936  35.6577531  27.1536620  65.2703199  36.0995249  27.1249424
  66.3155582  35.7781886  28.1399766  59.2194895  37.3847899  30.2344172
  58.4393214  37.2029990  30.7938815  58.8678996  38.0612755  29.6693253
  62.3224432  54.2793740  41.5229569  61.4636117  54.5810773  41.2210200
  62.9318911  54.4706578  40.7641746  73.8884497  52.7275753  29.8498437
  73.1294123  53.3496857  29.7960369  74.5037874  53.0977951  29.1872784
  63.9278053  46.1647119  29.6755785  63.5200326  46.5910540  28.8659704
  64.7591561  45.7956959  29.2351796  68.8074851  48.2707400  32.7003493
  68.1039638  47.5687748  32.6777207  69.5887245  47.6845229  32.8221726
  63.5801215  45.6036686  40.0874059  64.3688309  45.0498996  39.8966525
  63.9834368  46.1700588  40.8013236  69.7657813  37.2144474  38.2010666
  70.3905210  36.9268468  37.4506533  69.1156740  36.4471917  38.0946674
  76.2013814  38.9338580  44.0902823  76.9342664  39.5496112  44.2562622
  75.7385935  38.8854345  44.9568023  63.8708502  36.6989162  27.5922803
  63.6560227  37.2404543  28.3870227  63.2823548  35.9207074  27.7518352
  68.3851351  33.3345384  50.5665153  69.0518706  33.0833650  49.8902069
  68.9553111  33.4792042  51.3350574  57.9960942  44.8267409  26.0589600
  58.6614633  44.9137925  26.7265149  57.9816249  43.8253713  25.9939676
  61.9127473  41.8356928  36.5872599  62.7781517  42.0247244  36.2070042
  61.6301021  40.9802638  36.3034954  59.7489814  51.5437791  34.5652799
  60.0407368  50.7383753  34.1604928  58.8233332  51.6220181  34.2391246
  65.9762204  32.8059593  46.2034434  66.6092101  33.5342914  46.4481526
  65.1952708  33.3279543  45.9448423  57.9794960  34.0350210  29.3122034
  57.4373723  34.2126871  30.1146942  58.8786292  34.1914008  29.6737979
  62.9822088  37.7333917  42.3240133  63.6721186  37.1184042  42.7226539
  62.4991814  37.8998330  43.1870775   1.8831110  46.5741897  37.9464473
   2.3207094  45.7431358  37.7193177   1.3623988  46.5955140  37.0657404
  64.5869909  41.5519811  45.7114654  63.8970603  41.7396150  44.9598682
  65.2997269  42.1851976  45.4130588  57.2987080  36.7805762  32.1410359
  56.3367924  36.7694320  31.9627686  57.4623363  35.8199581  32.2344550
  56.7179544  32.1897993  27.8074252  55.9850876  32.9043424  27.7521794
  57.3402169  32.7477153  28.3484385  72.2550049  30.0444320  45.1628422
  71.4242328  30.0613343  44.6362372  72.8473158  30.5215100  44.6375292
  64.5297874  30.9444131  50.2919909  64.3615220  31.8136927  49.8744906
  65.5241695  30.8801822  50.0546317  65.1785485  38.7119641  25.2617516
  65.9356999  39.1327491  25.6905958  64.7515414  38.2656542  26.0011002
  63.0638954  44.6314920  23.1945549  63.3386127  43.7346586  23.6497316
  62.0737366  44.4583822  23.2024755  75.1486196  44.4018352  43.0483093
  75.6495325  43.8125327  43.7043150  75.8238703  44.4832335  42.3980134
  76.6306717  41.9317280  41.6493407  75.9510313  41.8702836  42.3083428
  76.4815223  41.0791438  41.1812233  72.1648692  57.3548998  27.4260134
  72.4357621  57.8577427  28.1989279  72.8139067  57.6614715  26.7390663
  77.3055632  30.3571693  40.3595327  77.4198917  31.3532966  40.4709956
  78.2815025  30.1636565  40.2223541  55.8903704  52.6546002  44.2094594
  55.7148412  52.3592495  43.2779557  55.5544667  53.6065451  44.0463749
  76.2568893  54.2053188  37.9125339  75.4204566  54.5152417  37.5071625
  76.7444640  54.0352227  37.0690587  73.3020395  48.5300622  43.0112673
  74.1498314  48.6317382  42.5098662  73.5512415  47.9223211  43.6959702
  59.2570511  55.4116008  34.2495496  58.5453962  55.1259773  34.9048831
  58.8769840  54.9136881  33.4471051  49.4766052  56.3862261  50.0834160
  49.5495010  57.2941785  49.9189821  50.3772525  56.1495093  50.3142035
  67.0874345  44.9796418  47.5053328  67.2746542  45.8352677  48.0131460
  66.4447868  44.5524346  48.0912161  73.4444085  66.0116299  30.0796180
  73.5936316  66.4906090  30.8812748  74.3164948  65.9353384  29.6921582
  72.0069924  70.0724073  37.2596270  72.8971704  70.3620142  37.3858033
  71.7132755  69.8294841  38.1611791  60.0698840  66.4392067  50.6862662
  60.0884357  67.2942645  51.1673620  60.9841067  66.1505827  51.0323735
  64.9852951  46.4654221  42.2776443  64.7177138  45.9129965  43.0674030
  65.0043160  47.3270514  42.6782607  67.5968498  53.0238061  16.6674105
  67.2903043  53.0901612  17.6095186  66.7792311  52.7966387  16.2454856
  69.8961196  60.3432880  39.7822720  68.9551236  60.1993991  39.6140950
  70.1795400  60.7055191  38.8792422  74.7092255  57.4995541  18.8933876
  75.0786446  58.2293379  19.4417026  73.9656780  57.2054785  19.4523501
  73.4720384  51.1580313  43.8925709  73.2194742  50.2193793  43.6674558
  74.3777990  51.0540624  44.2879022  60.7712243  49.7390374  49.1040797
  61.6016245  49.2726317  49.0649487  60.1234189  48.9843983  49.2195290
  62.2899384  56.8577446  34.6046306  62.1128298  55.9358141  34.6549612
  61.9766367  57.1162234  33.6940464  73.0409413  39.7040442  45.4271967
  73.7748396  39.3893774  46.0047182  73.2376226  40.6977852  45.3922128
  72.4532373  54.9281914  29.6925325  72.9183044  55.6195865  30.1318758
  71.6429550  54.9004292  30.2643626  75.3230252  65.1738060  57.0839761
  75.2969901  65.4455426  58.0125709  74.4932357  64.5918170  57.0609077
  73.8880611  56.5857978  43.1032348  73.2717740  56.5558476  43.8488101
  73.2818650  56.1007633  42.4676667  67.1915749  51.2518147  50.2433518
  67.6735594  50.4223079  50.6132152  67.8444028  51.8670094  50.5966773
  71.6328980  65.7099604  25.4939228  71.2060602  66.0567690  26.3314688
  72.4222051  65.3104388  25.8773602  57.9136853  60.3301260  42.0228178
  57.2302159  60.6358498  42.6157112  57.9569617  61.0528101  41.3444787
  55.9087899  57.5972606  49.2837950  56.8174568  57.3908156  48.9669624
  55.8856430  58.5765664  49.1789263  71.5217130  50.4037740  46.6504638
  72.3617777  50.7496178  47.0062887  70.8284491  50.9087153  47.0244210
   3.2533168  42.4325646  27.4034775   2.6916430  42.9739474  28.0116165
   2.7675737  41.5634661  27.4578341   2.3564237  65.0104658  35.0691416
   1.9643631  64.7713245  35.9489470   2.1016540  65.9785066  35.0408964
  66.2233902  69.4606637  43.5340799  66.1594367  69.2872169  44.4734777
  67.1313305  69.4635300  43.3079145   3.2146496  40.6812035  47.6319133
   2.6630329  40.0254371  48.0269954   3.2136115  41.4449090  48.1900047
  67.0969005  54.9154082  51.9426252  66.2656541  54.8420407  52.4490109
  67.7175912  54.5105063  52.6090089  75.7208061  49.0014418  41.8631659
  76.2171510  48.6101302  41.0997404  76.4422701  49.5439985  42.2325652
   7.2053428  68.5899469  35.7322904   7.5171005  68.4720801  36.6521928
   6.2386862  68.3726289  35.8071423  69.1762516  62.5451234  44.3196049
  69.0897217  62.8037285  45.2934013  69.3915035  61.5567871  44.5334276
  68.8374203  56.6723421  53.8277820  69.5492391  56.2095022  53.3394331
  69.3642967  57.3826439  54.2032029  63.3435270  40.7670327  43.4208199
  63.3707179  39.8710770  43.1414988  62.4680566  41.0230165  43.0773325
  66.1082155  47.9380593  40.0092047  66.9685880  48.4567125  40.1650502
  65.9997094  47.6683588  40.9721075  54.7613510  46.8987918  45.1692639
  53.7502028  47.0499666  45.0271295  54.8288844  47.1043112  46.0843564
  60.8193108  54.2529971  29.4294532  61.8441248  54.3059334  29.5211234
  60.6227099  55.1713072  29.7446264  53.1098748  55.9107504  45.7685147
  52.1549365  56.0426702  45.8694910  53.3848385  56.8656963  45.8465326
  67.9399851  63.1985194  51.3913127  68.3657589  62.7792926  50.5705220
  68.7864997  63.5286920  51.8580801  55.7308363  51.6027276  29.7075115
  56.1139905  52.1170854  28.9421024  56.5100176  50.9584710  29.8574793
  57.8407501  54.6744270  42.5690283  58.6834416  54.2774805  42.2244136
  57.9866693  55.6077469  42.3042195  71.9310385  42.0695510  48.2777579
  71.0858271  41.7319982  47.9529951  72.1571275  42.7437477  47.5942552
  11.0742074  42.1839434  36.4928615  10.7025880  43.0719355  36.1721187
  10.2487314  41.8726743  36.9117744  61.0461272  53.1224880  43.8495299
  61.4704753  53.6587617  43.1418594  61.2691948  52.2352050  43.4841217
  58.4655710  59.4368541  34.3906017  58.8650338  60.2791771  34.7043462
  57.5166999  59.6208365  34.6010329  61.3677799  60.6351389  40.1537044
  60.8508149  61.4360426  40.2948262  62.2107702  60.8319704  40.5635231
  61.6589500  49.7771134  40.1261041  61.6101087  50.5460491  39.5486507
  61.4928939  49.0448917  39.4891334  59.1109911  59.6124075  47.2743983
  58.8803945  58.6607396  47.3742125  58.2137498  59.9090742  46.9439933
  74.6108996  67.8364048  45.8848150  75.3086521  67.3752041  45.4317092
  73.7949330  67.4061396  45.5725575  61.2890993  63.8362055  40.0722155
  60.9944120  64.7939529  40.0359918  61.3369447  63.6164497  39.1382757
  60.4820739  70.2149890  48.3730686  59.8533732  69.5454183  48.0882413
  60.0439836  71.0615495  48.0549958  64.8495907  66.3453952  43.3805502
  64.2951098  65.5244417  43.4467142  64.2928891  66.9320256  43.9294151
  73.7833098  52.2129463  47.5034297  73.6157351  51.8781962  48.4277976
  74.5131563  52.8742346  47.7414518  75.9426447  61.1296899  29.1743069
  76.8153722  60.6837318  29.3094535  75.5069786  60.7153524  29.9788304
  63.3737950  58.1393558  41.7117308  64.3369363  58.4565415  41.6640996
  63.4866263  57.2324542  41.4042276  72.5830557  45.1577345  41.4890817
  72.4738549  44.2744659  41.1408794  72.9552770  45.0101514  42.3889506
  68.9099149  42.5268128  47.3204461  68.5903692  41.9909271  48.0911574
  68.3011346  43.2878059  47.3080801  78.3705698  57.9435381  36.6274875
  78.0839002  57.3067819  37.4281390  79.2165990  58.2632577  37.0365072
  69.2688305  58.6247802  42.0438765  68.2557408  58.7546180  42.0461672
  69.4854624  58.9746861  41.1749679  65.5981076  61.0911861  29.5832704
  66.1044835  60.3924669  29.1493087  66.2552053  61.6197721  30.0375598
  73.5315351  64.6789411  51.1358188  74.4792760  64.4064571  50.9004300
  73.5118313  65.5504596  50.7063963  63.0501715  47.1056774  37.8792286
  62.9746654  46.3437478  37.2598569  63.0388732  46.5872367  38.6980051
  67.9961450  49.1220795  41.4050277  68.9438668  48.9168044  41.7390457
  67.5251939  49.0640615  42.2481415  62.4841968  45.0616867  31.8851889
  62.9749672  45.3033874  31.1008003  63.1457980  45.1764487  32.5915465
  62.0489912  44.3164829  43.1669607  61.1529229  44.7488220  43.2506455
  61.7330792  43.4261049  42.8169017  68.2192213  66.0776534  22.9588553
  68.0130591  66.8459815  22.3244411  67.8886156  66.4076458  23.7464300
  68.3292802  65.5366498  39.5864961  68.0017475  65.7901239  38.7397072
  67.9515527  66.1863510  40.2069469  74.4770319  55.4344627  56.6408000
  74.4380186  54.7537574  55.9761382  75.1004476  56.1071261  56.2247538
  67.8815802  43.9457486  35.6483641  68.1031524  43.5625073  36.5269448
  67.1236792  44.5438917  35.8601189  69.1258448  55.6245319  39.4367571
  68.7809734  54.7695930  39.6291529  68.3090134  56.1594289  39.3771424
  68.1440307  60.3404082  27.2014685  68.0055811  59.8854652  28.1062107
  69.0621354  60.0129500  27.0297165  72.3038096  49.5673386  22.8759757
  72.1630316  48.6258967  22.6534513  73.2688979  49.6423178  22.7663054
  69.5337860  61.2821327  50.0858280  69.6875500  61.3018983  49.1126374
  70.2858250  61.7555827  50.3458129  65.9960559  44.0028558  39.8026043
  65.7485063  43.1111956  40.1688984  66.9048458  43.7957725  39.4944403
  57.3161723  49.0134295  42.8338790  57.2116991  49.1321812  41.8818373
  57.9941588  49.6678128  43.0749074  71.6858943  49.7851180  39.4704535
  71.2750110  49.8375018  40.4029382  72.5001150  49.2649801  39.7114673
  64.7249602  53.1953484  35.6085255  64.7942759  53.4164183  34.6781660
  65.6378871  52.8129743  35.7525816  72.1404883  52.7785470  39.4167855
  72.7219171  52.3469077  40.0189964  71.6081901  52.0166186  39.0775251
  64.8312469  61.4838895  34.2513476  65.7220970  61.8947911  34.4954803
  65.0683187  60.5286231  34.4403873  63.1070702  48.5962705  49.5352337
  63.4590548  47.6959429  49.4514043  63.9539679  49.0740867  49.7296719
  62.3181970  59.8212522  28.9088482  61.7383163  59.9298433  29.6201284
  62.4464237  60.7539816  28.5645828  60.1132502  54.4415302  46.1101765
  60.6483581  55.2967458  45.9863134  60.6215309  53.8516651  45.5273240
   2.4536625  50.9259247  36.2308828   2.1968799  51.1145972  37.1790394
   1.7626769  50.3070051  35.9955153  66.0551329  68.5937862  46.1201010
  66.6319456  69.0027706  46.7787488  65.2353501  68.4072224  46.6912897
  76.1572018  61.6797947  48.8536718  75.8719310  61.6823487  49.7818381
  76.0192985  62.6067569  48.6051883  59.7829935  53.1483128  36.7716759
  59.0329439  53.7818864  36.6484050  59.4580330  52.4572054  36.1490117
  57.3187010  46.5903489  44.2112049  57.3228017  47.4668527  43.7766963
  56.3856283  46.4955576  44.4649538  67.8673150  53.1108969  39.5445335
  67.0641736  52.4814459  39.3590178  68.1980838  52.6782557  40.3494754
  76.6107782  54.8047043  54.2283159  77.3617888  55.1668046  53.7006122
  76.4596901  55.6637043  54.7663278  62.9290481  53.0113594  48.0090754
  63.0302401  53.0168952  47.0580235  63.2341571  53.8887825  48.2695285
  74.1951814  46.6611392  44.5577152  74.3424912  45.7802919  44.0744241
  73.5176273  46.2967870  45.1927866  71.3536215  52.7343467  42.2740712
  72.0105396  52.0029242  42.3325066  70.5436834  52.1931908  42.2211510
  56.3136510  71.5562478  44.9087276  56.2579637  71.2707238  45.8591650
  57.2499874  71.3403858  44.7117875  64.3324647  74.5323074  26.9636228
  63.8953732  73.6662332  26.7454785  64.9311510  74.5993752  26.2178960
  68.1595543  55.8217634  47.8077556  68.4729171  55.2252350  47.0438418
  67.1646044  55.6263728  47.6269963  58.5107419  52.4301422  40.1098994
  57.7108231  52.8762762  40.4544498  58.1182669  51.6451657  39.6439337
  69.5391123  57.2327570  26.4092322  70.4252571  57.2492399  26.9183890
  69.0353295  56.8355781  27.1836661  74.3577121  41.6342707  36.8282095
  74.2710157  40.6441910  36.7773865  73.9436247  41.8689929  35.9445135
   2.3316667  61.3189964  56.8308554   2.5088722  62.2839932  56.9321305
   1.3724351  61.3502573  57.0909774  74.0040389  47.0483814  33.5298179
  73.6973252  46.2109395  33.9591481  73.2314559  47.2999020  33.0094712
  13.0624805   2.4587106  47.6348847  13.8369620   1.9616572  47.3113125
  13.4115059   3.3615865  47.7009064  64.0106109  56.8913922  23.6231616
  63.6008283  57.2840939  24.4211426  63.6402867  57.3536682  22.8903727
  67.1708378  61.2467166  46.4590617  67.2455263  60.5984468  47.2053738
  67.7953226  61.9319385  46.7794498  58.5033910  51.6406962  44.0364239
  57.5681282  51.8738753  44.1930783  58.9806854  52.4439093  44.1011156
  69.9384453  60.0946893  33.5661223  70.1509150  59.1635780  33.7776425
  70.8032179  60.4363298  33.2745113  38.2768041  33.3151222  82.0675387
  39.2482766  33.2341125  81.8984861  38.0133107  32.7936987  81.2046697
  60.1265783  46.0919407  37.3823916  60.7109496  46.7992955  37.0148117
  59.3458658  46.3204914  36.8332102  76.2526956  51.5794263  38.8845331
  76.3995968  52.5080000  38.8161300  75.6206104  51.5262302  39.6350475
  66.5985858  58.3935028  41.4731868  66.3668825  59.1609148  40.8883931
  66.6203424  57.6454309  40.8185325  64.0311862  64.2012758  17.7241524
  63.6228051  64.7211835  18.4561628  64.8356324  63.8899602  18.1602987
  61.6495632  56.7527510  45.7339983  61.4567090  57.1638153  44.8601524
  62.5536966  57.1311077  45.8732936   4.0518366  53.2758192  33.0921815
   4.9769566  53.2246006  32.7233607   3.9622802  52.3606804  33.3974327
  63.2916209  55.8431270  48.7205536  64.0640339  56.4565522  48.6756604
  62.6014131  56.4486734  48.3732836  76.4539147  54.9476192  46.0307060
  75.8552516  54.9355800  46.8012077  76.6940299  55.9062028  46.0566560
  66.3782695  48.5407214  30.4489521  66.6542984  47.6855846  30.8143850
  65.8185350  48.8763544  31.1940153  77.9391024  55.6407324  48.7072541
  78.2880984  55.1594094  49.4890961  77.5305212  54.9188458  48.1811876
  73.9610212  58.8908751  50.7702458  74.2888214  59.7039463  51.0812296
  74.4657030  58.2267030  51.2796519  58.9137604  61.8199290  35.3514609
  58.7756964  62.3207666  36.2494268  59.5334397  62.5046304  35.0049621
  68.0362885  52.2032449  55.5968738  67.2728438  52.6634076  56.0380938
  68.7352517  52.3782225  56.2385943  66.9033775  57.5030759  50.9963086
  67.0135271  56.5201533  51.0336043  67.3902949  57.7073985  51.8262891
  58.6882604  68.3426522  46.8294489  59.1982400  67.5122475  47.1532445
  57.8263665  67.9706860  47.1327064  66.4865378  48.7103581  43.7578791
  66.1501900  49.1556686  44.5393895  66.7351003  47.8579055  44.1469850
   1.8298910  67.2679124  40.7534143   2.3697191  66.5536371  41.0616359
   2.5288173  67.8785071  40.4205089  65.7557481  51.9394136  38.5574962
  64.9215139  52.5370398  38.6261938  65.2844690  51.0805147  38.5155785
   5.7366017  63.0422282  39.7332357   5.8589864  63.9775748  40.0500874
   6.1392259  63.1459192  38.8179427  53.7030633  51.8406507  37.2591053
  54.3875647  51.4867815  37.8122565  54.2354632  52.3162192  36.6147479
  71.9746678  59.1233954  38.2444978  72.6929307  58.5945278  38.7313898
  71.2617758  59.0823008  38.8395076  67.3789002  47.1707993  49.2777424
  66.4009598  47.2642020  49.4490565  67.7127024  47.1640650  50.2271740
  68.2640075  51.7824169  45.1482161  67.5601914  52.2091603  44.5113232
  68.7468957  52.6522139  45.2816247  70.1890044  47.2739603  44.6659517
  70.3114211  48.1876352  44.8593653  69.2366683  47.1537287  44.7715949
  60.9039899  57.9517843  40.3644329  60.9316419  58.9227461  40.1112478
  61.7792995  57.9140038  40.7826385  69.6205799  63.5631781  35.5239692
  68.9560977  64.1076856  35.9734404  68.9714312  63.1773842  34.8419140
  67.0112702  52.2475011  36.0581815  67.7932793  52.7283313  36.3349345
  66.5707502  52.1466920  36.9181924  76.5604094  56.8203840  43.0382507
  75.6060627  56.7607638  43.1140977  76.8051719  57.0199348  43.9840766
  72.1412378  47.4464102  47.0851236  72.3793149  48.3330743  46.7873059
  71.2015045  47.6162065  47.3678299  67.5187213  54.4411856  32.8536431
  68.0883421  53.6435591  32.9768819  67.3028561  54.2900714  31.8856449
  64.3648434  54.5618306  43.1899247  63.6984033  54.2007058  42.4448553
  64.9571478  55.0250133  42.6357796  72.4066067  63.7431286  38.6006458
  72.3834881  62.7682102  38.7815428  71.9140632  64.1113962  39.3326424
  62.1226251  40.2422373  49.1955252  62.8185030  39.8839241  49.7454913
  61.3713303  40.2515978  49.8878910  64.9398394  49.2405528  46.3648466
  65.7946916  48.9687777  46.7917378  64.5884326  49.6821709  47.1972488
   2.2254198  46.4978947  45.0164769   2.9803898  46.8122915  45.5170044
   2.1646589  46.9108165  44.1853554  39.0818622   4.7644615  42.1803544
  38.6944423   4.0834848  41.6065656  39.9209118   4.8878926  41.6702053
  71.9878091  53.1995548  45.6658330  72.7137885  52.8329302  46.2442874
  72.2013526  52.6258777  44.8936870  70.9223828  41.1824633  27.6670062
  71.4382554  42.0346352  27.4742089  70.5201794  41.0218193  26.7744064
  71.9601225  41.5751828  41.0364499  72.3708195  40.8776824  41.6216990
  71.6303448  42.0960561  41.8461938  78.0370458  55.5188081  41.2911724
  77.4733257  55.9596947  41.9857633  78.9041571  55.9712117  41.5197632
  33.8087865  -3.2373742  28.9727825  34.3425800  -2.9313165  29.7815436
  33.5535714  -4.1156340  29.3067947  56.0809404  63.1074081  45.9597805
  55.6025616  63.3145797  45.1389849  57.0017466  63.0579311  45.7388723
  70.8654068  63.6595259  42.6625120  71.2238423  62.7631389  42.7614039
  70.0675056  63.6730409  43.2079537  77.2334220  62.7001361  41.0977512
  77.4412006  61.7788278  41.3510308  77.9203156  63.1780230  41.6108124
  55.6754035  61.0295255  43.8930362  54.8635081  60.6447110  44.2920428
  55.3664619  61.9737026  43.7028701  56.6296644  58.9569663  55.1081892
  57.0032960  58.0994848  54.8234328  57.0840091  59.5743545  54.4370832
  64.7010008  61.9798355  43.1623270  64.8261346  61.1292435  43.5198409
  64.2306322  61.7658289  42.2843936  60.3024226  68.6573785  40.9560171
  61.0985498  68.3090989  41.2148387  59.6434036  67.9597345  41.0073711
   4.7800621  61.1803780  43.3262106   4.9289987  62.0178173  43.8564744
   5.6666589  60.7647803  43.4980783  71.3086895  65.4297427  56.3498222
  71.9914349  64.7995089  56.6771993  70.5386242  64.9004259  56.1344254
  64.4417430  54.0525867  33.0947466  63.4591147  54.0751858  33.1920784
  64.5746300  53.2826652  32.5384056  75.4946835  50.3529089  51.9973924
  75.8168903  51.1892289  51.5778176  76.3771429  50.1540874  52.4900756
  75.8687685  50.4390416  44.8389741  76.3933118  51.2751734  44.7906775
  76.3862589  49.8280626  44.3109054  76.5103086  50.2109422  47.4678720
  77.0861611  50.9751242  47.5624763  76.1633616  50.3851676  46.5202872
   3.6431385  55.4618597  36.0053141   3.5462935  56.1572042  36.7051180
   4.2690269  55.9135612  35.4273712  70.8407272  51.3683088  53.9216588
  70.4757076  51.1204238  54.7736586  71.7029994  50.9195590  53.9068664
  65.8927697  55.5226872  46.6459145  65.0840183  55.9929009  46.8783486
  65.5016842  54.6257287  46.4530513  65.2525513  41.4868403  40.5220068
  64.7482441  40.8720744  39.9396825  64.9535274  41.2186735  41.4395646
  54.8585114  51.4726296  32.2642894  55.3750990  51.7323351  31.5005008
  53.9562414  51.7795427  32.0397665  67.3920533  40.9403340  52.8919414
  67.7262891  41.0271786  51.9379891  66.8184840  41.7374397  52.9155753
  71.5807102  62.5453355  31.4693227  71.3276806  61.6994502  30.9736932
  71.9801814  62.0426845  32.2126879  13.1883636  55.9788482  38.0527196
  12.3750630  55.9650045  38.6571298  12.7704778  56.4816418  37.2963247
  76.8759267  42.7493173  36.3194282  75.9628760  42.8168436  36.6499672
  77.3101956  42.5583694  37.1711180  57.9648204  57.4996990  41.4099424
  58.8165949  57.7895273  40.9408470  57.8591488  58.2382604  41.9870694
   4.0261494  58.4499659  22.7146505   3.1098614  58.1462008  22.7449875
   4.4417658  57.5409063  22.4313394   5.6554953  52.5460070  37.6118191
   6.3120341  52.9742137  37.0415314   5.2424824  51.9307659  37.0153615
  68.3899084  55.2027257  35.6509530  68.1169552  54.7274478  34.8956618
  68.8859034  54.5961670  36.2018906   6.7569102  49.4760334  41.9098838
   6.0151991  50.0747143  41.9563550   6.9255969  49.4281420  40.9793131
   0.5562036  54.6177373  39.2172600  -0.2337003  54.8675425  39.8210021
   0.0744305  54.6816716  38.3923030   2.5088541  48.3907419  33.0856527
   1.6182520  48.2778998  33.4973918   2.2350848  48.1801297  32.1808644
  66.4261845  52.5766336  43.2474625  65.7645281  53.3309863  43.1397399
  65.7048187  51.9640614  43.6389374  60.9132479  46.4488033  25.5497205
  60.7014373  47.2950260  25.1088029  60.8862725  45.8036419  24.9108813
  61.4847993  60.7514777  45.9543896  60.7833362  60.1027933  46.2692400
  61.1978698  60.9231079  45.0436203  61.1896236  39.1699056  34.7121510
  60.8795265  38.2880419  34.3544851  61.7801441  38.7694570  35.4101927
  71.5680270  52.2539816  34.7671398  71.2494090  52.6677771  35.5708344
  72.4001325  52.7815206  34.6362848  76.0252678  48.5678069  34.2748353
  75.4116882  47.9006241  33.9421138  75.7565730  49.3598169  33.7421863
  68.4575124  40.3445119  33.3071966  68.0823869  39.9387851  34.1371807
  68.3116703  39.6053937  32.7017637  52.1775238  61.6341067  45.7882736
  52.5079221  61.0466475  45.0356567  51.8249725  62.3649422  45.2810434
  64.0547604  56.1046257  40.3117225  64.2664248  56.2120700  39.3392855
  64.8787182  55.6024399  40.5536841  69.2524403  50.3986100  38.3320757
  69.2763834  49.8233078  37.5607249  69.9669208  50.0338523  38.8682924
  60.7040043  63.2883415  42.5793151  61.5147961  63.6082572  43.0465059
  60.9823080  63.6181418  41.6694233  59.3292926  62.9016880  52.9965284
  58.3404614  62.7553494  52.8751114  59.2620672  63.8777958  53.2032297
  67.6789196  66.6316216  44.7120389  67.2146170  66.1671921  44.0342720
  66.9531153  67.2122113  45.0411240  68.6709258  51.8644412  41.8506117
  68.2666119  51.0906138  41.4644919  67.9278609  52.2908005  42.2728392
  10.0842448  50.1909323  21.6517156   9.7557220  49.7722885  20.8064470
   9.3031229  50.2341846  22.2134584  11.5331880  46.5036654  34.4088106
  12.1705200  46.4054166  35.1082484  12.0617927  46.1450945  33.6317302
  67.5028306  69.3331857  40.2860271  68.3944507  69.1853319  39.9284139
  67.7179184  69.2672725  41.2675902  76.0278522  60.2837998  24.4838056
  76.2335136  60.8943955  25.1838679  75.1806686  59.8962018  24.7994543
  74.2166521  53.6377658  34.5866355  74.5407174  52.8542377  35.0878540
  74.1500531  54.2595869  35.3471367  75.7198643  59.7877075  46.6909837
  74.7369025  59.9247501  46.6996694  75.9795913  60.4303699  47.4023036
   9.8998762  52.5216832  45.7090734   9.2772370  52.4128870  44.9748891
  10.6826102  52.9153216  45.1964218  66.3820613  66.6896239  41.1441007
  65.9999239  66.6922935  42.0590999  66.5991953  67.6369670  41.0613710
  66.5177326  71.6653146  39.8546804  67.1585335  71.8345481  39.1136553
  66.8396035  70.7852097  40.1321659  73.4716421  44.9379155  18.7933890
  72.5277872  45.1354435  18.5230631  73.9639744  44.9536560  17.9526388
  59.3439388  43.3664005  50.5371972  60.1579172  43.6318884  50.0244582
  58.7418107  43.2055567  49.7658456  72.7514177  67.8383154  56.8231102
  72.1270966  68.4394958  56.3766936  72.3763696  66.9605283  56.5630710
  70.1221664  49.9571548  44.4969281  69.3453724  50.4917036  44.6665428
  70.6393645  50.0067747  45.3303457  55.3139112  74.4868263  37.5387638
  54.3130311  74.3725778  37.5134809  55.5177590  73.9700522  36.7179602
  64.7140168  68.6917424  37.4069387  64.5458174  68.1300904  36.5663772
  65.3602306  69.3235449  36.9296708  73.9022815  40.9719717  22.2154055
  72.9480328  41.0917311  22.1309782  74.1714542  41.8151174  22.5888941
  20.0382895   0.3384676  41.1596625  20.4681982  -0.5404744  41.4304552
  20.5955280   0.5769390  40.4389595  70.7583676  67.2949590  36.3592862
  71.2304166  68.0291965  35.8742681  71.3132498  67.3790967  37.2453902
  70.5679947  65.4904628  47.0511540  70.4368399  66.0623279  46.2477188
  71.5046523  65.2756168  46.9684745  28.5694284   2.2637979  21.6522973
  27.9824067   2.9187777  21.2977076  29.2514295   2.8527908  22.0866015
  12.3933121  70.0872078  54.5727192  12.1249763  70.6157818  53.7511076
  11.5782575  70.3139692  55.1206288  35.4150761  11.7140077  26.2999057
  36.1262017  11.0247798  26.5198420  35.3817934  12.1685906  27.1256599
  15.8343984  62.2708192  37.6363835  15.2789182  62.9559976  37.1593125
  15.3554746  61.4754635  37.3078731  34.6929223   3.4187938  36.8928816
  34.5450853   3.7861686  35.9863260  34.5318249   2.4699711  36.7705245
  11.9055670  70.3798495  36.4399064  12.0722488  70.6299718  35.4808389
  12.8476545  70.1497305  36.6507625  22.8074746  -1.6812967  28.5362112
  23.0453800  -1.6835514  27.5669887  22.2608739  -0.8606507  28.5421330
  72.9395683  66.0004415  41.8743511  73.5586788  65.2451294  41.8010447
  72.1565335  65.5844113  41.4453420  64.5559459  65.7126972  30.1430734
  64.0054841  64.9097021  30.2131201  65.2050601  65.4251339  29.4673574
  15.5846263   5.7371337  39.4247377  15.9312155   6.6323859  39.6929468
  16.3806203   5.1595418  39.5343388  34.5336356  -3.4832203  40.2707862
  35.4582699  -3.2290023  40.1074179  34.6368694  -4.3860354  40.7211345
  40.6502852  35.6741021  -3.9422943  40.4907293  36.6367532  -3.9406683
  40.4655574  35.5036908  -4.9162498  78.2587324  66.5297168  46.7036907
  77.5548016  66.6367496  47.4328548  77.6621293  66.4450396  45.9161415
   5.9454375  66.3809685  31.0415621   6.8265644  66.1891564  31.4600837
   5.4525263  66.6443433  31.8104700   9.5740535  61.5542706  30.0709768
  10.0158117  60.9720324  30.7272789  10.2115747  61.4694963  29.3516171
  69.7138348  71.7523554  47.2708563  69.9434739  72.7181203  47.1979467
  70.5838713  71.3616149  47.0833229  72.1793200  60.4528757  35.9477577
  71.4992136  61.1115080  36.2317964  72.1506333  59.8940920  36.7861313
   6.6008411  67.7630528  53.5547920   6.0607764  68.3091623  54.1491258
   7.0967729  68.4598140  53.0953771  67.6770094  65.9248696  48.1093631
  67.5747749  66.8750759  48.4492274  66.8077124  65.8682330  47.6899725
  76.7119144  62.4560404  25.9854253  76.6140905  62.0810615  26.9161115
  76.8944757  63.3882218  26.2092217   5.4248228  55.9003373  45.6061779
   5.4338798  54.9793812  45.3470247   4.4689958  56.0846091  45.7943956
  73.4899389  66.8623132  49.7326929  74.3362899  67.2008924  49.9158444
  73.1058279  67.5173921  49.1206406  21.0352290   7.4445594  32.9713200
  20.8816762   7.5561193  33.9650623  20.5030163   8.2429409  32.6592273
   2.6555915  61.4248107  51.2547514   2.1897506  61.8664175  50.4564899
   3.4175180  62.0137637  51.2649155  63.9932523  68.0688368  47.6678547
  63.9428740  67.1518361  48.0383957  63.4743857  68.5426822  48.3832272
   7.4620658  51.1707244  39.7211572   6.8955332  51.5117538  40.4254528
   7.1257497  51.7334300  38.9621413  67.2006740  65.4523201  36.0453979
  67.6548694  66.3365402  35.8782690  66.3212310  65.7324532  36.3306913
  17.5442906  71.1000647  38.8580417  16.9062320  71.7289278  38.5373626
  17.4448272  70.3287517  38.2641676  69.7446490  48.1128111  48.0570336
  69.5273811  48.9581935  47.7486584  68.8095743  47.7773367  48.3089672
  78.7818248  61.2653967  36.9538875  77.9536337  60.8341494  37.1634659
  78.7453393  62.1190082  37.4626666   3.8184464  59.1870148  27.5496455
   3.6659373  59.9232275  28.1288632   4.0784912  59.6167375  26.7221662
  78.5259564  67.0587899  38.9128636  77.9266526  67.6643248  39.4578426
  79.3673661  67.2338310  39.4353298  67.8403917  62.6408741  30.5463293
  68.3707998  62.8989448  29.7701674  67.7073765  63.5676413  30.9360107
  76.4337868  56.8883118  51.1424053  75.8602816  56.1756537  51.3611330
  77.0465982  56.5576874  50.4960893  14.5257384   8.7417973  29.1235452
  14.0688315   7.9326403  29.4788044  14.0588854   9.4120221  29.7164652
   4.7084654  67.6716591  44.1283691   4.8009650  67.3589724  43.1638415
   5.5574550  68.1991965  44.1224769  37.3586585  -1.7633183  22.6240283
  36.4875785  -1.6738756  23.1304938  37.7671931  -0.9757625  22.9954867
  64.0830549  72.7734993  40.0205828  64.9585175  72.2830687  39.9222121
  63.5120131  72.0894123  39.5791463  59.6391582  66.0434018  47.8852012
  60.0300318  66.2074306  48.7630649  59.1125212  65.2395205  48.1375248
  22.5194202  -0.6296872  25.9487252  21.8950784  -1.3915979  25.7350449
  21.9285075   0.1026586  25.7710354  31.5836570  -3.1857321  51.6870981
  31.2048048  -2.8682441  52.5976543  31.4948850  -2.3500904  51.1994043
  74.5440605  60.2717922  41.9822560  73.5875280  60.3713893  41.9836031
  74.6027690  59.3419764  42.2514355  67.6514159  62.0653449  42.1396436
  66.8528401  62.3611674  42.5705086  68.3905169  62.3395901  42.7531992
  67.8647265  58.8364472  29.6009926  67.9010509  59.3296620  30.4453477
  66.8702275  58.5276047  29.7384585  77.4251097  64.6363884  38.5256274
  77.1080921  64.3477436  39.4231077  77.7312927  65.5048973  38.7136161
   0.5282035  59.6262814  45.8796009   0.7135643  59.2474006  46.7891087
   1.3078701  59.3324493  45.3638226  63.1699325  70.8641977  38.4581256
  63.8209269  70.2944148  38.0566444  62.7690818  71.3171214  37.6629880
  73.9383618  61.2555379  38.7008478  74.2579642  61.3167648  39.6164352
  74.0273649  60.3143327  38.5189080   2.8875562  60.3994793  47.9068262
   2.1500539  61.0164003  48.1247315   3.6607253  60.9602804  48.0298508
  68.1202282  61.8268153  23.1411105  67.7402477  62.1400952  24.0096878
  68.5988412  62.6487200  22.8808301   0.5320483  11.8181527  41.4284622
   0.6399657  11.4818438  40.4892013  -0.4348892  11.8533475  41.4405727
  61.4721708  68.9696910  37.2334792  62.2993090  69.3045277  37.6080478
  60.8895669  69.7846485  37.3626500  32.8778448  -0.7883036  33.8010792
  32.9997933  -0.9278666  32.8116736  33.0837561  -1.6764388  34.1245837
  70.1314428  69.4144278  39.6365621  70.5587083  69.6262614  40.4890265
  70.6232857  68.5963580  39.3687226   5.5752118  59.2893506  55.3345596
   5.0475602  59.9067524  54.7647031   5.7580923  58.6424714  54.5677656
  25.1228397   0.6370310  37.5352931  25.7913949   1.3351449  37.6669482
  25.6165898  -0.0374667  37.0215063  62.8568073  67.3405263  44.9136388
  63.3457651  67.4368556  45.7588943  62.1253642  66.7236591  45.1648615
  73.4174484  61.9993220  47.4330384  73.5954785  62.5794406  48.2451684
  73.4611916  62.7771406  46.7680337  77.0188112  57.5976138  45.7589516
  77.6551991  58.2185499  45.4960955  76.3491302  58.1505687  46.1414933
  68.2336352  67.9854505  35.9091344  68.3410589  68.9518874  35.9811589
  69.1382630  67.6532661  36.1754536   0.3288947  61.4547332  34.1949727
   0.2815476  61.3789252  35.2033933   0.6010205  62.3874258  34.1405571
  63.2735288  69.0028820  51.3273449  62.3014289  69.1624585  51.4147478
  63.2157524  68.1210960  50.9074640  71.4787778  68.5405942  42.0606443
  72.0439192  67.7960558  41.8559559  72.0691265  69.0213146  42.7503572
   6.4412656  53.1972084  31.8497375   7.3768816  53.5535703  31.8148724
   6.5810745  52.2375463  31.7536163   0.9818060  57.7945928  33.5966228
   1.5247432  56.9985601  33.7199671   0.1166857  57.5447677  33.9382429
  76.2377715  53.7223522  41.7867088  77.0094097  54.2543381  41.4508581
  76.5489012  53.7007197  42.7331622  74.7496682  62.5582973  36.1412947
  73.8989888  62.8872374  35.7432517  74.3678742  62.0783778  36.8642074
  23.8713684  -5.1550355  35.1884474  23.1034574  -5.6125832  35.5761889
  24.0776497  -4.5488291  35.9313425  33.7074588   9.0769763  23.5780732
  33.3687141   8.6662630  24.3887836  34.4549318   8.4331625  23.3899513
  75.3950040  62.5547085  43.5474420  75.0621132  61.7762579  43.1001666
  76.0574574  62.1641677  44.2140003  78.5578139  62.3654900  31.1444767
  79.2026003  62.8789593  31.6543261  78.6098064  61.4784384  31.5483342
  14.8120830   4.5362322  47.4250824  15.5605834   4.0145397  47.0421046
  14.6969652   5.2414360  46.7931360  10.7905799  65.3075892  25.3937118
  10.1270095  64.5619982  25.3642379  10.1038869  66.0435276  25.6056259
   1.5877787  52.1856536  38.3850847   1.2302365  51.6979713  39.1837889
   1.4679460  53.1064336  38.6952393  18.1066737  -0.8160522  33.2550321
  17.9091601  -1.0360563  34.2107157  18.5967741   0.0087216  33.3968123
  74.3390929  67.6223244  35.7274786  73.9613065  67.1224594  34.9407202
  73.9899817  67.0919168  36.4225510  43.1256303  32.6140705  -4.7348800
  42.3821340  33.1076370  -5.1576496  42.6972428  31.7475128  -4.6168161
  69.9138501  57.6081867  49.3399783  70.4365932  57.9455675  48.5989056
  69.3361478  57.0053132  48.8552184  19.2736719   4.5111380  32.7144418
  19.6706738   5.3449684  33.0333270  18.3366114   4.6802551  33.0113524
   0.0408273  60.2644348  42.2347755  -0.0241530  60.7267938  43.0624359
   0.8708201  60.6470599  41.8747959   2.9814768  55.3845987  39.9988453
   3.1202407  56.1608942  39.3749576   2.0938478  55.1131798  39.6597557
  18.3306400  59.2950468  37.3575506  19.0495711  59.2464271  38.0596095
  18.0875365  58.3252074  37.3330065  25.5448602  -5.4363316  43.7377295
  26.5089522  -5.5870533  43.5508954  25.6530910  -4.6524721  44.3720726
   0.2415498  55.9398939  28.3929116  -0.1773477  55.7330674  29.2769184
  -0.1274319  56.7885644  28.1644448  65.7765689  59.6342020  44.7209389
  66.2728433  60.2488196  45.3298043  66.4184092  58.9032133  44.6091955
  70.9476522  65.1517017  40.3808967  70.7596653  64.5792162  41.2237560
  69.9836174  65.3277712  40.2283198  76.5218881  64.5898012  36.1636781
  76.8158997  64.5048429  37.1123648  75.9103943  63.7751701  36.1509316
   9.6576912  65.0464274  48.1062003   8.9422551  65.6518768  48.4758781
   9.7053737  64.3472442  48.7746834  27.5991864  -6.2807551  54.5585802
  28.0641242  -5.5940245  55.1157880  26.7338830  -6.2870538  54.9809160
   4.9439144  57.4322948  34.4077799   5.4637301  57.3895996  33.6321027
   4.2422034  58.0551369  34.1011474  67.3561921  68.5015977  49.1973213
  66.8612514  68.2700647  50.0530327  66.9701827  69.3859441  49.0175994
  77.1212058  68.2697839  40.9235959  76.8767041  67.2986526  41.1399627
  77.3008425  68.5263013  41.8464285  77.6977305  67.2376179  32.1064638
  77.6090928  67.0525981  33.0390694  78.4217105  66.6361138  31.8067224
  21.2385100   3.3576354  48.7441403  22.0749196   3.8756553  48.7404807
  20.6205956   4.0581309  48.4851680  27.1766498   0.8514826  45.1692760
  27.1466737   0.4694671  44.3291656  27.7098949   0.1860048  45.7040419
  58.5671550  72.1115920  47.5728181  57.5970413  71.9222606  47.4572702
  58.8408329  72.0667608  46.6582327  74.2061022  64.7176469  25.9087726
  74.2511077  64.3478455  26.7768316  74.2050898  63.9140561  25.3163512
  11.6452187  55.9504279  55.0444752  12.5339473  55.6527088  55.2002178
  11.1688883  55.8900504  55.8890313  69.7505308  69.5701338  49.9782764
  69.0017524  69.0341408  49.5541184  70.0228911  68.9106178  50.6152424
   3.3613283  66.8531721  24.8857998   3.0968247  67.6642111  24.3796841
   4.3298483  66.8133175  24.7954195  17.2926066  68.9598449  37.0404014
  16.9210013  68.1666527  36.8015385  18.1108348  69.0730959  36.5812708
  18.1551909  69.7420571  23.4144468  18.1672153  70.6230635  23.8691420
  18.0624978  70.0091932  22.4820661  38.2723357   0.7711497  23.8653563
  38.8687855   1.2788136  24.3987326  37.7387105   1.3746489  23.3385596
  29.7188230   8.9249407  14.9854218  29.2453705   8.8753297  15.8523326
  30.5817748   8.5141808  15.1899188  32.9831285   4.2487276  24.0254079
  32.9755279   4.6536073  23.1299409  33.7669962   3.6995923  23.9669357
  37.6193153  11.9871809  19.2278740  37.7512081  12.7109523  19.8991037
  36.7678878  12.2857697  18.8431645  42.3655941  -0.8198497  38.8574285
  41.5411131  -1.2790270  39.1689860  41.9087923  -0.0238100  38.4367438
  32.5627732   6.3421575  28.2023743  32.4721174   5.3532484  28.1845145
  32.2588543   6.5180646  29.1001838  29.8404915   4.4628727  19.6984130
  29.2714893   4.0336244  19.0254058  29.7895423   5.3873409  19.4479096
  14.8210309  71.9216483  22.4698675  15.1453310  71.3463156  23.1997671
  15.5122056  72.6005380  22.4454823  37.9928814  14.0015753  23.6323775
  38.4577320  14.4942793  24.2994142  37.0728916  13.9682725  24.0197495
  29.7707488  -4.7822540  37.2510866  29.8145956  -4.6754205  38.2174639
  28.8265068  -5.0337365  37.1664880  36.7085486   5.4239247  28.8950269
  37.5732885   4.9992229  29.0593732  36.9600073   6.1523705  28.2625040
  40.3451847   9.9243483  31.4300788  40.3263008   9.9194960  32.4085325
  41.3158303   9.8116224  31.2651498  26.7510087  -1.7356472  28.3204730
  26.5012262  -2.3809252  27.6278654  27.6003618  -2.2463064  28.6140668
  35.5521944   1.8383264  33.0642163  35.6321931   1.2390182  33.8020855
  34.6029592   1.7470000  32.8798177  53.9636759  11.0279179  24.5101738
  54.4295284  10.8687549  25.3366658  54.0810956  10.1568972  24.0947426
  45.5772842   2.3683930  32.8703587  46.2192562   2.9818700  32.5059150
  46.1255321   1.8238970  33.4585330  44.4226253  10.0292066  26.8951021
  43.8362686  10.7346713  27.3051126  44.1216232   9.2862074  27.4695396
  41.8370808   7.8034381  22.2199295  42.3928466   7.9178953  23.0123526
  41.4322112   6.9553325  22.4173060  35.1413647   9.7092352  29.8664122
  35.0347787   9.1564512  29.0934555  34.2839859   9.6970306  30.2213685
  12.2052484  39.3109542  75.7038342  13.0053383  39.6836036  76.1052241
  11.5732164  40.0328938  75.7901799  51.2242720   6.1584070  22.0499564
  52.0191498   5.6635896  21.7598186  50.5397091   5.4503653  22.0353061
  42.0765835   6.1293464  39.9201972  42.5412266   5.4171268  40.4274805
  42.8594426   6.5635968  39.5268254  47.0489228   3.3529883  36.4385466
  47.4610735   3.5190967  37.2493173  46.0937879   3.4664993  36.7211776
  50.3573187   5.3514452  26.4631409  51.0213457   5.8022687  25.8762569
  50.6191824   4.4504690  26.2389688  25.0286908  70.9622923  17.1266562
  25.0999692  70.1145980  16.6249160  24.7649452  70.5073642  18.0169280
  41.7167007   5.4399868  27.4758731  42.4552567   5.1199508  27.0049964
  41.6394859   6.3326224  27.0164330  39.0876078  -0.4513368  34.0662490
  39.9266973  -0.4432197  33.5345773  38.9933664   0.5481477  34.1706442
  52.0184552  11.1154940  32.6186592  52.2957090  10.9006184  31.7199610
  51.1055853  10.8023792  32.6573230  51.3859282   7.6998434  36.7621764
  51.8476331   8.0676398  37.5123151  52.0115252   7.8811617  36.0070183
  18.3104313  70.4654691  27.0956097  17.6106767  69.7935763  27.3719931
  18.8071401  70.4209877  27.9944660  42.4616562   1.3729010  33.2503328
  41.5358935   1.5217141  33.0132528  42.4192014   0.3565324  33.3304409
  46.3150548  18.7842763  18.7230405  47.2007052  18.4519810  18.2653287
  46.7463656  18.8638117  19.6240793  27.7289817  65.2861594  34.3507300
  27.4480258  66.2443218  34.4093666  26.8918143  64.8808843  34.3115903
  28.9389687  76.9132044  42.2695473  28.9347061  77.4051114  43.1134131
  27.9970650  76.7142241  42.1019571  40.1457350   6.2444953  36.1325615
  40.2759189   7.1691819  35.9157199  39.1869902   6.1228198  35.8052217
  49.6983200   2.0196139  23.8266271  49.4083801   1.1294186  24.1294041
  49.6036279   2.4803275  24.6730063  63.0575690  12.0951047  35.8358962
  63.3576274  11.2118636  35.5231303  62.3567804  11.8787484  36.4714571
  46.5769645   3.3767852  25.1055967  46.8471726   2.5844607  24.6691995
  45.9804526   3.1182848  25.8020378  41.1662510  18.3130578  25.4882750
  40.3306528  18.2219680  24.9808959  41.7652866  18.6627013  24.8575545
  41.7194664   7.4153919  25.4536216  42.5143079   7.8391762  25.1929308
  41.0848393   8.1441158  25.6701122   8.1965481  68.5143436  33.2393109
   7.9132611  68.5935671  34.1935085   8.2190484  67.4886323  33.2276820
  43.1671777  -0.2280587  22.6292335  44.0105242   0.2146522  22.4802277
  43.2290378  -0.3639633  23.5999843  28.0577320  66.9288585  42.7530316
  27.5624601  66.1997031  43.1803206  28.4757374  67.3537133  43.5018611
  48.3378541   6.4457532  30.5733494  48.8480400   6.7031250  29.8004534
  48.9954863   6.5989347  31.2568814  64.0366275  12.5553306  30.5213178
  64.8663765  12.8976999  30.1214513  63.5155789  13.4137214  30.6074235
  41.9351839   6.3913155  17.7950754  41.6407825   7.1876616  18.2691223
  41.6797891   5.6723800  18.4107073  49.6257867   5.7529220  35.9581023
  48.8650663   5.9881898  36.5805469  50.2136573   6.5264175  36.1998194
  16.0780870  69.2880185  33.7684917  16.9954835  69.5798928  33.8129313
  16.1451659  68.4536635  34.2856620  51.3549445   8.9400143  19.5961786
  50.6911349   8.7558361  20.2183874  51.3721057   9.9165983  19.5733029
  37.1617234   7.7346105  33.1098686  37.1541332   7.1558419  33.9177056
  36.9123559   7.0088867  32.4758492  52.0386062  13.2542532  15.7515174
  51.6679483  13.0011824  14.8602091  51.3156116  13.6018908  16.2507967
  14.0518851  68.2386045  29.1454525  13.8300266  67.4063533  29.5317274
  14.0724469  68.8731834  29.8565224  50.5170157   5.9955964  32.8076238
  49.7923062   5.9511892  33.4516272  51.0359888   5.2044740  33.0151506
  61.4003900  11.0367555  29.6719219  60.6845609  10.3040312  29.8399820
  62.0472890  10.7542563  30.2866414  49.0893297   8.5658509  50.6465933
  49.9071781   8.2438767  50.3060440  49.1127381   8.2131996  51.5831479
  27.5340144   9.8978606  21.6129871  26.5914154  10.0871554  21.5674686
  27.8411253  10.5252804  22.2511510  57.3018004  46.5814887  76.0764542
  57.6998269  45.9697474  76.7241390  56.3516126  46.3629660  76.1213130
  53.0113350   5.4793567  16.7893986  52.7291164   6.2894927  17.2751499
  53.5919048   5.0294157  17.4509090  14.8749797  72.3264037  29.6128653
  14.1211056  72.1589060  28.9942485  14.8490001  71.4885989  30.1065215
  54.2292668  11.9193088  17.2069728  53.5979978  12.4168154  16.6507745
  54.6379426  11.3421771  16.4914658  43.2352716   1.7783905  27.6099572
  44.1125732   1.5208569  27.3642003  43.0874136   2.5913639  27.0653168
  13.5415079  70.2615564  18.8360561  13.9759310  69.7297196  19.4849741
  13.1965128  71.0065050  19.4125528  23.0948894  74.7901552  17.8905716
  23.6408330  74.2010187  17.3604493  23.1732266  74.3445209  18.7624762
  46.4421472  23.4907075   5.2559917  47.0545861  23.0262938   5.9255144
  47.1012155  23.3943131   4.4820762  19.1594100  73.7185354  34.2825512
  19.7819126  74.3541173  34.6945975  18.4387049  73.7099563  34.8857650
  41.2594918  14.9898493  24.3899881  40.7372638  14.6328624  23.6205056
  40.5551670  15.2829721  24.9659470  48.5405148  13.8148037  32.1009496
  49.3813362  13.9285248  32.4402091  47.9538462  13.6111742  32.8818110
  56.2010043  10.7846016  32.8626662  56.3315266   9.8598109  33.2593913
  57.1242656  10.9863067  32.7411054  31.5609862  76.1310081  34.1378500
  32.0971349  76.8380933  33.8287774  32.2522794  75.3797444  33.9572289
  44.4093498  14.4526411  28.5919739  44.9650163  13.7331042  28.2783885
  43.5562310  14.2765859  28.1915912  45.3318934   6.9680553  36.8717556
  45.5403385   7.8487852  36.6605935  46.1259167   6.6094485  37.2788994
  53.1245062  10.6492222  12.4878301  53.4755994   9.7519907  12.7724618
  53.2609519  10.5009731  11.5062533  44.7717162   6.1452756  27.0872759
  45.6988298   5.9741001  27.3951792  44.4697246   6.7694758  27.7412143
  43.3239852  18.6926374  32.1222392  43.1838737  18.2505499  31.2827522
  43.5382067  17.9264713  32.7402522  52.2309877   7.7388800  31.7921034
  51.7275314   7.0607471  32.1907388  51.5530838   8.4480840  31.6012313
  46.1885223   5.3094188  23.2627174  46.2530261   4.6349876  24.0269904
  46.6899024   6.0164280  23.7127340  66.1498752  10.2611534  21.7601161
  66.9341616   9.7321121  21.8523117  65.6139489   9.7176082  21.1264082
  56.0284185  13.1912833  29.3197978  55.2153228  13.1218876  29.8402092
  56.6726219  13.4491965  30.0150678  47.4070230  12.7430903  29.7986225
  47.6947704  13.3449879  30.5221067  48.0357780  12.0210283  29.8979543
  50.4962823   1.7333913  20.3193711  51.2185994   1.6257972  20.9830883
  50.2908483   0.8228055  20.1396918  36.2749657   5.2168945  19.6067809
  36.0919235   4.4066442  19.0373159  36.2160914   4.8330135  20.4850996
  17.3802388  65.5996402  40.6635279  17.3286596  64.6871869  41.0064194
  17.0893710  66.0875157  41.4637467  38.4262052  71.1664069  35.2277740
  39.1164868  71.2780325  35.9283936  37.6838690  70.8776918  35.7848325
  50.6384960  13.9999149  35.0352264  50.9304071  13.0858255  35.2439662
  51.1499402  14.5310858  35.7233715  38.7308949  79.3301274  28.6772231
  38.1516540  79.9608867  29.1496805  38.3025074  79.4216878  27.7831826
  56.0649249   8.2621060  34.1659929  56.3807686   7.7102573  34.9189947
  56.4585412   7.6220413  33.4779059  39.2312302   2.2000009  16.3140392
  38.7406219   3.0362633  16.2351219  38.5410570   1.7259618  16.8565216
   5.3082421  44.4555727  71.9860465   4.5409740  43.8354582  71.8056421
   4.9195765  44.8375765  72.8211586  62.1810191  37.5481469  79.2097474
  61.2270247  37.5809757  79.1287369  62.4174068  38.1646890  78.4604512
  44.3424532   4.6908680  21.3841752  45.1267817   4.8963245  21.9549759
  44.7043432   5.0065432  20.5140990  41.1022292   4.4957317  33.6762405
  41.8224274   4.5337792  32.9795083  40.7628319   5.4067671  33.5330158
  56.8445421  10.8826927  37.1564724  57.4823185  11.6133562  37.1999297
  57.3588092  10.0434552  37.3715792  43.2518873  77.1854215  42.6039942
  43.3210254  78.0832158  42.9625142  44.0828253  76.7947931  43.0165094
  43.1786663  11.7531029  28.9985162  42.5586284  11.1580280  29.4494355
  43.8824883  11.8381801  29.6694746  45.8342816   7.0172014  41.4692062
  45.3433155   7.3142102  40.6992190  46.5664829   6.5130828  41.0342746
  39.9263344   4.6549712  39.0922414  40.3542443   4.4468031  38.2032399
  40.7515441   5.1775598  39.4788993  39.3140717   8.5348128  29.0889848
  39.5813262   9.1306219  29.8377470  39.5664089   7.6453239  29.4756758
  49.5097956   3.8196683  21.6685943  49.3333004   3.0782148  22.3132570
  49.8128065   3.2473742  20.9279343  22.9410980  71.0690782  24.4883402
  23.3785814  70.2167458  24.3697043  23.1045906  71.5229406  23.6711347
  37.5094852  11.7083160  34.1189938  36.8938583  12.4174335  34.0038376
  37.3259150  11.0699863  33.4605950  56.6042794  10.2029367  29.1832146
  56.0726414  10.9876044  29.4557813  56.0428282   9.4978999  29.5965887
  27.6917545  73.2457931  40.0042386  27.1287435  72.4593112  40.0782218
  28.1153025  73.2863174  40.8997909  68.6004470  22.7802520  27.4164398
  68.5090039  22.0093602  26.8670195  67.7874732  22.7997100  27.9394654
  62.5798520   8.5990781  24.9649006  62.1061167   9.2057232  25.5623759
  62.0268940   7.7855278  25.1651500  50.5791862  11.2751289  51.1507496
  51.4696654  11.0991330  50.7857749  50.0654194  10.7694732  50.4339954
  46.7661198   9.7142655  19.6134541  45.8364999   9.5283873  19.7291370
  46.9394987  10.1686008  20.4561519  46.1612496  10.0537953  22.5040423
  45.2205098   9.9590955  22.2749763  46.1957125   9.3553594  23.2396188
  23.6900434   9.5426758  29.3182996  22.9327037   9.7090690  28.7537135
  23.3941440   9.9387918  30.1532338  12.6077817  71.2011319  33.8878003
  12.4982403  72.1359863  34.0068087  11.7604382  70.9966398  33.3748382
  54.0617881   3.5103414  46.4625409  54.1693050   2.7430454  45.8473252
  53.0773888   3.5100073  46.5212774  25.0320732  68.9358609  28.7724234
  25.6015002  68.1215741  28.7192218  25.1008423  69.2519764  27.8603900
  44.9231200  12.1757216  30.9100689  45.8649699  12.1312790  30.6242615
  44.9812855  13.0461619  31.4386155  41.3541982  -1.4170335  35.8873087
  40.5932638  -1.4442875  35.2866421  41.0875700  -1.9515732  36.6565513
  57.4598692   6.6692476  35.9239898  58.4643166   6.4692136  35.8335137
  57.1786251   5.7014420  35.9905784  15.2272863  70.1030987  31.2675523
  15.2527066  69.7760110  32.1575737  16.1891186  70.3816873  31.1237676
  56.2118019  17.7873902  20.7716724  56.0433060  17.2922259  21.5437567
  56.5991779  17.1859871  20.0990142  38.6455976   7.6889391  17.4305590
  38.3383684   7.2306010  18.2280151  38.9603355   8.5517382  17.8280893
  63.4082205  20.6650997  21.4736103  62.7673797  20.3191375  22.1149973
  62.8996158  20.5850132  20.6633829  24.3140153  65.8584013  28.5759408
  23.3815270  65.9523700  28.1747387  24.8124762  65.9946075  27.7659275
  48.7992908  14.2010095  21.1054786  49.0773893  13.2945698  20.8080965
  49.5762120  14.4772200  21.6055279  38.1644243   8.1443723  24.5255158
  37.3837317   7.8408440  23.9820197  38.5027714   8.8756695  23.9344998
  60.5666998  15.1166412   9.4454480  61.3414041  15.6585648   9.8585662
  60.9090517  14.2503137   9.8191190  40.3799334  -0.9267922  44.7689041
  40.3298236  -1.2331794  43.8460295  41.1525841  -0.3318267  44.7335034
  65.9049902  12.0004209  24.7151180  65.7174927  12.9425549  24.6287130
  65.6984881  11.7089198  23.8281781  19.9389631  71.8840096  25.6245952
  19.2398530  71.4549609  26.1722934  20.4961287  71.1454945  25.3454455
  32.5673477  14.9710698  23.4888805  33.0419814  14.5617535  24.2271210
  31.9297861  15.5069666  23.9452162  43.7403081  22.5058714  15.8463001
  43.5318182  21.5328426  15.9452601  43.4266315  22.7308303  16.7726844
  44.9745926  13.3032719  24.9561100  45.5839449  13.5040303  24.2165472
  45.7001034  13.1011261  25.6401376  33.0360655  70.1082089  43.7310504
  34.0276509  70.2012284  43.6938669  32.8171185  70.9216258  43.2479848
  35.6987976  75.0451173  24.9203796  35.8750910  74.4319275  24.1342795
  35.3728621  74.3647463  25.5132267  40.2411804   9.7816585  14.9639088
  41.0282585   9.2627040  15.2396043  39.8656559  10.0549357  15.7968707
  70.0941644   9.8443355  36.4337789  69.7570075   9.5720088  35.5844358
  70.1113706  10.8121537  36.3506791  38.4185160  79.2235873  19.3529220
  38.2801948  79.1478417  20.3689312  37.4912856  79.1579709  19.0845694
  48.2546785   5.8688607  40.3629247  49.2513988   5.9457825  40.6095763
  48.2939428   6.5573052  39.6359760  41.0593297   8.7065974  18.7252964
  41.3422266   9.6237389  18.6447724  40.7311620   8.6773395  19.6271967
  37.8833274   4.2142024  15.4014686  37.1850018   3.8906095  14.8532542
  37.6457209   5.1203179  15.6352681  47.8773319  15.2319847  18.8036301
  48.0627463  14.9364255  19.7598219  46.9959576  15.5614835  18.9509332
  49.6595696   7.2052384  28.2262593  50.2058827   7.9592765  27.9781099
  49.9148041   6.5914171  27.4612626  22.5685912  73.2233209  22.5904879
  23.5375460  73.2377811  22.4012150  22.6208911  73.2808139  23.5710805
  46.4510593  10.9454539  13.6958031  45.5401173  10.9237013  13.4344756
  46.7784000  11.8836419  13.5303970  49.9388144   2.6883843  38.6351596
  50.5822019   2.0510149  39.0420992  50.6099189   3.0716397  37.9790711
  35.4374869  -1.2394652  24.7499971  34.6329161  -1.4195333  25.2925333
  36.0729632  -1.8091825  25.2474351  16.5859336  72.4725776  25.7327920
  15.9237468  71.7627701  25.4217285  17.0716879  71.9480945  26.3862615
  32.6952102   7.8732072  19.9541197  32.5573888   8.8188611  20.1056356
  33.5009670   7.8251056  19.4199903  19.0438976  64.4459672  35.4943503
  18.5715590  63.5822241  35.5104316  18.9621425  64.6584598  34.5259565
  34.7405364  11.4454627  20.6940539  35.1690939  10.5829794  20.7747372
  34.7761568  11.6436930  19.7261546  50.7104402   3.7753291  43.1343427
  50.1993817   3.6330227  43.9450444  51.3402432   4.4641218  43.3434680
  36.1523247  15.5055608  26.0392765  35.5833950  16.2411546  25.9009062
  36.3227667  15.5594743  27.0128732  44.8358215  13.1945163  16.7811687
  44.8974256  12.1970249  16.6661232  43.9965588  13.3770236  16.2711453
  43.7887646  -0.5968851  36.5884763  42.9311913  -0.9242552  36.1778072
  43.5996276  -0.9131057  37.4839156  39.6874846   9.7444055  22.6116968
  40.3775985  10.2634504  23.1206151  40.2925874   9.0600626  22.1862535
  23.5195601  73.6354439  13.0650586  22.7543477  73.1414153  13.5602932
  23.2985239  73.2170331  12.2028634  49.9067438   2.7626796  26.3139685
  49.0218889   2.5559822  26.6262059  50.4401458   2.1310444  26.8828087
  45.0668452   9.8266157  32.7488439  45.6393289  10.2425370  33.4018971
  44.8577489  10.6522392  32.2123333  48.7899335   9.1447846  16.2710928
  48.9962191   8.5738736  17.0344837  49.6638111   8.9824644  15.7900266
  49.4393338   4.5828304  13.4234992  48.9426041   4.8699915  12.5991649
  49.4028122   5.4100290  13.9643564  30.2446509   4.1874045  22.4195047
  30.1260454   4.2658338  21.4662446  30.6352099   5.0973705  22.5794736
  54.0513418   5.5375273  48.3055038  53.3568050   6.1022910  47.8851554
  54.0248344   4.7588653  47.7298126  62.7316983  24.9963622  34.3683589
  62.2500395  25.9272229  34.4639741  62.1097010  24.5359589  33.8096676
  58.8403858  10.7405965  33.0410962  59.4365864   9.9948854  33.4313992
  59.4087853  11.5217648  33.2398167  59.3489074  15.7996225  32.6569958
  60.2815990  15.8828769  32.9917171  59.5596226  15.9572778  31.6785728
  53.3228218  12.0185238  43.3799670  53.4392410  11.1201438  43.0726300
  53.3470512  12.5249927  42.5403824  43.0358192   9.6128085  31.0121020
  43.7165518   9.4357813  31.7311902  43.5152262   9.2043599  30.2699971
  56.2208054  16.1516319  25.4398230  55.8779656  16.8612553  26.0453499
  55.4230756  15.7135095  25.1768483  53.5172857  22.3873299  27.8948272
  53.7651755  21.4311293  28.0490048  54.1605491  22.5641004  27.2004340
  57.7306197  20.7906039  35.8246282  56.7505125  20.8382663  36.0298887
  57.8983205  21.7263942  35.6385772  59.4170892  22.9611708  16.4014174
  59.7883761  22.8361214  17.2698690  59.1180810  23.8816485  16.3776248
  66.1606099  24.1120939  23.7571934  65.2774775  24.1050493  23.3230393
  66.0433063  23.3073703  24.2765034  55.7077752  17.7699847  27.4295517
  54.9934325  18.5028100  27.4690646  55.5653487  17.4370948  28.3147836
  60.1680493  25.4376129  18.5766897  59.7522750  24.5660595  18.5833979
  60.0738542  25.7308188  19.5063905  59.3589802  10.2552783  42.1948730
  58.4469383  10.2226801  41.7344764  59.0838634  10.5753956  43.0478255
  50.7805806   2.4015680  14.5183872  50.9425916   3.3614479  14.5779532
  49.9692350   2.3196621  15.0430281  61.4808376  24.1006576  22.7632252
  62.4175861  23.9981108  22.8013103  61.3790936  24.9910296  22.3928348
  37.2073460  74.3407885  40.5803537  37.4487429  75.3379557  40.5782515
  37.6809903  74.1315339  41.4159589  41.0851428   1.4489292  21.9113203
  40.8729595   1.3335285  20.9642400  41.7126641   0.6587980  22.0189114
  68.4949469  31.9141942  31.8272265  69.4140911  31.9733481  31.6828679
  68.2248946  31.0042093  31.5837282  62.5543542  15.7880057  24.2595761
  62.1407032  16.3533918  23.5171675  62.3724722  16.3933296  24.9997004
  69.0728192  11.3334780  21.8612233  68.8670286  10.3698002  21.6311138
  69.3212858  11.5385679  20.9160940  53.2475755  17.6399851  23.1436705
  52.7050291  18.0444122  22.4086441  53.6858435  16.8848837  22.6762659
  59.0979173  14.9622035  25.6534203  58.1392464  14.8632773  25.7804230
  59.3155186  15.6522665  26.3392416  54.5510517  26.5977301  21.6464908
  53.7732907  26.1586888  21.9687836  55.0607827  26.8154479  22.4305794
  70.2203503  29.3326682  20.8330913  69.6929720  29.0916348  20.0794260
  70.1422467  28.5134675  21.3807517  46.3171825  75.1804133  24.9387680
  45.5719748  75.1537614  24.3372104  46.0312683  75.8830541  25.5737153
  58.1282053  23.8673093  13.2306717  58.4165101  24.6832395  13.6721143
  57.5772210  23.5086021  13.9296314  52.0665729  14.0230795  32.6444764
  52.3554716  13.0653377  32.5637995  51.7574200  13.9761469  33.6201451
  58.0481243  20.3167534  42.5871110  57.3980745  20.8921527  42.9568306
  58.6934466  20.2183862  43.3302183  62.1175519  15.3716595  28.3027514
  62.6595890  15.1696705  29.1513931  61.8367266  14.5024230  28.0559493
  65.0531619  14.5380906  24.5272127  64.0858029  14.6909343  24.4218705
  65.4335416  15.1631033  23.8015118  57.7977913  34.0352876  32.0603253
  57.3652463  33.2629430  32.4593373  58.7400996  33.8257500  32.1941795
  59.9441052  19.6629975  40.2443090  59.2622462  19.8125874  40.9184924
  60.5012425  18.9923852  40.7050949  61.1189252  20.1854594  23.0238656
  60.6480134  20.8514830  22.4332159  60.8242096  20.5287118  23.9135258
  74.6236228  15.2711418  32.3909976  75.5900382  15.2664060  32.5027470
  74.6081202  14.9827761  31.4278370  57.3344824  16.8227212  14.8039658
  57.2672620  17.3388554  15.6247942  56.4510961  16.5639883  14.6183526
  55.1072502  12.0111070  35.3141669  55.5244713  11.5226670  36.0171788
  55.4909392  11.6000863  34.5277615  56.6493451  31.8281045  33.5554584
  55.9718781  31.8091506  34.2003472  56.6022145  30.9334973  33.1480977
  50.2559620   9.9017790  35.0008084  50.8991966  10.5628542  34.9379159
  50.7010483   9.1046497  35.3255951  46.3028605  12.4874606  27.4347178
  46.4474859  11.5215941  27.4514043  46.8245108  12.6965365  28.2569326
   5.7068243  33.9608654  23.4755882   5.4728651  33.0358596  23.1744169
   6.6747377  33.9061495  23.3976107  54.5371670  12.4990408  31.3588278
  55.1020409  11.8359589  31.8539271  54.5599139  13.2629983  31.9461037
  59.0926546  25.7873061  33.2596208  59.1483714  24.8005721  33.2334112
  58.1580166  25.8694659  32.9048214  57.6727072  22.5417926  26.0064029
  56.7404497  22.3368864  25.7596246  57.8098390  23.3732976  25.6078204
  70.7575809  22.7953115  34.1990700  70.1216028  23.5321997  34.4596811
  71.5548871  23.0603519  34.6006738  58.0970113  30.9015884  10.5429781
  57.7288205  30.0521250  10.2846189  58.8897693  30.9074374   9.9486115
  49.7684938   9.1322759  41.3747964  48.8651454   9.1116264  41.0111040
  50.1383052   8.2536063  41.1750727  47.1756136  19.0205229  12.5576685
  46.5228803  18.3303337  12.2736183  46.8495929  19.7671149  11.9824202
  54.4080408  28.7149287  31.1237575  53.8209935  29.5062596  31.0785790
  53.8526970  28.0577832  30.6049409  33.6882944  70.9605691  37.1784579
  33.0821438  71.7429374  37.2397348  34.5433816  71.3382344  37.3786148
  51.9144239  23.3610251  35.9430471  52.6592192  22.8300551  35.6530739
  51.8966540  24.0399619  35.2048071  57.2386794  18.0998615  24.2556500
  58.1918626  18.1987378  24.4748503  56.9981442  17.2434643  24.6134718
  62.3078953  19.1049000  31.2706024  62.1004712  19.1183281  32.1928778
  61.4707017  18.8395715  30.8381959  57.9347212  27.8638327  30.8910429
  57.7604288  27.0651932  30.3065259  58.9172879  27.9326951  30.7554792
  60.8822541  13.4305478  24.1216345  60.0583369  13.8783495  24.3662323
  61.5497517  14.1613723  24.1287780  42.9918074  16.9115849  27.2211630
  43.6772077  16.4190008  26.6382671  42.5372266  17.3608646  26.5150742
  63.5349372  12.6007636  14.2360158  63.1776362  12.8198384  13.3050755
  62.8428790  11.9562645  14.4611095  45.1306926   5.1560990  18.5100164
  44.7923914   4.2554483  18.2537798  45.9968536   4.9106555  18.8791124
  46.4745141  79.0665155  30.1988098  46.8329010  78.6962465  29.3620607
  47.1004409  78.6165753  30.8451320  61.3894477   7.2133117  21.4616163
  60.9695327   8.0715055  21.6264964  61.2536330   6.7640295  22.3418129
  64.9488356  31.8911595  31.4095989  65.3219310  32.6494028  30.8888530
  65.5234810  31.9176219  32.1952594  49.9965435  27.5752505  21.0407175
  50.1910208  27.7174868  21.9841561  49.8537227  26.6077155  20.9377840
  56.1911665  11.3130611  19.3039680  55.5877148  11.4248670  18.5124067
  55.6005272  11.4815475  20.0207269  68.3314860  25.9638198  37.0392400
  68.6714525  26.5157311  37.7692267  68.6397128  25.0448695  37.2537382
  52.0924926  14.0033216  27.2836585  52.2972666  13.3958845  28.0660460
  51.1728818  13.8600747  27.1749429  60.9187403  23.5337007  26.0439739
  60.7192697  24.3203074  25.4439614  61.8747108  23.7952914  26.2490344
  55.4919763  13.0984720  23.3946836  55.0243922  12.3984171  23.8368033
  56.4382149  12.6801872  23.4852130  69.2726895   9.8293760  27.2506156
  68.5427712   9.8258019  26.6044470  69.3905664   8.8310867  27.3287151
  64.4199798  18.5033437  23.3632501  65.2415851  18.4635830  22.8801803
  64.6997532  18.3744517  24.3009251  66.5633386  29.6318814  20.7162152
  66.8269082  30.3970860  20.1628165  65.6112226  29.8024972  20.9005982
  76.5075403  16.7118864  27.9659754  76.8843329  17.3292267  27.2909617
  76.9252038  17.0520444  28.7461126  63.5878050  19.2554432  26.5333064
  64.0731226  18.4179998  26.7286569  62.6948256  18.8561858  26.5169608
  61.1600973  27.1860645  34.7756333  60.8225522  27.4175681  35.6522229
  60.2953241  26.9449756  34.3500047   0.2565678  27.4344260  20.2036340
   1.2188644  27.1952584  20.0536259   0.0384995  27.6701938  19.2650314
  54.8926009  28.4303876  34.7926920  54.0836463  28.9459058  34.6011649
  55.4678193  28.7039671  34.0233205  71.2442590  35.6671161  36.3639268
  71.9017910  35.4232755  35.6876017  71.0680116  34.7857529  36.7548269
  47.1872499  82.7195284  25.4329644  46.3325883  82.4480210  25.1297656
  47.0127188  82.7215538  26.4419427  42.2247176  22.3637321  21.6826827
  42.9644087  22.0586031  22.3088493  41.4727764  22.2385961  22.3229070
  63.5767356  10.5792911  23.4953751  63.2934736   9.8099555  24.1185169
  63.8995085   9.9920981  22.7727969  52.2963187  24.6850483  28.5100430
  51.6819914  24.7168141  27.7939887  52.5698947  23.7337110  28.5385277
  51.8128455  23.9372934  14.9474825  51.2903633  23.2821534  14.4926828
  52.5987386  23.9911412  14.3773409  51.0717573  32.8315590  17.1671819
  50.4069990  32.2094975  17.4732778  51.9135335  32.2745813  17.2895776
  76.5819240  22.5787349  38.8128587  76.6754698  23.3801852  38.2615695
  76.7625509  21.9280028  38.1066611  66.5971592  18.0847944  21.4920307
  67.4109679  17.7442342  21.8164923  66.1316731  17.3211908  21.1096275
  57.4912320  14.0216327  31.7497053  58.0760779  14.6813246  32.2175949
  58.1855114  13.5148220  31.2954827  53.1443835  29.2076128  20.9725336
  52.6377310  28.8865457  20.1646199  52.8421777  28.5971217  21.6236881
  49.8185300  21.4069011  25.8837592  49.3012625  22.2518268  25.9236284
  50.5921726  21.7161424  26.4348251  59.8712258  21.7150675  29.8629776
  60.7513767  22.1697908  29.9874516  59.4405077  22.3463300  29.3096518
  53.0972442   9.0865740  22.0213605  52.9104346   8.7039565  21.1495302
  52.3642926   9.7288227  22.0826618  49.0967545  22.7262827  23.3734198
  48.3029786  22.4143950  23.8542777  49.6560862  21.9355362  23.3679760
  62.9146617  25.0025026  43.0338913  63.8352169  25.3574711  43.0003883
  62.6755923  25.3408125  43.9259674  71.0991390  29.1462770  25.0508065
  72.0849668  29.1570229  25.1520375  70.8210343  28.6781248  25.8876520
  65.8367606   7.7921162  45.5169549  65.7207952   8.2960445  46.3362690
  66.7697527   7.6620028  45.4274807  55.2209123  14.5913655  33.1170702
  55.6612110  14.5483021  33.9643517  55.9598641  14.3957266  32.5018039
  68.5158953  18.0685834  35.2636501  69.1656625  18.7082670  34.9304096
  68.8106952  17.8625831  36.1429366  55.6389697  17.5721237  30.3586679
  56.2216462  17.6481171  31.1588255  54.8352020  18.0211015  30.7663714
  54.2867785  29.2233962  25.4586899  53.3335353  29.1796346  25.6321686
  54.5962375  29.4767215  26.3577928  65.1761929  29.3582431  30.0139443
  64.9096347  30.1663376  30.4981188  65.5537060  29.8483043  29.1863049
  65.3260807  22.6468073  15.0936301  66.2427435  22.7775046  15.4422675
  64.8831429  23.1893028  15.7894229  67.7700791   8.3253375  31.9675697
  67.1086923   8.9573892  32.3258200  67.5206079   8.4163505  31.0000113
  67.6153603  23.1800746  41.8737281  67.5250867  22.4480728  41.2385038
  67.3367846  22.7664492  42.7079297  42.8765980  14.2478192  40.6164890
  43.7203387  13.7763230  40.8324846  42.2004732  13.5737532  40.7579229
  78.6287708  44.6201658  66.8505582  78.8360311  45.2327152  67.5942612
  78.1070721  45.2079190  66.2409469  63.0453935  14.9733976  30.7890374
  62.4032182  15.0108533  31.5581393  63.4521169  15.8359106  30.9215263
  45.3651909  19.0580856  29.2482719  45.5703230  18.6274549  28.3629003
  45.6026939  18.2443659  29.8059112  54.3050075   5.4301689  36.5202474
  55.0211358   4.7837357  36.2643224  54.2786158   6.0148824  35.7512780
  57.8939697  22.8070571  34.0584962  57.1819117  22.7783538  33.3920347
  58.5850516  22.2914703  33.4885707  64.2914743  27.9237555  18.6102995
  64.0433521  28.6998837  19.0601596  65.2600650  28.0189136  18.4383503
  52.3880265  12.6941595  29.8390084  52.3852783  13.5491541  30.3733398
  53.1823439  12.2900126  30.3301283  66.2147249  16.3430786  29.3690409
  65.5361373  16.7675395  29.9147543  66.0226470  16.6285873  28.5112146
  60.4905746  27.0358004  31.2401137  60.3704466  26.9121707  32.2061533
  60.3106059  26.1493901  30.9116884  51.6257701  19.3613001  14.1648580
  50.8804146  18.7548525  13.8198786  52.2347052  18.6539119  14.4970448
  63.9547161  10.5362669  39.5264057  63.1423233   9.9982380  39.7370003
  64.6456189   9.8712546  39.7094846  67.5983253  26.8267871  20.7990431
  68.3131841  26.8275294  21.4501855  67.2042235  27.7199487  20.9751884
  64.1811334  21.8595986  27.1515079  63.8676710  20.9743422  26.9887444
  64.2151177  21.9382572  28.1111086  61.5787548  32.9700457  14.8942673
  62.5273241  33.1637251  15.0073473  61.4315030  33.0452542  13.9676794
  62.5323365  12.6939478  27.5146767  62.1570235  12.0620680  28.1172552
  63.1505029  12.1550526  26.9577048  62.1134629  17.8224975  22.2839242
  61.5477059  18.5087863  22.5992035  62.9702839  18.0933887  22.6353329
  69.7776856  35.0425191  24.3597190  70.2237245  35.6228766  23.7111669
  70.4136932  34.2870138  24.2830120  67.7003245  15.0566548  22.5741687
  68.4414490  14.9160440  21.9355859  67.0248123  14.4990485  22.1046977
  63.5201360  22.6771554  41.0726191  63.7630823  23.1713054  41.8655061
  63.6553502  23.4676957  40.4233316  55.9147331  21.7847244  32.1150301
  55.8315926  21.1029805  32.8249999  56.2057954  21.2627606  31.3640973
  45.1393312  16.1485643  25.4754397  45.3679487  15.2062554  25.6693171
  44.9298480  16.1049884  24.5187540  59.7672030  15.9492503  30.0828408
  59.3034517  16.5253421  29.4759484  60.3047092  15.3483802  29.5609636
  42.7974486  17.0896777  29.7996152  42.6769228  17.1053426  28.8067871
  43.7939157  17.1145624  29.8248757  51.9426740  15.2856920  37.0060406
  51.5345969  14.6585708  37.6706918  52.4289485  15.8729727  37.6441189
  64.1579759  23.7963141  22.0440250  63.8333381  24.3554946  21.3220498
  63.9427154  22.8855392  21.7883187  69.0633309  30.8588963  23.2512867
  69.5384494  30.4602766  22.4949714  68.3972023  30.1244957  23.3960501
  53.6193452  15.8035067  30.4604026  53.1777154  16.5532863  29.9878878
  54.5968545  16.1713787  30.3607713  68.0995040  17.4217147  31.6989343
  68.1640426  18.0146469  30.9217077  67.7539969  18.0643811  32.3755096
  49.6167997  13.2767059  25.0978005  49.7354585  12.4978938  25.6891720
  50.4845453  13.2741375  24.6673718  52.5525398  17.9831960  25.7024551
  52.7344580  18.0935478  24.7365297  52.8662736  17.0737136  25.8720221
  61.3670835  35.8580410  29.2260882  62.1747607  36.4084434  29.4718669
  60.6710696  36.4721578  29.4854854  53.8360728   9.0174390  42.8207691
  53.9851475   8.8005858  41.8284755  54.2303558   8.2195473  43.2178442
  58.8542312  26.6490491  20.9127576  59.3712652  27.4385289  20.6268496
  58.1015641  26.7846021  20.2400788  60.3962412  14.0934432  49.1512297
  61.1430097  13.9872355  49.8486824  59.7990251  13.4017926  49.3760924
  62.4754055  16.2282798  47.9187054  63.3734175  15.8979664  48.0684078
  62.0764568  15.4934527  47.4756165  76.4720161  36.7581315  71.9354773
  77.2166430  36.1912517  71.6284701  76.6466487  37.5100808  71.2801906
  55.5844858  15.9418376  18.2176936  55.9968644  16.7132307  17.7567014
  55.0032633  15.6513123  17.4653517  25.8008880  73.8473286  34.6299624
  26.2841149  74.3681277  33.9747205  25.1830111  73.3156641  34.1115294
  55.1414254  15.7022696  22.5178342  55.3540495  14.8669014  23.0557202
  55.2428395  15.2417493  21.6283959  30.8549560  77.0769455  25.1654375
  30.1213373  76.8576482  24.5093756  30.2833449  77.5064032  25.8182001
  69.5866597  17.4176912  21.8653337  69.6061128  16.6358233  21.2757259
  70.0725422  18.0841907  21.2797471  62.5920719  15.3680444  21.2975111
  61.6714623  15.0498152  21.1673649  62.3819287  16.3304351  21.3156852
  59.1324893  18.7481604  17.8804134  59.6344075  19.0468040  18.6395497
  59.6486108  19.1905240  17.1633052  65.1418929  15.6714775  22.0119207
  64.1524662  15.7088406  21.9641497  65.3331084  14.8278514  21.5486300
  69.6852773  40.5824313  25.2800187  69.4594565  41.0759673  24.4808592
  70.2124532  39.8353787  24.8905812  59.2307826  17.9910104  20.6128464
  58.4396426  18.4810886  20.7880619  59.2708772  17.2933798  21.2781809
  69.3418374  17.8707706  43.6345185  68.8566143  18.2620695  44.3865174
  68.6055435  17.5789649  43.0759170  68.1758124  27.9105648  32.9264326
  67.2505809  28.0375053  33.0613668  68.3223541  26.9958821  33.3354814
  52.5611361  29.4225628  33.6855313  52.3598126  28.5561568  33.2150448
  52.3712549  30.0225889  32.9178261  50.8566869   6.6343515  40.6010392
  51.2155272   6.4307057  41.4631404  51.6010474   6.4263808  39.9952776
  73.1543122  24.4681977  33.7019181  72.6797787  24.9032777  34.4476554
  72.6075076  24.6846855  32.9244118  57.1184600  28.8771646  37.5071433
  58.0611777  28.7389879  37.2856212  57.1785055  29.7390862  37.9306392
  49.0191558  31.7212318  18.7545514  49.0549883  31.2372680  19.5366873
  49.0411150  32.6522785  19.0294289  69.6140832  14.6627900  45.4233049
  69.0880502  14.6669009  46.2523798  70.4869136  14.4556322  45.8250420
  64.2252644  20.3534590  34.7489551  64.1571034  19.8406192  35.6032987
  63.9103849  21.2184345  35.1245606  77.7916264  25.4506414  32.8560793
  76.7903585  25.4020284  32.7474198  77.7772015  26.1495536  33.5802986
  66.5543901  27.4881365  17.2280504  65.9237268  27.2901463  16.5123343
  67.2830685  26.9147381  17.0702639  62.0515625  15.5199927  33.1262619
  62.4709498  14.6519961  33.3422075  62.5741341  16.0715559  33.7337716
  54.9980735  22.4856253  25.4589233  54.7033613  23.2283619  24.8386234
  54.5453521  21.7303822  24.9837239  60.0928446   9.7269816  38.1627255
  60.3388713   9.5290513  39.0760586  59.3035521   9.0981906  38.0298301
  47.4975640  19.7650995  20.9181167  47.8250838  19.4872954  21.7877045
  48.1424511  20.4387972  20.6586914  47.5101695   9.5133482  27.6409423
  47.3197999   8.9120772  28.3731529  46.7630602   9.4969106  27.0211045
  49.6010980  16.9400073  22.7523226  49.9311208  17.5596219  22.1038038
  50.2183101  16.1635261  22.5722975  34.1591188  77.1760488  24.3044617
  33.3211105  76.9158292  24.7418043  34.7257101  76.4282395  24.5299453
  59.2028861  13.5970195  43.3335500  59.4870155  13.6003911  42.3775881
  59.2399874  14.5329597  43.4828990  61.4236219  35.3109136  33.8431595
  60.7930189  34.5481046  33.6705622  60.8283031  36.0196589  33.5453913
  68.3049722  23.9452885  22.3401965  68.1100343  23.0651205  21.9934597
  67.4106671  24.0768053  22.8277451  69.8043345  12.7143302  36.4195857
  70.1542683  13.2187260  35.6779026  68.8250080  12.9423069  36.2904905
  61.4861598   5.5523289  24.0069207  61.3977083   5.9399235  24.9285744
  61.4574265   4.5988828  24.3354806  72.1288736  14.8949654  37.6991050
  71.3472365  15.2966217  37.2092956  72.3375265  14.2133491  36.9841185
  58.0426225  12.3646897  23.4550917  58.6059892  12.5407924  22.7098580
  58.6127245  11.7343261  23.9766097  75.7139083  10.4172179  28.1985920
  76.6382219  10.5242915  27.9693076  75.3299604  11.1388019  27.5888251
  67.2410072  19.9493437  17.7712182  66.6157490  20.0761437  18.5105840
  67.8396005  19.3035254  18.1402124  54.5836380  25.5634077  33.7988859
  55.2982389  25.2131783  34.3805943  54.6604063  26.5261732  33.8177113
  55.8426228   7.0575945  20.1269768  55.9100327   7.5521866  19.2713576
  56.5366998   6.3747970  19.9660363  63.8456339   9.9993720  30.8968928
  64.3058861   9.9212587  31.8015377  63.8813604  10.9828779  30.8099315
  33.4076836  74.4559707  36.4546165  34.0933245  74.2716143  35.7733987
  33.9591169  75.0490695  37.0543589  59.7464501   9.3331318  21.7974942
  58.8672455   8.9071476  21.8802678  59.7374200   9.8697696  22.6156692
  60.7535677  14.3575418  46.2996894  60.0725384  15.0293568  45.9776507
  60.3452270  14.1092809  47.1467792  53.6035817  21.3110900  15.3923843
  54.4947557  21.3459429  14.9171727  53.0963131  20.7671173  14.7562219
  14.7851264  48.2150511  76.6961441  15.0763980  48.7142408  75.9270505
  14.6251127  48.8855482  77.3729372  60.9870256  23.6761519  32.8428103
  60.6775375  22.7250004  33.0235260  61.5249305  23.5308961  32.0416461
  54.4816763  11.8295455  38.4996243  55.2430814  11.4959936  37.9460526
  54.7922576  12.7850453  38.5773906  49.4126838  16.0419757  25.3837959
  49.4375233  16.5753307  24.5676449  49.3164137  15.0872174  25.0373308
  57.8370339  25.0564062  24.6078164  58.7759666  25.2842418  24.7480567
  57.3850259  25.7266512  25.1873626  61.4675391  17.3180971  26.5993640
  61.7463023  16.4906113  27.0815847  60.7863784  17.6294526  27.2512036
  78.2514263  21.0840078  32.9262683  77.7775107  20.4197132  32.3852254
  78.9576344  20.5220005  33.3614225  59.9078817  20.3751421  10.8585623
  59.4595288  19.9831154  10.0993449  60.7720563  19.9142074  10.8629845
  22.3152752  49.2905232  81.1508509  22.6147316  48.5099149  81.6694650
  22.7893038  49.9878217  81.6299535  67.8736274  26.2196052  24.6387559
  68.7157134  25.6124061  24.7135050  67.2387005  25.5326641  24.3786480
  70.6957335  25.2437201  21.3647576  70.7528039  24.9983222  20.4576835
  69.7288887  25.0459692  21.5765165  48.8007475  31.4039871  21.8813996
  48.2190090  30.6855549  21.5832682  48.8564210  31.2515297  22.8321084
  74.5594457  15.2566629  27.3264564  74.4830744  15.6895323  26.4307344
  75.0368255  15.9985896  27.7973780  57.7680816  25.5656808  29.5741793
  57.1853361  25.9158188  28.8450734  58.3306162  24.9516469  28.9499079
  55.0658555  21.9399364  35.7728367  55.2338124  21.3324405  34.9668709
  54.8222799  21.3465248  36.4641729  27.8883684  73.9528235  25.4984913
  27.3657525  74.7350986  25.1917287  27.1097801  73.3574923  25.7097938
  62.9507564  37.6310929  30.1699571  62.8770119  37.6277275  31.1476145
  63.0674216  38.5452929  29.9576740  77.0173434  36.9264277  29.6186891
  77.7631799  37.1096658  29.0150344  77.3098497  37.5071700  30.3969842
  56.1996936  10.1096647  15.8606542  56.9485721  10.4673666  15.3340256
  55.8301660   9.4346291  15.2476796  59.7102388  14.1470392  40.3643441
  60.5021042  13.5698761  40.1185289  60.0258186  15.0028513  40.1004169
  78.1870077  41.2306179  30.5402041  77.3891341  40.9902998  30.0209738
  77.8239001  41.8346501  31.1884030  69.8418922  50.3998870  31.3921515
  69.2993757  49.6461154  31.8380255  70.7021961  49.9038934  31.3450622
  57.8356777  46.6568531  29.4943120  57.9596917  46.0491531  30.2520817
  58.7335105  46.5862065  29.1099698  70.5934744  39.7912301  39.1174562
  71.1422773  39.7736901  39.9247031  70.6939100  38.8221678  38.8752010
  67.5142474  39.5562614  26.3575710  67.8209791  38.6240309  26.3184938
  68.3519248  39.9787032  25.9719770  63.0321108  26.4569037  20.6375999
  63.7420768  26.9002043  20.0738745  62.8746483  25.7015913  20.0780757
  57.4810011  27.8319096  26.4520662  57.7036828  28.6910647  26.8864906
  57.8159201  27.9432229  25.5518465  71.0998362  41.3046842  22.5199408
  70.3697763  41.8834126  22.8148023  70.6122110  40.4774268  22.2938293
  69.3244754  28.4425826  18.6100194  69.8899259  27.6350059  18.6611183
  68.4547858  28.1480400  18.9157580  74.9227901  30.8204164  22.8656600
  74.3248838  30.1847035  22.3232915  75.1895474  31.3872914  22.1636343
   8.1262850  33.2342075  28.8400284   8.9685306  33.1646136  28.3170713
   7.9276325  34.1790605  28.5656235  70.8527776  37.0536288  27.3577618
  70.8373214  36.0525777  27.5019303  70.1221918  37.0709607  26.7094310
  68.4497545  36.8085413  25.9026574  68.8569596  36.0575041  25.3871207
  67.7704267  36.4145610  26.3932760  74.0790355  35.1962284  19.2238431
  73.1390795  34.8901509  19.1102677  74.2956952  34.6414905  20.0138182
  59.0075247  19.3068754  29.4246945  59.4208479  20.1576226  29.6111963
  58.0805125  19.5578268  29.5517211   3.6311419  25.7393044  40.5786119
   3.0777528  26.5387656  40.3758936   3.1092498  25.4388884  41.4046194
  73.3713278  24.7983783  25.0942653  72.7256228  24.0940622  25.0574184
  74.1868599  24.2583319  24.7966352  66.0035706  26.8632573  35.5039342
  65.1840071  27.0776316  36.0334178  66.6319423  26.5833713  36.1576972
  60.3826802  28.9927409  20.4881931  60.1103415  29.8514178  20.9072442
  61.3297680  29.0480547  20.5882652  71.4744572  22.6849016  26.0467254
  71.2565940  22.6323152  25.0916852  71.7491129  21.7146242  26.1762241
  65.8196641  20.3639557  20.0187312  65.8872255  19.6265306  20.6756853
  65.0417222  20.8268646  20.4814516  56.3132286  25.5869853  27.4276587
  55.3571638  25.6492017  27.1985644  56.6163136  26.4482454  27.0204731
  67.7569518  48.7950397  24.5374833  67.1909401  49.4725161  24.0704169
  68.5691439  49.2835975  24.5726602  72.7147013  38.1214213  49.0464633
  72.6190619  38.2241761  50.0056993  73.3353705  38.8239498  48.8184738
  71.2431925  22.5842938  29.7897771  70.7016258  23.3947225  30.1000895
  70.4967672  22.1386117  29.3524685  75.6488397  40.5985130  26.8814392
  75.0835102  39.8201353  26.9802089  75.6056160  41.0028349  27.7755346
  68.1554720  26.7953745  50.7235973  67.9004468  26.4279851  49.7986210
  68.6972211  26.0019227  50.9933863  74.3006976  32.9863712  20.9070329
  74.2783128  32.2774621  20.2207930  73.3377614  32.8727172  21.1947693
  72.0731934  35.1992730  29.9768776  71.9365265  34.8069059  29.0696938
  73.0768293  35.0808542  30.0681662  77.4909027  36.2416468  25.8556126
  77.8448228  35.3374703  26.0940805  76.5311747  36.1223320  26.1365867
   6.4647557  28.9486808  22.9749057   6.5187286  28.1370871  23.5053917
   7.3600362  29.0312412  22.6896899   6.4242876  34.5567736  35.9052089
   5.6703555  34.3635985  36.4988352   6.8017065  35.3836427  36.3617814
  66.8970636  33.2858834  29.8442523  67.2786404  32.6868458  29.1194533
  67.3378113  32.8930998  30.5864883  70.1218998  30.0054268  29.0520563
  71.0870353  29.9786527  29.1059991  69.9635139  29.1101879  29.3587779
  66.7197870  33.5711735  33.2409838  66.8030901  33.5882479  34.2283854
  67.4270660  32.8786430  33.0290520  77.7356431  41.0547786  34.3918119
  77.6333210  41.5303518  33.5148854  77.3453445  41.7522137  34.9408478
  68.5830251  25.8762261  16.3874845  69.4322649  26.3333625  16.5312904
  68.8978760  25.0312782  16.0492689  65.1350886  25.5834644  33.1489139
  65.6230436  25.8749804  33.9370822  64.2652581  25.3771099  33.5826116
   9.6326072  37.0073559  25.2399662   9.7129187  36.2777868  25.9233074
   9.4313775  36.4305252  24.4594276  58.5762688  30.3391562  26.8437270
  57.8570717  31.0132346  26.9651626  59.3347931  30.9266380  27.0890234
  65.8779365  29.4274172  34.8473775  64.9389677  29.2307064  34.5675526
  66.0428169  28.5031855  35.2507062  62.2963004  20.8492921  38.9719078
  61.3797252  20.6883983  39.3676534  62.4234183  21.7802365  39.2666603
   0.7862266  39.4346098  16.6999058   0.1319604  38.9865638  17.2544722
   0.2916567  39.6228560  15.8980506  66.3998377  35.1338752  22.9590008
  66.6072775  34.9607626  22.0356658  66.8229691  34.4184386  23.4022504
  55.6798952  37.4962289  28.8460909  54.8175609  37.1503387  28.4937651
  55.5399247  37.1603856  29.7777184   5.9940978  35.8180909  33.4802555
   6.3620542  35.6348224  34.3458268   6.5327506  35.3082784  32.8858482
  71.1383331  32.0774641  50.7809225  71.2827796  31.9999356  49.8131774
  71.8142549  31.3775413  51.0264726  63.0533961  28.9003126  33.9204848
  62.4401079  29.0974682  33.1439979  62.4991833  28.1781156  34.3025390
  63.6565296  46.8431034  45.9552193  64.0659537  47.7285914  46.0347489
  62.7118615  47.0664999  46.1124425  65.0960675  29.2737424  25.7387305
  64.5873220  28.5015118  25.3938906  64.9943759  29.8958912  24.9880857
  77.5964275  45.4593892  17.7965834  76.7240481  45.7211594  17.4595621
  77.3480986  45.1208809  18.6866431  63.8362181  40.0720488  33.5347673
  64.4935186  39.4255679  33.2489041  63.2279814  39.4703033  34.0265851
  63.5824688  21.3508688  30.1651749  64.4928818  20.9690512  30.2375311
  63.0445557  20.5434045  30.4151051  56.4576282  30.4595630  13.5215060
  57.3760182  30.6579256  13.9020037  56.7539044  30.3446895  12.5520897
   0.2712211  27.7849460  22.9455518   0.4904338  28.7366800  22.8950819
   0.0012358  27.5433083  22.0422766  75.7370137  16.6613730  37.1079984
  76.3811448  16.4980338  36.3679224  74.8972503  16.4811785  36.5833776
  74.5967333  14.3883706  29.8291381  74.6788998  14.6425668  28.9287326
  74.2835541  13.4390153  29.7738336  71.9492044  33.0431371  21.9263334
  71.9160708  32.9787369  22.9172173  71.2552253  33.6571885  21.7843141
  67.9371010  46.9735340  14.2954727  67.7556782  47.3944232  15.1479690
  68.7267727  47.5356614  13.9478575  67.3699615  28.8693810  23.7624382
  66.8065810  29.0936311  24.4802772  67.6759492  27.9522836  24.0640116
  69.6278152  34.4996104  21.3660971  68.7182593  34.4803056  21.1819421
  69.9089330  35.3875096  21.0725828  71.9504360  37.1178809  14.8695169
  71.4174010  37.6735767  15.4599682  71.3712012  36.3122507  14.8811381
  58.8047456  31.6725496  35.1213261  58.1308888  31.9792297  34.5170007
  58.2782227  31.8080194  35.9688759  73.8138326  29.6044331  25.2832338
  74.4603892  28.9722144  25.5248063  74.0170521  29.8028892  24.3256854
  65.9803420  20.4003034  30.8649772  66.6448805  20.0161372  30.2823780
  66.3833130  20.3852875  31.7239153  72.3294656  20.7959199  22.4516629
  71.9773532  21.6487454  22.8336709  72.4120659  20.9958757  21.5164606
  71.1084820  27.3860996  15.6129906  71.1988122  27.5957039  16.5454096
  71.8409005  26.6874378  15.5109367  51.1008331  14.3636363  72.3153356
  50.5135460  13.6779059  72.7668941  50.5847898  14.4186369  71.4822538
  65.7392288  36.0389409  32.5147385  66.0793343  35.1417387  32.8607996
  66.3189604  36.6300640  33.0435841   1.1103326  34.1819438  23.3212823
   0.3762856  34.7502065  23.0644143   1.7488896  34.2640364  22.5421058
  78.0142171  37.6296184  20.0753334  78.8200496  37.5812370  20.4910220
  77.3292311  37.3098595  20.6895836   8.0320972  31.0727438  25.3155106
   7.0425565  31.0250541  25.3813074   8.1845284  30.0947977  25.3981798
  69.4888679  27.7856460  30.4939193  69.1593397  27.8630654  31.4559031
  68.5964708  27.6112254  30.1552746  55.5238638  33.4437426  24.9828997
  55.4526749  32.5804285  24.5821731  55.2419538  33.3229751  25.8594356
  67.2209484  27.6568281  27.0004217  67.3481252  27.0516521  26.2932763
  66.4268549  28.1643840  26.6886408  51.5317615  41.9885009  15.7195579
  52.2364353  42.4965954  15.3007366  51.0886985  42.6889355  16.1767510
  67.8780314  41.3748021  28.2378373  68.8237071  41.1047850  28.3365468
  67.6880262  40.8304827  27.4310411  67.2079196  34.3185226  20.2612198
  66.9988546  35.0514222  19.6021263  66.9336748  33.5524507  19.6899693
  68.0926818  43.3481900  19.6782586  68.4355450  43.9539078  20.3792636
  68.2063337  43.9159262  18.9144203  59.8809491  39.2410089  27.3424978
  59.6558450  38.4398076  26.8055049  58.9481691  39.5177720  27.5444829
   0.0855619  22.0729775  43.3454148   0.9466407  22.5932379  43.2456323
  -0.3461510  22.7106782  43.9816755   3.3357150  42.8997037  21.5827088
   3.3856426  42.3336363  20.7968486   3.2747851  42.2184662  22.3030529
  62.4719972  31.7905845  32.2019805  62.1412438  31.0211827  31.6357179
  63.4166074  31.7734196  31.8478839   1.4022250  27.4141772  32.4063822
   1.0242299  26.9550431  31.6318322   0.8340226  28.1779025  32.5040121
  66.4962483  37.9384664  20.5001159  66.5705000  38.0053456  21.4866012
  65.5092916  37.8246924  20.4503096  72.9786193  42.1228810  34.4815794
  71.9749306  42.2117286  34.4237830  73.1626252  42.1420267  33.5144638
  59.8285235  37.3354396  33.1198780  58.8471540  37.2020597  32.9923631
  59.9899408  38.0171446  32.4055926  67.1470333  24.1705225  32.1538152
  66.3582729  24.7005128  32.2900056  67.7561056  24.5079393  32.8613220
  70.0597867  29.6701730  34.5122671  69.6707184  28.9802464  33.9730827
  70.9212289  29.8520382  34.1175221  77.9281194  34.7988815  33.6019342
  77.7340578  35.7874101  33.5773979  78.0910389  34.6283505  32.6526463
  69.9151971  38.3211908  35.6216404  70.7346882  37.9030410  35.4777458
  69.2702164  37.5758980  35.5345780  77.1754993  28.4738604  42.3171025
  77.1264786  29.2634893  41.6995927  76.2242246  28.4942647  42.6180090
  69.7312896  33.9501471  38.3131428  69.9723977  33.0059012  38.1587382
  68.7812063  33.9376750  38.3246602  71.7022321  38.1090556  29.8270600
  71.0549302  37.6832376  30.3327985  71.7585938  37.6224443  29.0087512
  63.1633429  47.0924297  13.9398333  63.7459659  46.4265186  14.3230438
  63.2902203  47.8405775  14.4979056  71.5069578  34.2344089  19.0450498
  71.0810114  34.1540336  18.1815785  70.9392743  33.7320784  19.6295327
  60.9339921  31.6041534  27.4780553  60.9768020  32.2275085  28.2049999
  61.5961930  30.8893449  27.8469193   3.9407964  28.0512734  15.8543462
   3.4716094  28.9057941  15.8851037   4.4471694  28.1840890  15.0010070
  64.4456884  32.5923060  17.8540013  63.5865690  32.1916087  17.8835415
  64.3639812  33.2192372  17.1552357  75.9736903  38.6433394  35.2292146
  76.7142909  39.2875241  35.3833463  76.3859632  38.1426686  34.4392794
  56.8569356  24.8917349  31.9841733  55.9754295  24.5750091  31.6778347
  57.3004978  24.8541286  31.0860301  73.2799521  34.9772564  34.9113769
  73.7634165  35.4077329  35.6096714  73.9679140  34.6773321  34.3074461
  70.7993819  30.8780432  17.8925402  70.4142851  31.4033537  18.6666068
  70.7126290  29.9694954  18.2254275   3.8801953  30.5865011  40.2678349
   4.3426728  29.8770956  40.8085962   4.1687619  30.2739574  39.3819237
  59.0572894  37.1818695  25.7012382  58.5350000  36.4365635  26.1009266
  58.9510203  37.0302462  24.7566931  74.6251585  27.4572446  15.6939138
  75.3656163  27.0357291  16.2364038  74.1876368  26.6641753  15.4141273
  63.4033327  42.3216682  24.5099968  63.4804182  42.6974703  25.4207332
  62.8864231  41.4964444  24.7312405  63.6845543  31.9609758  25.7667749
  64.5703052  32.3739123  26.0490093  63.7244545  31.1566707  26.3407264
  72.9750651  25.4502264  15.4140883  73.1849117  24.6922496  14.7729525
  72.3839891  24.9507960  16.0231168  78.6628006  46.6968815  28.2088728
  78.5382953  45.8696471  27.6718592  77.9271862  47.2376382  27.9169593
  73.4389638  47.2004834  27.3861070  73.7258800  48.0630637  27.8102314
  72.7718930  47.5662451  26.8120416   0.3134820  37.5319641  27.8807386
   1.1024540  37.0010842  27.8999767  -0.1169934  37.1653910  27.0873084
  73.3409621  29.3283786  21.2240755  73.5001309  29.6797928  20.2962723
  72.3949284  29.1594280  21.1727563  66.6640456  44.4321739  23.4805822
  66.6255849  45.3406736  23.1240820  66.0543768  44.5487175  24.2729304
  72.2755254  39.3304224  25.9862305  72.6323391  39.0823658  26.8669330
  72.4397558  40.2612818  25.9165325  65.7510395  39.8456197  18.4220609
  65.5070837  40.5784815  18.9734972  65.8781798  39.1340634  19.0919870
  68.3104512  16.6864821  27.2491360  68.3693637  16.9379342  26.2964757
  67.7488611  15.8607835  27.1569574  66.2595174  21.7841805  39.4939870
  66.8456656  21.0271369  39.7655689  65.4231113  21.5747089  39.9606878
  68.3719240  43.2410585  38.5226343  68.6856728  42.3580232  38.1977316
  69.1728819  43.7543269  38.5207563  76.3139848  43.3441793  12.3161547
  76.2315151  42.3971950  12.3081730  76.7810429  43.5071977  11.4445434
  64.3485242  33.2963244  36.4164346  63.7700345  32.6448217  35.9460448
  64.5733782  32.7590750  37.2287788  66.9287872  33.9215997  35.8697478
  67.1087484  34.0479258  36.8499647  65.9851056  33.7849603  35.9259521
  65.4951809  42.2796482  19.6806585  65.1131453  42.0849966  20.5773118
  66.4452567  42.3942336  19.8688088  51.5801839  27.4885994  31.8599050
  50.6283891  27.3663859  31.5183176  52.0145584  27.5782226  30.9901068
  65.9865085  52.6671478  21.9470327  66.3392128  53.5621986  22.2455606
  65.0071267  52.9810987  21.9714870  64.3004714  24.9965925  40.1944389
  63.9752310  25.8032569  40.6677307  65.1991623  25.2779337  39.9700518
  75.0437662  38.4474097  54.6935041  75.6864539  38.2669517  55.4140646
  75.2151658  39.3934882  54.5152155  64.0553264  35.8256888  24.3360734
  64.7357971  35.4251116  23.7372469  64.5544361  36.6559983  24.6048550
  71.7684215  48.3317403  25.6688549  70.8591148  48.6529986  25.4021615
  72.2785136  49.0543470  25.1938931  66.9779371  25.7679837  40.3429454
  67.8436518  26.0817215  39.9625885  67.3679130  25.1130093  40.9811809
  70.7862129  43.3240556  30.8409157  70.4892420  42.3407789  30.7724597
  71.6235594  43.1727684  31.2890662  64.2674682  17.2405551  31.1656667
  63.6478049  18.0190406  31.1673114  64.9018059  17.5494743  31.8319122
  61.2809395  26.0323017  16.2623330  60.4450477  25.9419141  15.8030444
  61.0198340  25.9243883  17.2189332   2.0841890  26.0011487  16.5076831
   2.9565082  26.4947264  16.2725645   1.8571642  26.5993638  17.2761775
  60.5126854  41.1824392  32.9054290  60.7520028  40.4364712  33.5329924
  61.3692328  41.4156048  32.5652738  67.7394391  46.5875715  26.5239252
  67.6555636  47.3316089  27.1956435  67.6687520  47.1274797  25.6979396
  65.3513570  26.7852965  30.7496291  65.1893286  26.6392799  31.6795849
  65.2989846  27.7197097  30.6950010  70.9899285  14.5810508  25.1682982
  70.0781767  14.5662694  24.8258879  71.2769652  13.6603967  25.1271909
  77.1457375  29.8622652  16.0039577  76.4214899  30.4612660  16.1608781
  77.5260754  30.2826367  15.2035752  68.1792863  22.4149822  19.8973448
  67.4439664  21.7455704  19.6935191  67.7844374  23.2168498  19.5730213
  62.9101147  24.6816722  37.9075048  63.5551181  24.8969009  38.6000343
  62.1924837  25.3291125  38.1131812  69.4086113  23.2769477  37.3293560
  68.4566185  23.2681105  37.5659806  69.8185391  23.4509343  38.1725665
  67.6331076  26.3561321  29.3232148  66.8558892  26.2437271  29.9034091
  67.2985168  26.8502608  28.5768238   0.3041600  44.2077701  26.9473321
  -0.0081339  43.4554438  26.4390965   1.0494014  44.5531354  26.3598752
  62.9583517  31.6810039  34.8114180  63.0507822  30.7923280  34.3954254
  62.8175501  32.1623587  33.9878292  60.4574575  28.3659302  26.0787917
  59.8336023  28.8718775  26.6294669  60.6973532  29.0899533  25.4233114
  29.2656860  48.2232830  84.0047105  30.1989091  48.0650273  83.9051168
  29.2160746  48.5197761  84.9287037   6.3165682  43.1843318  20.9977198
   5.5323608  43.6818383  20.5963878   6.0455870  42.2900394  20.7991863
  70.1713491  24.6835924  13.2516248  69.7115333  25.5299324  13.5671389
  69.3197714  24.1504744  13.0845538  62.9335762  42.7013705  18.1804916
  63.6376936  42.5456169  18.7540815  62.1715017  42.4904433  18.7155844
  62.9585985  41.8225482  31.6663009  63.6351689  42.4810224  31.4473835
  63.3736286  41.4219237  32.5000772  69.3621806  52.9537415  37.2349726
  69.1479348  52.0571305  37.5303161  69.0627364  53.4789877  38.0123739
  65.9135430  32.9482910  26.5517389  65.8107560  33.7623769  27.0911091
  66.3497071  33.3314408  25.7570355  66.1302407  53.4932191  26.1021694
  65.6373486  54.3725371  26.2518278  65.3326615  52.9090165  26.2835906
  51.9524815  39.9683808  21.3221798  51.4107191  40.1757016  20.5167455
  52.7435857  39.5875217  20.8832180   2.4787230  42.2163115  33.2612214
   1.8872675  42.2211208  34.0536108   2.2932250  41.2857049  32.9446065
  71.2543580  37.2353584  40.2999748  70.5955822  37.4591354  41.0373332
  70.5760563  37.2905193  39.5170523  66.7581693  35.2158253  17.5041025
  67.1890378  34.5931407  16.7885760  65.9569915  35.4673370  16.9800613
  71.1817179  34.1727397  27.3679193  70.2379690  33.9031079  27.2577682
  71.5384956  33.3327602  27.0254111  72.9230652  25.9114522  38.2479307
  73.2123491  26.1413911  39.1535348  72.9556027  26.8188115  37.8559147
   0.2261054  45.5197240  32.5732033   0.3816153  46.4947277  32.3656632
   0.0289263  45.1784512  31.6895938   0.8147054  35.3189618  17.8372998
   0.8332454  34.4148256  18.2733768   1.4687204  35.2126326  17.1571975
  76.5865257  37.5088353  37.6114025  76.3512209  38.0652589  36.8382465
  77.0408042  38.1896123  38.1749658  61.1456746  30.5329523  24.7753027
  61.2258693  31.2813174  25.4402281  60.9851645  31.0785562  23.9604458
   0.6229055  20.6115333  21.0362671   1.1454574  20.0492232  20.4432789
   1.2788256  21.2843036  21.3039007  54.5867828  24.7668835  24.3763733
  54.3055171  25.3483996  25.0753531  55.2581803  25.2672402  23.9258540
  77.4098191  12.6684360  32.5162279  76.5332327  12.3786032  32.1779676
  77.2743447  13.6346783  32.5384178  70.5047153  36.7608342  20.0223736
  69.8267229  37.2738693  19.5208305  70.7702836  36.1011114  19.3713599
  77.5850728  33.1646897  40.8284579  78.2441479  33.7318735  41.2456457
  77.7630915  33.3754875  39.8621458  63.0583199   9.8048570  34.7057712
  63.1498549   9.2247561  35.5519176  62.3009603   9.4261327  34.3106132
  74.6692306  43.2502556  22.9559672  75.3453872  43.6474608  23.5512069
  74.5284526  44.0322078  22.4171379  66.8584366  32.0576408  18.6669766
  65.9427192  32.2086779  18.4499406  67.1733233  31.5063778  17.8930065
  70.7013587  48.3737120  28.7888973  71.2295351  48.7659501  29.5096023
  71.3351697  48.4534607  28.0603013  74.5266914  36.5094206  14.8614656
  73.6810634  36.9324593  15.2128877  74.8704332  36.0848524  15.6313142
  71.5834241  25.0620263  35.9823865  70.9316906  24.4857418  36.4317678
  72.2484214  25.1224598  36.7202199   2.3024604  24.1943361  29.8182928
   1.6906121  24.0983602  30.5134485   2.9214447  23.4234472  29.9278383
  77.0624580  30.1865020  28.2557345  76.3874355  29.8539746  28.8585445
  77.2229179  29.4097267  27.6554993  70.5469225  33.8697156  40.7945682
  69.8068249  33.2951111  41.0934055  70.4116178  33.7467736  39.7718281
   1.3061354  33.2937737  19.9077655   1.0856342  34.0594759  20.4569973
   2.2473250  33.0928374  20.1406336  65.2020803  41.7470332  28.8003829
  65.1780867  42.1420922  29.7397170  66.1819470  41.6540746  28.7589578
  60.2744393  33.1442244  32.8788062  60.2639558  32.6576494  33.6896147
  60.9552953  32.6079347  32.3392153   4.7901569  18.0633650  24.0180848
   3.9998666  17.8105312  23.5424275   5.1203696  17.2031078  24.3242808
  60.7329968   9.9947078  26.7529931  61.3623299   9.6174851  27.4402868
  60.1732048  10.5488606  27.2901448  64.8096137  24.0694293  17.4060279
  64.6579795  24.9817083  17.0856034  65.6949798  24.1788392  17.8290983
  54.0148405  33.6515716  21.9845934  54.1402569  32.9739212  22.8003223
  53.6648832  32.9717596  21.3604452  69.5067440  32.1920838  19.6506085
  69.0050902  32.1379868  20.4950125  68.8017421  32.6213231  19.0767346
  78.2020238  32.0838751  23.5086970  78.8831263  32.8188056  23.5099257
  77.4786297  32.5729574  23.0442743  61.1910994  33.3304763  29.6769823
  61.3345351  34.2755059  29.4014847  61.7843396  33.2725524  30.4268360
  63.4943652  53.4896654  22.1426879  62.8396060  52.7918977  21.9754873
  63.2695376  53.7622750  23.0572601  73.0057106  39.2369560  34.3829174
  73.9382290  38.9147958  34.2567354  73.1405604  40.1871790  34.3986129
  67.3794400  33.0017484  24.0804425  68.2571315  33.3727122  24.2679903
  67.5789520  32.2619548  23.4898005  75.8539909  36.7967717  21.7939903
  75.4564455  37.2409358  20.9915043  75.5598200  37.4252334  22.4942889
  77.9420995  28.2784545  26.3967310  77.7544428  27.3858008  26.0386727
  78.7940315  28.0705050  26.8638756  63.0682882  38.4845563  36.4309131
  63.7683433  38.8243668  37.0063912  63.3846688  37.5861067  36.1904758
  58.8062374  25.9446436  15.3709333  58.7930844  26.3884793  14.4693596
  58.2376015  26.5743670  15.8393025  63.2174154  30.2308097  19.5287780
  62.8702010  31.0093776  18.9906164  63.4419777  30.7030592  20.3597603
  74.7283831  38.3516024  27.7215257  74.6148909  37.9432239  28.5694110
  75.0930326  37.5954938  27.2075593   3.9199565  42.4744133  24.6664430
   3.5799403  42.2812573  25.5624541   4.7303019  42.9627126  24.8669589
  64.1628175  51.1496085  12.8948600  64.0574692  51.3373924  11.9666793
  64.8669875  50.4507786  12.8832910   2.3344231  40.0000638  22.2044759
   3.1131690  39.8986014  22.7445319   2.5813656  39.6159350  21.3407446
   6.0978716  40.4040452  21.3360528   6.9602324  39.9467315  21.4300606
   5.7626412  39.9255730  20.5389130  55.6425686  25.7953245  39.9079841
  55.1911556  24.9747046  40.1212575  56.1487874  25.9591144  40.7341038
  72.7743297  34.0243881  45.4853557  72.5184706  34.8998340  45.8655344
  71.9983397  33.7677999  44.9969990  71.5530799  33.3016471  16.5334699
  71.5180849  32.3356849  16.6494931  72.2734152  33.3831082  15.8108097
  68.3423073  38.5554142  31.0952853  68.6191062  39.3379220  30.5222105
  67.7528326  38.0985547  30.4316433   3.7406623  48.4531193  37.8123089
   4.2390206  48.2229560  36.9966342   2.9732066  47.8291313  37.7507567
  57.2329160   5.5073395  24.5488007  57.3926780   4.6420335  24.9328319
  57.8171425   5.5039391  23.7859335  16.2893399  51.4837202  15.5814226
  15.4536510  51.2697261  16.0192647  16.8804814  51.6626310  16.3270043
   4.1436130  56.7050110  28.7400152   3.8706695  57.5797089  28.3226027
   4.3842557  56.1996529  27.9711813   9.9822279  38.9716805  36.5284117
   9.8595592  39.6929475  35.9536349   9.6139414  38.2014939  35.9999320
  65.3813971  52.2438455  30.3857728  64.6933486  51.5847869  30.1783883
  65.7921211  51.7721868  31.1917676  78.1097329  58.7795699  23.8135217
  77.3885961  59.4454075  24.0565994  77.5666813  58.2067586  23.2191035
   2.3853372  42.1793137  16.2413901   1.7237929  41.5042960  16.1638088
   1.7888121  42.9220622  16.4503620  74.4868346  55.8427895  40.0064312
  74.7907610  54.9884985  40.3977376  73.5572718  55.8434379  40.3103934
  78.4595265  59.7303042  32.3055888  78.5675587  60.2751600  33.0642813
  79.0954890  59.0061778  32.5182902   6.2082191  37.5803964  24.1486788
   5.9489459  38.4859065  23.9091774   7.1512704  37.7657369  24.4255984
  70.4702638  37.5040429  32.7465313  69.7567288  37.9343915  32.2721490
  70.9439222  38.2291224  33.1527442  10.5224325  43.6871836  17.8330532
  10.2365417  43.6194024  18.8046539   9.6804147  44.0594667  17.4759571
   4.3595275  45.6918047  24.0391024   4.6576085  46.6014568  24.3284813
   4.3529111  45.8027850  23.0847070   3.3482926  53.7753495  23.1398241
   3.4205400  52.9076387  23.6110043   2.4496877  54.0800262  23.5395002
  53.2370282  11.2530983  69.2153377  52.5945413  11.8069712  68.7224084
  53.7420165  10.8221672  68.4544823   8.5531994  38.9380352  38.7036416
   9.0691245  39.4221902  39.3637681   9.1929755  38.9787064  37.9481600
  65.8548131  49.8782199  35.3086471  66.3148898  50.7843146  35.5852368
  65.6550174  49.6223310  36.2310865  77.4210646  44.6124195  14.3956243
  78.0365053  45.1258917  13.8074300  76.8574064  44.1963913  13.7279694
   3.9525708  34.3260368  37.1771939   3.3208847  34.9919548  36.7387882
   3.5112789  33.5261461  36.7890062   1.9823344  52.3636979  18.1506123
   1.0160949  52.2948646  18.0611571   2.0196429  52.9396725  18.9638828
   3.6382599  39.0909445  41.3926542   4.6042511  39.0365820  41.1176125
   3.5295811  40.0634360  41.1825021  71.7299837  55.1705755  38.3241648
  70.8190689  55.4160313  38.4816871  71.6700416  54.2121596  38.6305527
  77.3841863  42.9387558  32.4110199  76.6096233  43.5130900  32.5923307
  78.0665994  43.6380759  32.4553905   0.4360085  46.0176128  35.3153547
   0.4110970  45.6062258  34.3788054   0.5780479  46.9565293  35.0009017
   8.6754659  44.2538642  26.3432288   8.6464380  44.4315727  27.2856452
   9.1911870  45.0012933  26.0133389  77.3030628  55.2088364  31.1781534
  78.0090532  54.7705502  31.6016420  76.5484513  54.5947728  31.2754041
  75.2791783  60.3396139  31.6844857  76.2019759  60.5490537  32.0716989
  74.7153111  60.8492306  32.3139641  67.6321992  46.9295881  21.8556287
  67.7645366  47.7328430  22.4027851  67.0445924  47.3001702  21.1511212
   5.8956160  41.6928146  31.7665985   5.1184385  42.2771597  31.6728266
   6.4165348  42.1476894  32.4486288  78.6340910  51.4866877  34.6198134
  78.9539163  52.3919296  34.7641192  78.4049914  51.2564036  35.5447428
  77.8554058  39.5762803  25.3103742  77.2903900  39.8950443  26.0084799
  77.2388071  39.5147478  24.5373273  77.3589883  56.6555198  38.5979111
  77.1291346  57.1139903  39.4505069  76.7274038  55.8972722  38.6431302
  73.4834786  41.6610845  25.6454093  74.3492381  41.2585616  25.7506360
  73.5100195  42.0695363  24.7681618  71.3278030  59.7771246  21.1606431
  71.1718389  59.9719463  22.1360718  70.3730477  60.0097246  20.8455598
   2.9091190  37.4023618  38.7147197   2.8775183  37.7604128  39.5995883
   3.8531555  37.1574258  38.6755679   8.9003803  63.2155860  25.0460847
   8.3151812  63.0654507  24.2923821   9.6517360  62.6067919  24.8492873
   3.7741105  61.4846924  37.7337591   3.1845773  62.1147997  38.2147324
   4.6231776  61.9566069  37.7561392   0.4841312  53.5239122  31.6439554
   0.9701376  52.6349275  31.6092950   1.0892941  53.9514049  32.3554612
  76.5784850  48.5375742  27.5228387  76.3026551  48.6157096  26.5928894
  75.8291116  48.0302748  27.9048168  74.6809433  58.5116896  39.2285023
  74.7610060  57.5201561  39.5532230  75.4980835  58.8262331  39.7608889
  74.5672267  59.3685060  35.3161623  75.2538795  59.9345001  35.7948123
  73.7876480  59.8444719  35.5597916   9.2779715  50.0067762  32.0877921
   8.7852972  50.1670253  31.2555338   8.9475144  49.1133220  32.3456318
  73.9656658  43.2068888  29.5846491  73.4756702  43.4982091  28.7963958
  74.4814762  44.0162018  29.7819601  77.9721709  46.7840235  24.7413248
  78.8638870  47.0512552  24.9464518  77.5323775  47.7132858  24.9712009
   3.1007953  45.6758084  18.7312682   2.8642039  45.8491980  17.7851456
   2.4163465  46.2364422  19.1851624  75.2647016  45.5456315  29.8803817
  75.1307455  45.4634844  28.9278756  75.4127393  46.5172755  29.9822299
  11.5206684  49.2409380  12.9022175  11.2179385  48.9676978  12.0373047
  12.4716549  49.1681965  12.8098908  74.9838072  51.8207782  36.4173834
  74.9317050  50.8125986  36.4249339  75.5219670  51.8974849  37.2526463
  74.7541797  49.2131327  36.4709860  75.2701742  49.0174720  35.6389823
  73.8286177  49.0460092  36.1722889  13.8923439  47.7592740  19.8858891
  13.1976950  47.6832928  20.5685750  14.1521395  46.8188031  19.8649682
  66.8356455  56.3569255  16.9094219  66.0557895  56.0940799  16.3487449
  67.2888227  55.5099666  17.0065891   7.7037206  44.3300901  23.1132536
   6.8721447  44.1575399  23.6426425   7.3482028  44.0131443  22.2836779
  76.4453547  34.0171040  22.3712147  76.3363016  35.0079556  22.4572402
  75.6728585  33.7664933  21.7770053   4.6975894  35.7932040  16.4552725
   4.9104583  36.7076230  16.1605446   4.7176326  35.9523578  17.4515708
  44.5901107  31.6427964  77.8796876  45.3068589  32.0418634  78.3675099
  45.0926112  30.9611055  77.4547756   5.7494455  39.3924187  27.4188632
   4.9811258  39.3897862  26.8336484   6.4410917  39.7785196  26.8483582
  78.3360719  44.8873836  30.1173894  77.3756141  44.8127973  30.0139047
  78.5311502  45.6386003  29.4726276   2.9296289  51.2339049  24.1455906
   2.2391751  51.5451801  24.7581187   3.4300465  50.6420848  24.7907602
  72.6815936  50.5154119  20.0547251  73.1245585  49.6216459  19.9827814
  72.0699080  50.3109426  20.8044885   6.1567051  42.6579251  28.4894863
   6.1202875  43.3077485  29.2448183   5.3095255  42.8223007  28.1351402
   6.0324067  53.1759683  18.2071022   6.2605935  52.2351384  17.8859489
   6.4730782  53.0306474  19.1005147  74.2708311  48.0370001  20.0774710
  74.3331180  48.0762953  19.1029661  74.4899368  47.0803378  20.1914965
   4.2836078  45.3153913  21.2290186   3.7851384  44.5127076  21.4352347
   3.5740092  45.8251177  20.8059109   6.2365017  35.3071336  25.6851097
   6.1981803  36.1757070  25.1614549   6.1448306  34.6679968  24.9526196
   3.0293957  34.6762747  29.7714451   2.9770958  35.1172779  28.9202111
   2.3450814  33.9574473  29.6928718  77.8185371  54.4047980  35.7443134
  78.6268123  54.1481855  36.1603354  78.1169658  55.0557900  35.0845467
   1.4573669  56.7765694  42.1227516   1.8348680  57.5588485  42.5511840
   2.1902287  56.1988309  42.0896976   0.0809868  41.5934371  22.8771788
   0.8168889  40.9685646  22.7745208  -0.1978139  41.6464731  21.9761691
  66.4079541  55.2824783  22.6616360  66.9601077  55.5769633  23.4615593
  65.5217065  55.4899218  23.0628895  64.8929689  45.2820251  33.7862998
  65.5191421  45.9876537  34.2278701  65.6323123  44.8636854  33.2870103
   4.9192988  39.2560293  35.1493337   5.7875932  39.2204937  34.6790008
   5.2182814  39.3462389  36.0887107  76.5211836  46.2017324  40.3438733
  76.8184750  45.2818019  40.1666073  76.0320147  46.3825785  39.5376767
   1.1115749  64.2683790  37.5041472   0.3210757  64.5533712  37.9613966
   1.7048170  63.9884228  38.2233845  74.5369934  47.3461542  14.0559065
  75.1856009  47.4825561  14.7421707  75.1542583  47.3191223  13.2765227
   5.0247166  51.2174745  29.2702171   4.2631633  50.7359024  28.8431418
   4.5887765  51.9827231  29.5751754   4.7038300  37.0985256  28.4687433
   4.4445293  37.1525817  29.3648305   5.3482582  37.8690970  28.4032989
  77.7066844  52.2525504  29.6991424  77.1052590  52.8603506  29.3264176
  78.2684342  52.8487147  30.2725040  73.2525831  35.0274500  39.7118581
  73.1256847  34.2676290  39.0967798  72.3825179  35.2751840  39.9467414
  25.2484339  -2.6479786  22.1146202  24.3968492  -2.3536911  22.5029677
  25.6218294  -1.7495768  22.0005516  47.0187434   9.6568544  71.3918446
  46.9725248   9.2600737  70.5143512  46.1412821   9.4868227  71.7947844
  59.7284389  43.6310623  36.1271507  60.3920039  43.0494588  36.5379673
  59.9919776  44.5020462  36.4593613  68.0867577  48.6429062  28.3612577
  69.0455686  48.6200000  28.5072520  67.8564326  48.7671083  29.3532851
  72.2224625  49.1388512  30.9311612  73.0211198  49.7090125  30.9121836
  72.3610147  48.7397441  31.8274582  74.9356037  49.2538819  22.3962643
  75.0956814  48.6750432  21.5511131  75.5508799  49.9809161  22.0856264
  74.8396827  63.5082998  28.1651187  75.0856570  62.5565125  28.4287869
  75.5885730  63.9293934  28.5868111  70.5593932  57.5588233  34.2827168
  70.7264264  57.7543203  35.2238743  70.4059194  56.6271611  34.2347506
  78.5089187  50.4898872  27.7111038  77.9891425  50.9230256  28.4600035
  77.9952249  49.6320232  27.8023794   2.2503666  55.0482857  33.3657558
   3.0401718  54.4184510  33.1694901   2.1675274  54.8308924  34.3156255
  66.7167555  56.9347045  39.2089886  66.0818896  56.5018738  38.5595681
  67.0233961  57.6681337  38.6096285  48.8075675  25.8946477  80.3596969
  49.4032313  25.5358833  79.6776507  48.9619794  25.2422074  81.0474136
  73.3778778  56.1910782  23.1478439  74.0882666  56.3303809  23.8221516
  72.6560489  56.7151295  23.5294135  73.6385993  50.0551094  28.2142101
  74.4260264  50.3834810  27.7485128  73.7207813  50.6228855  29.0324782
  65.4690393  57.9186026  30.1387695  65.1213555  56.9866460  30.1428495
  64.9767635  58.3105200  30.8652009  75.4143587  51.4212253  26.4898998
  75.8312470  52.1003619  27.0757425  75.3509044  51.9875207  25.6598782
   2.4920675  64.8501360  23.0181130   3.1824942  65.5786185  22.8405246
   2.4939286  64.8192202  23.9420792  62.0825741  34.6099699  26.0967635
  62.6733878  35.0444543  25.4259235  62.5267000  33.7731945  26.2345409
  67.5582641  45.9858117  32.0804398  68.0909575  46.3208461  31.3232645
  68.3020781  45.5426585  32.5977718  13.3385481  34.5324158  19.7621141
  13.8975074  34.2221508  19.0100640  12.4472288  34.3823247  19.3873468
  64.7467389  60.4145922  37.8010641  64.6972056  59.7440204  37.0566179
  63.8153398  60.7308462  37.8680853  63.0694153  45.0643095  35.9701923
  62.4140441  44.3954762  35.6787731  63.5011430  45.2586318  35.1013669
   0.7744043  55.4241319  58.1744746   1.3605891  56.0172337  57.6412861
   1.0198498  54.5492523  57.7566479   5.6287228  38.8351109  19.0708044
   5.6704083  37.8650604  19.1428834   4.8204867  38.9368305  18.5667544
   5.2478974  51.0100045  22.0979615   6.0139470  50.6865177  22.5959242
   4.5737191  50.9893517  22.8113506  71.2231687  45.9372222  24.8287662
  71.3144343  46.1160409  23.8819882  71.6293786  46.8150445  25.1608595
   5.6102175  39.6915675  37.7150801   6.4161017  39.7015779  38.2135717
   4.8953792  40.0670688  38.2898432   2.7361204  46.1437950  28.8564534
   2.8768389  45.3386214  29.3771337   1.7916205  46.0788368  28.6304482
   0.2508347  46.0366447  21.7923314   0.6533921  45.3703958  22.3800596
  -0.3945405  46.4619721  22.4022147   6.3204959  51.3273529   9.1016865
   6.4732692  50.8450706   8.2180565   6.1480938  52.2265029   8.7895591
  69.3342311  44.2742342  25.7806147  70.1914260  44.7001446  25.4329211
  68.7442823  45.0515744  25.8468411   9.3049595  36.9668782  29.1438558
   9.6519359  36.6819198  28.2487224   8.3793766  36.5794877  29.0973869
   2.4952544  36.0945640  27.4536296   3.1401496  36.8543671  27.4303982
   2.7435358  35.6460247  26.6076875  59.1332263  54.4373419  26.8611966
  59.0830964  55.0786021  27.6238716  59.6546770  54.8827743  26.2189724
  77.9005294  49.8070880  30.6895928  77.6552465  50.1022267  31.5711678
  77.8391597  50.6702774  30.2104566  75.8041453  41.6189871  17.3531727
  76.7240505  41.7848667  17.5851833  75.4849678  41.2810070  18.2190060
  63.6305605  54.4167732  29.3688124  63.9189257  54.6435447  28.4620156
  64.4149215  53.9444047  29.7085023  67.1601565  63.2206116  34.1899208
  66.9785209  63.9489094  34.8250695  67.5361103  63.6997856  33.4335033
   8.5048013  63.0552383  17.1591746   8.1514350  62.2775663  17.6841542
   8.8038615  62.5757812  16.3398379  77.5608836  63.8592889  29.2067958
  78.3327851  63.5163231  28.7000313  77.7624619  63.3885954  30.0402048
  70.1181361  61.9695262  37.4976879  69.4452574  62.3326066  38.1855706
  69.9511278  62.5379313  36.7428837   0.2164032  51.9626016  22.2690230
  -0.0437709  51.0116017  22.4231456   0.6048810  52.1108888  23.1952357
   0.1112123  48.2884953  39.7106178  -0.7480627  48.1291867  39.2753526
   0.6815644  47.8430540  38.9974642  11.6647875  70.1788504  24.2981819
  11.9607230  71.0041595  23.8686433  10.7403949  70.1113305  24.0327439
  73.8575287  39.4496805  31.0607574  72.9635813  39.1897260  30.7140834
  74.2035961  38.5854648  31.3225443  53.6951035  24.0805398  81.3917781
  54.0899865  24.5012756  82.2287342  53.1091458  23.4172664  81.7724138
   0.8549269  47.7837762  30.8061311   1.4205761  47.9020417  30.0556238
   0.1590975  48.4453027  30.6821732  69.2339290  39.2585376  22.3131484
  68.3490569  38.9729124  22.6403004  68.9222607  39.4468915  21.3681286
  70.2041093  40.4793980  30.0438570  70.7415061  39.7327470  30.1989564
  70.4839818  40.7207986  29.1329223  78.0567023  52.0392040  18.3361454
  78.0458802  51.0540772  18.5944118  77.1885989  52.0492507  17.8894447
  62.7333818  51.5901961  16.1149921  62.1997144  50.9448696  15.6509933
  62.4480434  51.4453624  17.0639820  78.2185638  52.5113185  47.4179881
  79.0722478  52.4803994  47.9793274  78.6222780  52.9491640  46.6249646
  46.5953379  13.5169041  69.0911855  46.6182057  12.6685079  68.5039806
  46.7236867  14.1460917  68.3492106  75.4340567  44.8822261  16.2990801
  76.2888708  44.9351545  15.7109360  75.6208529  43.9134025  16.5231962
  75.1004993  55.6739155  25.0861491  75.0233618  54.7936048  24.6890870
  75.1141341  55.4088101  26.0420494  75.6306638  41.1588359  29.6452571
  74.9962398  40.5467637  30.0814180  75.0658103  41.9530610  29.5114301
  69.4677989  46.3943090  30.5076010  69.6091083  45.5054366  30.0823145
  69.7637678  46.9584127  29.7244182  13.8704682  57.5305385  25.5095763
  13.3345434  57.0622644  26.1481194  13.2979227  57.5947422  24.7333655
  70.3316349  41.0875065  12.4762705  70.6045810  40.1203975  12.3581941
  70.2963103  41.1018050  13.4825073  66.6216213  47.2083466  35.0016690
  67.5460732  47.2849003  35.3333032  66.2979922  48.0942193  35.2243900
   1.4067199  53.2304754  42.6837892   1.9047614  52.5526105  42.1802993
   1.0926291  53.8536020  42.0445168  77.9451384  50.7286156  37.0032397
  77.3753227  50.9276367  37.7861598  77.9168105  49.7521658  37.0574263
  72.7508773  60.5858773  33.1065258  73.4682054  59.9278977  32.9394874
  72.5144175  60.4290289  34.0423510   3.0488282  61.5372297  29.0318991
   3.5029751  62.3570801  29.1354632   3.0543363  61.2491454  29.9837172
  71.4114857  57.6673566  24.1898422  70.6435195  57.4514376  24.7348163
  71.1168359  58.5880215  24.0104096  76.4665591  67.3490536  27.3185063
  77.3596475  67.7435904  27.2573187  76.3388794  67.3939943  28.3064958
  67.0452190  38.1498914  23.1325138  66.3509483  38.4632251  23.8018441
  66.8801847  37.1673722  23.3892182   3.2828275  59.4321923  33.4254415
   2.4267960  58.9380501  33.6752666   2.8510186  60.1136517  32.8316610
  69.7909331  48.8538268  13.5512643  69.5389031  49.6992088  13.9204441
  69.4054651  48.9044700  12.6695038  62.0965607  61.0448776  37.8511907
  62.0836838  62.0394745  37.8949543  62.0097265  60.9192553  38.8554268
  74.4858424  50.5218581  31.0130310  74.1518180  51.3695213  30.6846998
  75.1707294  50.7339980  31.6368632  76.4856898  50.7503013  20.7741048
  76.6888332  50.3177270  19.9491742  76.4416541  51.6514779  20.6423163
   3.8573637  48.0186541  27.4801064   3.5807060  47.2526765  28.0469930
   3.3408495  48.7287476  27.9986090   3.5735947  50.6472899  33.7977043
   3.3575710  50.7388826  34.7725149   3.0387024  49.8551077  33.6335349
   2.5405408  56.6646538  25.5846484   2.6764487  57.3600983  26.2347982
   3.4186307  56.1577016  25.6737320  10.4672494  68.1679214  26.2083423
  10.5962749  68.8085937  25.4649611   9.7032735  68.5913580  26.6764378
   1.5188455  66.2210311  26.6286290   0.9792643  67.1007536  26.5582936
   2.0826604  66.4870220  25.8249760   6.2254715  47.9411919  24.9513274
   6.5387106  47.6200403  25.8100340   6.8996721  47.6316520  24.3489157
   5.1395001  56.4463577  31.1017898   4.7833568  56.5033662  30.1889540
   4.5628088  55.7241507  31.4552594   1.8526005  63.6768182  25.7244711
   1.3433518  63.0263104  26.3163634   1.6385565  64.5342963  26.1995781
  56.4424862  29.6800036  75.1149191  57.2108883  29.1051899  74.8041098
  56.1363218  30.0439377  74.2827619   3.6267663  54.1523366  17.3880200
   4.3754871  53.6015833  17.2035478   2.9613312  53.4568012  17.5973004
   1.3907076  64.0033606  32.8037052   1.3183550  64.9382241  32.3913050
   1.9035655  64.3018958  33.5983545   5.0614445  63.3816141  31.9757006
   5.8702661  62.8280696  31.6995093   4.7212774  63.4760717  31.0508663
  51.4111574  27.0328277  81.9808205  51.4401000  27.2710517  81.0493895
  52.3999860  26.9094440  82.1092869   8.5863564  54.8735166  31.5668651
   9.4430608  55.1537511  31.9906548   8.7886397  55.2286756  30.6663111
  72.0350537  51.5413298  25.9182444  72.8563299  51.3866997  26.3633150
  71.8383225  52.4582934  26.1735826  53.3625861  27.2617183  85.2571438
  53.8480982  27.5326664  86.1278105  52.4999577  27.6716441  85.5294289
  77.3569416  61.0232173  45.0299941  78.1965113  60.4534514  45.1646992
  76.7992860  60.4528995  45.6242890  37.6059420  80.0952192  15.5702259
  37.1241106  80.1325225  16.4738274  37.0207990  80.6885065  15.0384084
  49.8729620  11.1362531  26.9957974  50.6423432  10.5226806  26.9592171
  49.2090032  10.4280822  27.2219347  57.0837725   8.9587340  21.6309168
  56.6759054   9.6429692  21.0337712  56.5594907   8.1574044  21.3170182
  59.9247660  17.9344160  24.4661318  60.0456313  18.8444817  24.2603099
  60.5253047  17.8711173  25.2574490  28.0586940  69.0321532  18.8935167
  28.4138495  69.8723993  18.9007444  28.3508989  68.7098695  18.0262523
  47.3862099   8.5074175  11.0545337  47.6467186   7.6482045  10.5857850
  46.5775317   8.1980575  11.5149350  57.7899162  14.4624495   9.7713488
  57.9754557  15.4579120   9.7578092  58.6621789  14.1708129  10.0856213
  73.5115732  37.7923666  70.3227877  73.2927808  37.6200940  71.2575672
  74.2676009  37.2003520  70.2018418  32.1087937  74.1598855  21.5472753
  32.5847612  74.9135908  21.1456512  32.0606480  74.4876051  22.4646544
  34.5481043  75.4011509  12.7519661  35.2958826  75.2107521  13.3438695
  33.9545345  75.8389374  13.3468602  61.9862538  12.1696201  21.7742157
  62.5713532  11.5436348  22.2546411  61.7178683  12.6619698  22.5822315
  23.5544382  69.9864985  12.8066750  22.6898671  70.4811815  12.7515958
  24.1535477  70.7944439  12.7252005  43.8342250   7.2621807  13.3181620
  44.0769566   6.3611736  13.0978686  44.4012694   7.4418420  14.0944435
  43.8265788   1.2424963  12.0058134  44.0380772   0.4924693  12.5977982
  44.1574760   1.9546506  12.5446730  47.2640546   6.1964962   9.4268875
  46.3638388   6.5230722   9.1905102  46.9781646   5.3870415   9.8907203
  47.1932934  13.8222214  23.3544258  47.6282586  14.1392669  22.6295929
  47.8778658  13.6581063  24.0040928  54.1294620  18.0493732  14.9744896
  54.7956348  18.7702024  14.8371307  54.5323476  17.3498458  14.4290157
  63.1718480  18.4705589  17.9822697  63.6583124  19.3164032  17.7899746
  63.8714829  17.8471187  18.1106490  57.3814805   6.5577375  12.3028555
  57.3156035   7.3056190  11.6234846  56.5728343   6.7264721  12.8153941
  68.2902967   8.6286260  21.3938110  67.6932045   7.8300716  21.7130942
  69.0305914   8.0839923  21.0326637   9.2513480  50.3986908  68.4224254
   9.1539006  50.9049217  69.2363420   8.9907713  51.0568245  67.7313942
  57.2043793  21.5678459  22.5110838  56.5071140  21.2716658  23.1293811
  57.0608088  22.5445399  22.5308385  20.1357882  53.5840353  78.7338816
  20.9469693  53.1777252  78.4087985  19.5747366  53.7174878  77.9710732
  76.7352022  14.3766784  24.4820139  76.1970028  14.0010274  23.7979695
  76.8427622  15.3154555  24.2158546  49.5498555  82.3728777  20.4843007
  50.0694703  82.8595660  21.2408591  49.6805865  81.4610284  20.8761487
  40.3913391  71.5993312  23.5989403  40.9010424  70.9112059  23.1362489
  40.9623210  71.8901964  24.3035058  65.4915533  22.9915035   9.4507420
  64.5896092  22.7976138   9.2390146  65.4473313  24.0077176   9.3984421
  65.0953622   7.4407177  25.1719124  64.2201087   7.9101503  25.0293663
  64.8585622   6.8500833  25.9242507  74.9075545  13.4108367  34.1342991
  74.8501330  12.7219219  33.4555731  74.7184926  14.2069223  33.5758010
  68.0657243  22.6279426  10.6020950  68.4805998  23.4466929  10.3123127
  67.1394776  22.7813269  10.1853180  59.9382111  16.1283197  18.0923090
  59.6261169  16.9983908  18.2888342  59.6535933  15.6344985  18.8880398
  70.0082723  20.7846267  15.3481189  70.7614604  20.9107897  14.7155578
  69.4851615  20.1458630  14.8445827  69.7649869  11.8315858  16.1196074
  69.7333633  12.1359321  15.1991232  70.7377415  11.4873151  16.0975422
  27.5612552  48.0613779  79.9633583  27.5329027  48.6727179  80.7079233
  26.6236142  47.8538008  79.7802715  14.6158511  39.8901711  73.7151144
  14.5153600  39.9212876  74.7014728  14.8028232  40.8647441  73.5624386
  60.5875853   8.6345226  33.8853043  60.2890249   7.9237042  34.5557571
  60.6021391   7.9910303  33.0983246  65.5525417  34.9933220  71.9615918
  65.0277701  34.8484865  71.1083915  66.3202381  34.4537131  71.6550341
  67.9887143  19.8641236  11.1867702  67.9275146  19.9831109  12.1743867
  68.0370459  20.8126327  10.8922022   4.2549828  45.2456827  66.5675438
   5.1972075  45.5408306  66.4387312   3.7856109  46.0537434  66.1687844
  66.5556991  23.5208964  29.4671015  66.4878377  23.2376370  30.3988506
  67.3992303  23.9464160  29.4465352  56.0402352  10.6084641  12.4287807
  55.6665726   9.8639353  12.9245551  55.5217290  10.6316001  11.6022827
  61.4728446  16.4863107  15.9709894  62.3786241  16.1553452  16.2014315
  61.0179812  16.4524195  16.8102821   5.5216150  54.5832323  64.6222436
   4.6520877  55.0323598  64.8120707   5.4442554  54.2740113  63.6998869
  20.0977539  44.7485987  70.7087204  19.1527774  44.4283826  70.8394689
  19.9534150  45.5576931  70.2631723  25.9926115  47.7851454  82.7249076
  25.1643585  48.0500152  83.0950213  26.5627125  48.5990097  82.8949038
  15.1327931  55.0759633  66.1958104  14.8278359  55.7758727  66.7230755
  16.0054117  54.8494845  66.5751994  71.8992112  14.3740440  16.5377861
  71.7956846  13.5504772  16.1186620  72.1468598  15.0020439  15.8191299
  68.4337634  20.4565533  25.4732409  67.6389274  20.8529418  25.2061839
  68.8644819  20.2785745  24.5699151  61.9786001  20.1488169  13.8932723
  61.3884208  20.9235298  13.5963484  61.9246237  19.6448656  13.0663329
   4.1090614  43.2417967  64.8754950   4.9400936  43.5349218  64.3572419
   3.9800337  44.1085298  65.3229423  63.1075117  15.7443406  10.8719416
  63.8229982  15.3749445  11.3865818  63.6326794  16.3167181  10.2519320
  11.5101720  41.7633856  71.3199909  11.9565163  40.9610018  70.9291651
  11.2933207  42.2238664  70.4810450  65.7199813  21.5982604  24.5496692
  65.1356479  21.0294018  23.9686498  65.2640981  21.4810689  25.4229314
  68.3588974  16.7500452  24.5903067  68.8488702  17.4032236  24.0962881
  68.1643189  15.9880547  23.9651457  54.5735868   4.1903895  18.5225643
  55.3650165   3.9540458  18.0260525  54.4959124   3.4401569  19.1968428
  46.8567946  81.9582930  19.6610821  46.9232812  81.2059069  20.3345154
  47.6772082  82.4285131  19.9006519  43.0949507  78.3621912  24.4581875
  42.7882682  77.5273759  24.9066758  42.4240545  79.0393252  24.8555267
  71.4025623   9.9954162  22.4515146  70.8195482  10.7202849  22.1680994
  72.3084127  10.4248507  22.4450661  72.7942949  24.3678257  28.2420680
  72.9991819  23.9321222  27.3885339  72.3855665  23.5961702  28.6570340
  55.1693434   9.2597127   7.9793415  54.9515709   9.7220326   7.1648499
  54.7288817   8.4122993   7.9561527  43.9034675  81.2015799  20.5119469
  44.0077987  80.2652609  20.2531575  44.3464923  81.6156857  19.7462201
  24.6845165  44.9048100  78.9004033  23.8957831  44.3345125  79.1834197
  25.3682488  44.2651474  79.2565063  57.4784849   7.0505531  26.6910847
  57.1187585   7.8388184  26.1654812  57.3933301   6.3338270  25.9597217
  71.9553350  13.9875119  19.3822077  71.9109656  13.9281071  18.4001212
  72.3121734  13.1180643  19.5952696  45.3957962  79.3368528  24.0456332
  45.0696486  80.1173109  24.4994688  44.5327847  78.8296975  23.9822295
  61.8541737  31.9998967  18.0712820  61.1299650  31.4858390  17.6424287
  61.3384395  32.6795413  18.5107701  65.3986570  15.2144939  12.2762500
  65.5697359  16.2266672  12.3193299  66.1068021  14.9671223  11.6451822
  31.1813757  77.3981938  20.9983969  30.5393465  77.7058204  20.3444648
  30.5886687  77.1152994  21.6836530  37.5694162  76.5480942  21.8353826
  38.1491464  76.1124399  22.5095851  37.9603062  76.1612024  21.0077463
  64.6846530  20.0867486  14.0026197  64.7708573  21.0112396  14.3218085
  63.7073142  20.1439024  13.8292068  67.7932165  14.1734156  18.1196403
  68.1026664  14.4922665  17.2465052  67.4010175  13.3542663  17.9853096
  37.2791379  79.2653826  22.2155246  37.4542072  78.2674317  22.2703856
  36.4999554  79.2813478  22.8131550  62.4026714  29.3747764  27.9147503
  63.0985276  28.8056105  28.2724047  62.1951203  28.9022430  27.1042490
  17.8296938  60.8446814  71.5226101  17.7391931  60.0231120  72.0557503
  18.0849270  61.4883131  72.1706626  11.3046911  20.0417385  21.3878635
  11.6204081  19.1717061  21.8026570  11.8869357  20.6483097  21.8844759
  64.8074353  16.9214673   9.2545378  65.6077684  17.3588066   9.6152701
  64.8554212  17.1899018   8.2997020  63.0371173  36.1421560  13.1784964
  63.8599251  36.3999400  12.6694615  62.4390752  35.9379741  12.4398776
  67.4578760  36.9930656  76.6900274  67.2832948  36.8608598  77.6480083
  68.0720423  37.7101713  76.7123219  18.2821827  49.7652994  71.0070523
  17.4153099  50.2187696  71.1620289  18.0917649  48.9312122  71.5677759
  42.1795938  71.6508444  13.0678551  41.5867649  72.4113641  13.2344905
  42.1837873  71.8324225  12.0539649  69.1739735  12.9451277  23.9146699
  68.3516342  13.3526480  23.6765671  69.3034755  12.3078033  23.1659602
  59.3891931   8.3567623  16.1184042  59.0825527   8.5650302  15.2263811
  59.1545968   9.0846816  16.6464290  71.3352438  18.6428066  20.1773970
  71.9545495  19.3534171  20.2965674  71.7307666  18.0646276  19.5103122
  25.4239945  75.6949246  32.5329915  25.0548790  76.0708071  31.6914873
  24.5522222  75.4201545  32.9120127  73.4504864  20.5505791  15.0554011
  74.0899233  21.1131226  14.5684493  72.7948325  20.4596365  14.3110800
  13.0254040  43.2444609  77.1537966  13.7344341  42.5646417  77.1103304
  13.6087750  44.0220108  77.3191673  26.5582075  51.9751828  82.3283602
  26.9621967  51.1149638  82.0565222  27.0904683  52.5745787  81.7105891
  33.1839456  76.0063294  19.7724472  32.3210220  76.5320581  19.9154017
  33.7917787  76.7087368  20.0035887  43.2103429   2.3948428  14.9477161
  42.7720784   2.7838263  15.7521669  43.4933440   1.5439129  15.3390269
  49.2433042   2.0107746  12.1809082  49.6799688   2.7388849  12.7129147
  49.5188148   1.2608265  12.7323908  23.1650296  53.9898878  81.7084316
  22.3661811  54.4416556  81.3134732  23.8368090  54.5199171  81.2221514
  14.6002372  52.1470503  74.4887671  14.9878717  53.0734693  74.5509946
  14.0104595  52.2798399  73.6824394  70.1985644  23.9215114  18.8708408
  69.5610149  23.4259202  19.3779200  70.6422414  23.2332008  18.3410243
  14.4808136  45.5658714  77.5478092  14.7224068  46.4175158  77.1481101
  13.9072180  45.8963950  78.3033486  54.4820254  10.9675981  10.0866814
  54.6639801  10.3734230   9.3078488  54.8860182  11.8023583   9.7576014
  74.4845448  17.9391452  19.9114993  74.8221269  17.4764421  19.0979321
  74.1757610  17.0882449  20.3884083  48.9231849  77.9939010  17.8262264
  48.3007168  77.7872143  18.5620193  49.7696124  77.7497921  18.2859882
   6.4025428  49.9301851  61.8393645   6.1127355  49.3191034  61.1476840
   7.3598440  49.7995733  61.9623702  27.9468079  49.6308800  82.1468614
  28.3389825  48.9903293  82.8137126  28.7637283  50.1759227  82.0499299
  62.0127514  26.5933532  12.5511693  61.7674404  26.1867911  11.6930990
  62.0501217  25.8112058  13.1519294  70.1506282  19.8224839  27.9497874
  69.6062320  20.1134804  27.1672951  71.0459597  19.9725586  27.5468688
  17.7412544  37.4172084  76.0325954  18.3007676  38.2480805  75.9540932
  17.0200967  37.6911050  75.4876980  42.8984631  81.7379377  17.9283586
  41.9886125  81.4769293  18.2103893  42.7658808  82.6919147  17.7709092
  41.1720708  81.7635917  37.6809569  40.9358423  81.7100797  36.7363094
  41.6025628  80.8262294  37.7464899  17.7131555  49.6003936  77.7002998
  18.4251337  50.0461462  77.1519764  16.9688034  49.6312731  76.9944014
  66.8942291   8.9353920  29.2071379  66.8880569   9.9559958  29.1968128
  66.1367035   8.7286498  28.6946838  58.8469200  14.8907978  20.5443781
  58.9035589  15.2764548  21.4701014  58.9029981  13.9212667  20.7831743
  65.4561967   8.9524266  15.4333664  64.6090511   8.5011320  15.2609209
  65.1595664   9.6427657  16.0477321  54.9210241  19.9910921  23.8290150
  54.2566262  19.3105052  23.6703968  55.6645751  19.4750769  24.1498843
  36.5491824  76.3445392  17.2457997  36.3559516  77.1846905  17.6475847
  35.9941301  75.7229394  17.6989380  61.9679320  28.8220910  14.7861376
  61.9843258  27.8857957  14.5134764  61.3622099  28.7832263  15.5653088
  40.2281756  79.6522690  16.1152643  40.4382283  80.2335108  16.8931094
  39.3498890  80.0511971  15.8623551  68.8549631  15.2248279  30.2989329
  68.3039023  15.6807192  29.6579368  68.8121371  15.8791324  31.0275172
  73.5945360  27.5259938  18.4174012  74.2506289  27.4619172  19.1379661
  74.2028813  27.5907376  17.6641592  61.7971420  18.4966389  11.4057264
  62.0812996  17.9335779  10.6203540  61.5687361  17.7490278  11.9797613
  77.4518444  22.0212898  19.6026855  76.7094754  21.4285768  19.8944967
  78.1992481  21.5729578  20.1061343  33.0995796  57.4402287  78.8287064
  33.3532429  57.0156118  79.6629079  32.1689191  57.7350250  79.0680007
   5.2770388  25.2319701  31.3291336   5.4690976  25.9470510  31.9841419
   4.3729064  24.9664468  31.6742563  58.8047278  35.4411839  12.2225414
  58.9680015  34.4709156  12.1264848  59.5230802  35.6998645  12.7922719
   4.7521256  22.9646898  17.0271558   5.6851980  22.8698387  17.3605075
   4.9275928  22.9832654  16.0478975  76.2324571  24.6999999  14.8250518
  76.0269198  24.7005590  15.7876860  77.2013402  24.9264457  14.9064565
  36.7300373  62.1131380  73.1964834  37.2350131  62.8542762  72.7898492
  36.6961415  61.5028051  72.4333073   0.2913009  29.0535153  14.1354268
  -0.2419658  28.5731562  14.7585370   0.6902541  29.7834348  14.6480884
  64.0682443  31.8941068   1.1736593  64.5617457  32.3796422   0.5484025
  64.0938549  30.9498375   0.8849067  14.2004788  34.6488557  24.5664878
  14.6638048  35.4856892  24.2689703  13.4750271  34.7179633  23.8952604
  30.9190192  60.2932005  78.4515995  31.2708469  61.2280440  78.4893903
  31.2338679  60.0048697  77.5894167   7.1580243  21.7082536  18.5342179
   7.9636309  22.1387808  18.1759487   7.2812762  22.0610377  19.4650615
   2.0399168  21.3798674  25.3721202   2.1399679  20.9593500  26.2058173
   1.1007403  21.4974520  25.1930104  36.4855641  51.6056524  77.7875295
  36.6219940  52.1685052  76.9673516  37.3479128  51.6751045  78.2359445
  76.2077274  26.5264886  17.5806065  76.8870023  27.1810070  17.7954182
  76.2152084  25.9838951  18.3737622  74.6885980  37.8601891  19.0751816
  73.9576333  38.0804184  18.4476351  74.5451009  36.9084959  19.1165185
  68.6504311  25.5839292  34.2392469  68.1472453  25.3295081  35.0289671
  69.5424102  25.5797493  34.5696633  18.8129389  56.1988986  75.0591956
  18.2341325  56.9076938  74.7122501  19.6339510  56.3854461  74.6436823
  59.7083019  17.0379864   7.4263680  58.9140287  16.6738476   6.9227759
  59.7891785  16.3940900   8.1552790  75.0187312  27.2043917  20.8401679
  74.3545083  26.5086891  21.0848527  74.5980255  28.0011824  21.2718640
  65.5508354  14.2854421  14.7385830  65.4146644  14.6845268  13.7740881
  64.8637196  13.5726359  14.6538266  72.5795863  30.2179966  33.3506739
  72.7365788  31.1429185  33.6462688  72.8059766  30.3162472  32.4183516
   2.0804824  30.9553011  12.0025415   3.0553092  30.8229061  11.9426150
   1.9733482  30.4931410  12.8913990  72.4543213  21.3424263  19.8439638
  72.6286417  22.3017173  19.8820549  72.2609944  21.2698965  18.8402448
  73.7988959  19.1840456  24.0510435  74.5724885  19.7992470  23.8289040
  73.1799618  19.6666922  23.4187905  68.8637054  17.5305122  17.8484388
  69.8230593  17.5720073  17.8358824  68.6748364  16.7961193  17.2718844
  73.8303509  20.3090311  33.9715324  73.8317558  20.6844953  33.0272739
  74.0379889  21.1708841  34.4438093  75.5982889  25.9679114  12.5664699
  76.4481387  26.4546281  12.5221666  75.5680626  25.5347691  13.4575056
   7.0520751  35.6770439  28.1803618   6.9649785  35.3919378  27.2281855
   6.0360448  35.8285030  28.2947246   9.0323271  23.2039508  17.1248572
   9.9780921  23.1903622  17.3392495   9.0598241  22.7270995  16.2158196
   2.0881089  30.3877704  15.5148938   2.3471450  30.4397252  16.4264652
   2.4740942  31.2454512  15.1508034   0.6810772  32.0102308  17.7286109
   0.8874282  32.7076778  18.4247639   1.4663183  31.4411187  17.9641983
   0.2585748  19.0538840  23.2823687   0.4966746  19.6208143  22.5224851
  -0.2338740  19.6298594  23.8638096  25.3583732  56.0021098  62.8278589
  24.5619038  55.7372780  63.3649183  25.4728115  55.2215058  62.3071097
  19.3879969  66.9014978  70.6227755  19.9207741  67.4131173  70.0236551
  18.5352825  66.8517863  70.1951108  11.9275919  21.0703024  24.7754339
  12.2248462  20.1769373  24.4214261  12.6745873  21.2033062  25.3929936
  75.8922056  34.4918939   8.8985977  76.5197745  33.8688654   8.4581524
  75.4481934  33.8393605   9.4714097   1.4675110  20.0207947  34.2951533
   1.6616781  19.8476712  35.2361536   2.3492007  20.2868497  34.0056663
   5.7835999  19.9214550  20.8052482   5.6714322  20.7317228  20.2310365
   6.3335438  20.3100059  21.5063186  76.8038767  32.5139059  17.3636971
  77.7703776  32.3895372  17.3492440  76.5293294  31.9083829  18.0096197
  74.2706620  30.1753169  16.4511586  74.3655118  29.1870540  16.2616720
  74.0955368  30.4610790  15.5145854  32.7093912  54.8215692  77.2971843
  33.3303353  55.5693921  77.1946383  32.6682353  54.7937322  78.2738854
   5.6760163  26.0779518  21.4745162   5.1314784  26.8280758  21.7714176
   6.5252430  26.2290813  21.8021939  78.5136647  29.4473975  32.4894753
  78.0971821  30.0515587  33.2446695  77.6956450  29.0118721  32.2357222
  76.1152254  24.3642220  19.5369231  76.4852886  24.7636380  20.3922057
  76.8154767  23.7093995  19.4554575  50.8577327  84.0251191  22.4764943
  51.4173732  83.7151011  23.2767886  51.0430633  85.0382088  22.5586705
   0.5125108  45.9041451  12.6173659   1.2894092  45.3367539  12.8570364
   0.9640839  46.6957907  12.2302482  66.5464683  11.6912460  18.7478094
  65.7078876  11.3977156  18.3529708  67.0956915  10.9101771  18.6130624
  71.6744961  20.5731729  13.0846285  72.2776588  20.9862318  12.4327552
  71.2065110  19.9853862  12.4817546  77.9528706  22.8234041  22.9674572
  78.3826416  23.6082904  23.4031047  77.7384700  23.3129964  22.1310780
   8.9707795  36.3173075  20.5141241   8.8682881  36.4957590  19.5462411
   8.5317424  35.4540047  20.5773998   8.3045965  39.5294304  28.8520093
   8.4641625  38.6442511  29.1813393   8.0324310  39.3226868  27.9538291
  77.9477172  42.3993940  25.3259899  78.1470168  41.6954451  24.5976925
  77.4129442  41.8935390  25.9250704   1.9476991  45.3919605  25.1289055
   1.6373071  44.7287818  24.3921672   2.8777083  45.3752586  24.9425227
   3.1672609  27.1524480  22.5090970   2.1813574  27.2930990  22.6004851
   3.4818588  27.9877186  22.8914876  23.8820908  51.2692584  82.2079567
  24.8578471  51.3017886  82.3876787  23.6574203  52.1554540  81.9743951
   5.7244596  28.7272837  13.6773172   6.7061137  28.7947682  13.3327867
   5.4339362  29.5695535  13.2443854  73.2631837  11.8494464  22.6742475
  73.2120078  12.8127083  22.8806347  73.2622379  11.8803323  21.7078507
   9.6996058  32.2645505  16.4926641   9.1509773  32.8319211  15.8446644
  10.1020592  31.6090864  15.8590294  74.5137642  16.7066868  24.5961924
  75.2848262  17.0423048  24.0965198  73.9801410  17.5677138  24.6636238
  71.1885546  23.0987836  23.3224787  70.2327318  23.1216225  23.3748628
  71.4072070  23.7376806  22.6767973  67.6533581  32.8789868   7.8837322
  68.5864182  32.5955479   7.9157479  67.6934595  33.7452677   7.4975640
   3.5388917  26.2905138  28.3421164   3.1796580  25.4270101  28.6923801
   4.4860630  26.1403856  28.5139515  65.7893604  16.1934061  18.3004954
  66.4944498  15.5374222  18.0893260  66.2926279  16.9209379  18.6314402
   8.6885603   5.5061277  29.7779039   9.5586501   5.5368884  30.2889675
   9.0050026   5.8325158  28.9225561   7.9434448  31.3885659  12.6203824
   8.2919801  31.6233945  11.6828198   8.2055852  30.4438063  12.6493718
  26.4766002  40.2690083  75.9428226  25.7032927  40.1099147  76.5341443
  27.1548885  40.5035391  76.6151294  36.6269399  56.1799247  77.0025432
  36.7560727  57.0166681  76.4733096  36.3046503  55.5550914  76.3122702
   2.7836975  25.4723020  24.6084437   3.1610912  25.7733167  23.7307378
   3.2033107  24.5854603  24.7091180   5.1265108  28.7039875  20.4174933
   5.9987480  28.5768408  20.0090767   5.3653984  28.8890560  21.3254729
  70.0193726  25.0998745  26.5719516  69.3258861  24.5072006  26.9147438
  70.7788327  24.4691149  26.5711620   0.9504030  30.2981627  24.5812081
   0.3178785  30.9847914  24.1599375   0.2349754  29.6783034  24.8983954
  13.1478398  33.8927356  14.7261852  12.5036275  33.4122026  14.1247931
  13.2868399  34.6527346  14.0605103  62.0795750  35.9416085  10.7254161
  61.4218217  36.3235033  10.0953682  62.8754091  35.9500760  10.1388310
  78.7650779  32.4388362  14.9824344  79.0904860  32.2172863  15.8845473
  78.3061147  33.2964113  15.1973980  72.6757665  38.7163871  17.6841773
  71.7373662  38.5812898  17.3661735  72.9517810  39.4867865  17.1323036
  78.2085824  26.7390064  30.0796583  77.8531242  25.8472358  30.1042073
  77.6283086  27.2172813  30.7190427   3.3159661  29.5040053  24.0063796
   3.3199041  28.8652390  24.7248214   2.3256178  29.7666750  24.0374817
  20.2822150  17.4266802  19.1776680  20.6214489  18.1034225  18.4780259
  21.0215018  16.7516617  19.0965938  67.3224099  29.6323997  10.9868451
  66.6660153  29.4647673  11.6800802  66.7455632  30.0999483  10.3561673
  71.8407000  25.6942834  31.4996242  72.0353452  25.9909083  30.6347549
  70.8537212  25.6230578  31.4235523  25.2473720  51.4205058  72.8775153
  25.1306422  52.0785520  73.5418492  26.0531041  51.6789368  72.4331189
  61.8859629  29.2873444  30.8916555  61.9673353  29.3836880  29.8897658
  61.4156048  28.4354493  30.9140619   6.4658262  26.6894141  24.4339168
   6.5970601  27.3249525  25.1830780   6.4940925  25.8341945  25.0306821
   1.4245162  38.6533530  24.7441792   1.1903646  38.5475428  23.8146484
   0.4809190  38.7837551  25.0862820  74.5807681  28.5529416  33.8918632
  75.2192215  29.2849441  34.1788117  73.7162596  29.1109544  33.9164431
  72.2010854  42.5538887  17.1034505  71.8031051  42.6250945  18.0434866
  72.2129362  43.5021510  16.9108761   2.5096146  35.3452917  21.2085581
   3.4273684  35.6676937  21.4856660   2.3564033  36.1561842  20.5720279
  77.4204211  25.7639705  21.3579819  78.0510871  26.3565559  21.0150064
  76.6682547  26.3940318  21.6058393  68.0494392  30.3251566  16.9207605
  68.8900802  29.9338440  17.0721042  67.4336505  29.5725453  16.8292109
  67.6146139  41.2349624  16.7351687  67.0232741  40.8077634  17.3859728
  67.7543779  40.3824487  16.1555487   0.5051288  23.3487873  32.0847055
   0.3589931  22.5019311  32.5110311  -0.0060764  23.9570840  32.6770928
  76.5180354  19.0373207  31.4859460  75.7449995  19.1682871  30.8724710
  76.0366993  18.4275402  32.1433933   5.4513485  42.5208996  18.0562802
   5.9266518  42.2642143  17.2457432   5.4965226  43.5058346  17.9647255
  78.5640498  28.1857378  17.5753498  79.4656953  28.2002957  17.2944150
  78.2246141  29.0057434  17.1311898  70.8066410  15.6863555  27.5328653
  70.9587918  15.5419782  26.5715803  69.8423122  15.6115443  27.5559280
  11.6914406  47.1469210  21.6192424  11.6444840  46.2379289  21.2658732
  10.7947138  47.4610139  21.4449934   7.3497485  46.9412720  15.7454023
   6.5116070  47.4559903  15.5305675   7.9191926  47.5623556  15.1492150
  11.3583324  37.8131602  23.4109219  11.0296946  38.7474977  23.4432779
  10.7207511  37.3357392  24.0091704  75.4191380  35.0472540  16.7780467
  75.7185617  34.1679667  17.1986358  75.0471580  35.4412742  17.6416025
  75.3953339  40.5081724  19.9037897  74.9435438  39.6720407  19.6648002
  74.9254643  40.6946855  20.7531784   4.4966761  55.8457935  21.9449656
   4.0097753  55.0960301  22.3398660   5.2799673  55.8060342  22.5123721
  72.2691646  43.3422456  27.2197572  72.1872203  44.1076521  26.5815082
  72.9777328  42.8907015  26.7557075  74.2695190  28.4881964  13.1472151
  74.4431622  28.1579814  14.0569615  75.0210281  28.0516440  12.6472165
   5.5077978  31.6570674  22.1273492   5.4900953  30.7224795  22.4579216
   6.4521034  31.5418048  21.6820810   1.7993543  37.4308919  13.8027280
   1.9099484  36.8837872  14.5916533   0.9715026  37.0562816  13.4228375
  13.9217936  50.7078325  20.1955444  14.4819477  50.4732254  20.9990453
  14.1381056  49.9041786  19.6591165   9.8774126  35.3725364   8.4227787
  10.1928205  35.3664862   7.4704786   9.3694216  36.2317276   8.3885619
   5.4121694  45.1382361  17.7749920   6.0311669  45.5766848  18.4325637
   4.5683912  45.4104135  18.1522990  69.5227139  45.0379112  21.6394350
  69.2401694  44.4707183  22.3959740  68.7486198  45.6573872  21.5722935
  77.9443148  49.1799702  18.5092343  78.5569604  49.0504277  17.7287520
  77.1625831  48.6801932  18.2368902   4.8559583  45.0342882  15.0242148
   5.3439732  45.2114355  15.8233133   5.3038304  45.4433214  14.3205992
  33.2581125  72.2385272  13.0265502  33.2698489  73.2182113  12.8472509
  32.7072758  72.2400398  13.8409735   4.5373381  40.7164911  65.3995226
   3.6307416  40.3085545  65.4532585   4.2494797  41.6755629  65.4341762
  73.0352129  37.2964211  72.8720988  72.0549881  37.2706147  72.9745865
  73.2273173  38.1597168  73.2653665  22.2393814  72.4969903   8.9271345
  22.9325419  73.0397744   8.4645402  21.5178554  73.1636673   8.8816739
  36.3514905  74.3929612  10.9846282  35.6291573  74.8022871  11.4841467
  36.9548862  75.1575010  10.8212296  10.9819143  43.3680786  58.7106477
  11.2501713  42.8819451  57.8835184  11.8145429  43.3428259  59.1819873
   4.3088241  50.7878696  56.0838160   3.8574751  50.6202088  55.2412079
   3.8610774  50.0591738  56.6380488  12.0572581  46.8495863  75.3544947
  12.7773126  46.8867203  76.0233447  12.4002088  47.5403646  74.7307759
   3.6168871  42.5062270  54.2792598   2.7883782  43.0494128  54.1565814
   3.2668182  41.9000556  54.9610295  74.7189698  36.8857426  66.7775028
  74.7963011  35.9492854  67.0295691  75.6266643  37.1847062  67.1058810
  16.5664504  29.1913324  69.9649512  17.4316593  28.7036069  69.9582550
  15.9531269  28.4868356  70.2683384  29.1980979  67.2437688  11.4663946
  29.4150407  66.7980458  10.6128089  29.9397035  67.8221276  11.6005974
  76.9670178  42.5726743  67.9303184  76.3770888  43.3249007  67.8854584
  77.8322388  43.0329865  67.8448331  54.4278536  55.8364459  10.8944200
  54.9043421  55.7299367  10.0779495  53.5000833  55.7708841  10.5570505
  59.5737050  30.1925957   2.2912586  59.9176907  29.5171990   1.6871606
  60.3615837  30.7138341   2.4580531  19.3821441  47.0426671  53.8507124
  18.6740438  47.6347927  54.2699273  18.8028968  46.3001184  53.5005825
   8.8474997  49.7487300  63.2634879   9.8316927  49.7448484  63.2867429
   8.6701189  50.6569128  63.5581435   7.4416210  58.4827812  57.0297475
   8.2257260  58.4048212  56.3974387   6.7669027  58.5013146  56.3280198
  20.0247524  45.5095798  66.2901465  19.5868752  45.9930182  65.5173917
  19.2668584  44.9550607  66.6502966  77.2756078  59.3495397  52.2640640
  76.8270048  58.5474018  51.8875424  78.2074836  59.1324566  52.0295634
  23.9710347  65.3841664  63.0449706  24.0844422  65.6438252  62.1353605
  24.6576910  64.6937997  63.1464760  17.3588257  44.3909347  76.5670870
  16.4444244  44.5010536  76.9240468  17.3019041  44.7697788  75.6734475
   1.4050717  44.0472751  54.0298852   0.8590030  44.8969809  53.9483083
   0.8348440  43.4885228  53.3852183   6.5840824  40.8107467  63.0604212
   5.8843074  40.9092896  63.7399194   7.1212128  41.5982755  63.2392401
   5.2640986  47.6332902  55.3330852   4.5222383  47.7230453  55.9817470
   5.6254549  46.7955499  55.8301570  19.5252604  41.5193245  68.3210869
  20.2986850  42.0349391  68.7250050  19.0563738  41.2079597  69.1352869
   6.0531040  47.5936338  60.4084171   6.6646735  47.3562437  59.6848920
   6.0860814  46.7252054  60.9511062   7.9835861  57.6057029  65.6174805
   7.1645456  57.9829369  65.1623890   8.6042203  57.8181762  64.9158735
  26.6214995  54.6698853  58.8600160  26.1299803  55.4016087  58.4376639
  25.9005484  54.2942574  59.4134926  10.6885439  50.5599504  73.5236275
  11.0283945  51.3881606  73.1653067  10.6252139  49.9948928  72.7351566
  12.1938028  52.7864241  59.6301604  13.0432633  52.5094430  59.3369020
  12.3262733  53.2311427  60.4506577   8.1955082  55.3080278  60.1672327
   8.5856126  55.2556746  59.2591929   7.3295554  55.6854866  59.9726634
  24.9627070  53.3636597  78.0756605  24.9500313  54.2517451  77.6126310
  24.9610437  53.6579095  78.9997430  10.0388546  63.8875682  61.3107502
   9.1754825  64.4278693  61.1511741   9.9659837  63.2730974  60.5596849
   9.0964769  52.5408790  64.0417103   8.9344791  53.4142960  63.5860873
   8.9128410  52.7247239  64.9668954  14.8505532  46.6070370  50.1668113
  13.9247963  46.7928981  50.3952249  15.0070071  45.7402151  50.5880785
   8.5083513  39.2644525  64.8722359   7.7779899  39.3098553  65.5030594
   8.3408490  38.4342736  64.3934071  10.4591956  37.8913173  59.7469894
  10.1795242  38.5061960  60.4080151  11.3033936  38.1882221  59.5139008
  11.2471341  43.1001214  68.8160189  11.9226121  42.9582932  68.1174621
  10.6525892  42.2932981  68.6276495  24.5399385  54.6056453  48.5451120
  24.6549846  55.5086037  48.1354512  24.0433084  54.1913615  47.7892178
  54.0602134  18.5321656   4.6642004  53.2770686  18.0388746   4.4628118
  53.6502491  19.2549160   5.1833153   6.4690784  61.7569527  62.7817679
   6.2009773  62.2714257  62.0190027   5.7648657  61.0584681  62.7701142
  22.3100685  46.6682463  62.2416918  21.4335647  46.3354801  62.0842558
  22.8062732  46.2684344  61.5045204  15.6579019  51.6993546  63.5094252
  15.5549042  52.6796075  63.5467307  14.8840371  51.3789544  64.0027361
  19.2483038  39.6840369  75.4169201  18.4531274  40.2631504  75.2564126
  19.9131426  40.4456345  75.4423656   8.3757866  55.1521851  39.9811881
   8.2817801  55.4394049  39.0105318   7.4200805  54.8053341  40.0708236
  57.7471040  28.1985829  16.9487677  56.8368443  28.2739205  16.5835111
  57.8482280  29.1339170  17.2385222   0.6939169  57.1196822  60.2503682
   0.5915048  56.7878021  59.3106894   0.6740992  56.1806801  60.6486315
   9.5629800  58.8061200  63.4704506  10.0774360  59.5916086  63.8086945
   9.1092019  59.2122327  62.7370843  48.7747217   1.2301056  46.7892231
  47.8203875   1.2819336  46.9466016  49.0299590   0.4708866  47.3490883
   6.1614756  58.4236050  63.9010537   5.9447555  57.5321302  63.5748537
   5.8800155  58.9418375  63.1131144  14.3453263  50.5075822  58.9978376
  15.1773642  50.5536652  59.5800773  13.9375656  49.6652041  59.3501877
  22.0816226  56.1517504  57.3519245  21.1854539  55.8597002  57.6823709
  21.9631692  57.0560026  57.1033031  20.0189906  40.7309037  61.1751919
  19.9846538  40.8082303  62.1487109  20.8835961  40.3372699  61.0246484
   6.2406549  43.7016457  63.5594342   7.2135234  43.6670637  63.7883205
   6.2685800  44.0842923  62.6995364   3.7734223  49.5856662  45.0583979
   4.7043433  49.3490696  45.0894312   3.5191774  49.3035911  44.1369044
  23.3433788  58.6184028  54.0507435  23.0721019  58.7894133  53.1005712
  23.9219551  57.8210105  53.8578801  13.0180418  61.3049366  66.0337891
  12.3500695  61.2684703  65.2764653  12.4309820  61.5769584  66.7465134
  71.0034815  26.8464237   8.0660860  71.2003039  27.4047356   8.9088995
  70.0862977  27.0695928   7.9875027   8.8290868  55.8414469  69.1113300
   7.9506701  56.0846381  69.4076857   9.1572062  56.7493237  68.8275951
  12.3219642  58.3733937  59.8027754  12.1820564  57.4241955  60.0070081
  13.3084106  58.3769484  59.9319417  55.4051010  13.6302225   3.6032813
  56.2223863  13.2131893   3.2765753  55.7777525  14.5455390   3.8270179
  35.3636593  56.3126620  56.0018339  35.2176214  55.7298312  56.7465617
  34.6955420  56.9726750  56.1153268  12.3767116  54.4074703  61.5692653
  12.0605400  55.3353695  61.5347593  13.3451419  54.5602734  61.4514594
  16.4786520  50.6622619  61.0535417  16.8462813  49.9131830  61.6268074
  16.0679467  51.1868365  61.7921324  26.6420639  46.7787403  64.5842052
  27.0622347  46.9012975  63.7219995  26.1194484  45.9328122  64.3985069
  25.7294478  63.9121395  58.1987596  25.9094364  64.8027716  57.8018092
  25.0562075  63.6024280  57.5869114  11.3538086  46.5369181  60.5863332
  11.2737550  46.8087519  61.5231428  10.5052703  46.0550615  60.5046084
  57.3960390  34.3025101   5.4252644  58.2209838  34.8172305   5.6949816
  57.7803587  33.5161643   5.0251824  21.5062230  60.7208824  66.1675103
  21.5737635  61.4735779  65.5381072  20.5855983  60.6993044  66.3872433
  16.4501598  54.8640756  69.3601748  16.7934301  55.3721577  70.1372105
  15.7378139  55.4960194  69.0616488   2.3134830  45.0437491  59.8706148
   1.9922828  45.9842087  59.7944536   1.4784915  44.6274653  60.1922148
  32.1632718  75.1474867  10.7423928  32.2626016  74.9153615  11.6640248
  32.7874552  75.8876018  10.6566059  11.4145541  48.9233899  68.4674060
  12.3291474  49.3309131  68.4752137  10.9114572  49.7689171  68.2336451
  45.2846817   2.6834547  60.2355281  45.0283252   1.8005267  60.5601251
  46.1955862   2.4700255  59.9486988   0.5438121  43.6702798  61.5416170
   0.6270940  44.1832482  62.3514663   1.2692724  43.0049765  61.6712286
   2.2468440  45.6567252  56.5444118   2.4946984  45.0866976  57.3099933
   2.3593929  44.9915669  55.8353281  21.3464039  59.8136336  59.4442229
  22.2450527  60.1023565  59.3000302  21.0436677  59.5689022  58.5414240
  10.9280789  56.7243991  62.1962232  10.5049394  57.4951510  62.6370840
  11.6700776  56.5127402  62.8005454  24.5315789  60.7302748  59.1972006
  24.1209386  61.4946670  59.7039628  25.0042914  61.2916944  58.5071195
  18.4393710  58.2175923  72.6203019  18.2244976  57.7379843  71.8082865
  19.3178510  58.6163553  72.4688833  29.2534725  51.3968676  64.9319888
  28.9924272  52.3369954  65.1106726  30.1998724  51.4871878  64.9828348
  18.7371432  42.7067374  77.9893965  18.5210817  43.3010551  77.2335971
  18.1125593  43.0222901  78.6473034  77.0204611  40.7501126  63.5432542
  76.1116190  40.6200690  63.3615450  77.2555725  41.4657119  62.9456424
   0.7308736  45.4456925  63.7622888  -0.2550933  45.3723344  64.0955735
   0.7175032  46.4197523  63.5484605   5.0778743  50.2828827  64.1736909
   4.2491378  50.2249843  63.7029537   5.7042695  50.3644898  63.3808571
  78.6373234  46.9773352  57.5823837  77.8609275  46.3839322  57.5533680
  79.2372532  46.4386334  56.9965583  20.6628769  56.3535914  62.9352612
  20.3855937  57.2026285  63.4037276  21.2557491  56.7162037  62.2551698
  16.7369083  60.4082996  55.5877600  16.9939229  61.3413279  55.3027066
  16.8461307  60.5216190  56.5714631  19.1570896  56.4777247  59.8685331
  19.0203815  57.4265166  59.8618964  19.4282271  56.3080510  60.7669141
  75.0372419  54.6852217  60.9096358  75.4862118  55.2152848  60.2547893
  75.6223006  53.9097317  60.9481915  15.7638327  50.5292441  71.2754144
  15.4490146  51.1820760  70.5906329  15.4697349  50.9891191  72.0649538
   5.7626019  42.5282572  46.8340684   5.5529096  41.6478112  46.4200832
   5.0489902  43.0965227  46.4851065  18.5372812  51.2636104  56.5024323
  18.1681248  51.6288750  57.4078605  17.7765618  50.6584036  56.3511728
   6.2857288  61.4820222  56.8888852   6.0367491  60.6895439  56.3242049
   6.9860134  61.8951296  56.3214529   6.4679579  50.2137664  58.9140787
   6.8016807  50.8961695  59.6028933   5.5320565  50.3182772  59.1088678
   2.4526076  39.4040164  65.7417452   2.0994588  39.7846457  66.5804998
   1.7731100  38.6813220  65.6750709  23.2964295  45.7414016  59.9835379
  24.2480422  45.8869543  59.7131000  23.2857893  44.7595408  60.0771020
   6.8516740  48.8971348  53.3644332   6.8696808  48.3542809  52.5763389
   6.0717362  48.4790817  53.8455468  11.8040505  49.2404835  50.1028888
  11.1627150  49.0819812  49.4125175  11.3610831  50.0127779  50.5378504
  76.0672140  52.3334979  54.9431182  75.8388694  53.2331296  54.6942302
  76.7336194  52.1428898  54.2582913  50.8833502   4.7055961   9.5439995
  50.7388373   3.7479828   9.4556813  51.3987172   4.6963248  10.3460835
   1.9945812  50.2613729  54.3816798   2.2250882  49.4367844  53.8688178
   1.6422769  49.8849178  55.1997380  11.1418796  55.5376748  52.3456713
  10.3092674  55.0902033  52.3345483  11.3050672  55.6610303  53.3362885
   9.2950746  50.5273833  53.8625420   9.2897655  50.5994522  54.7737611
   8.3358150  50.2872540  53.6691625   5.0696412  50.6815029  48.9364450
   6.0232107  50.4630689  49.0204201   4.7109277  49.9376521  48.5022084
  13.3643475  51.1380771  64.8163004  12.6769438  51.6023021  64.3158340
  13.4568074  51.6895876  65.5797029  21.7469420  52.2284251  66.7442681
  20.9829108  51.8930874  66.1788820  22.1073169  51.4100514  67.1279613
   9.2819149  69.1272686  58.9142727   9.3186114  69.2270585  59.9064831
   9.4497407  68.1556230  58.9058597  10.4815949  57.9033323  57.5790550
  11.1754613  58.1497008  58.2308247  10.6002262  58.5532088  56.8701396
  16.9946011  42.8493256  46.0380684  17.2934817  42.6654867  45.1300518
  16.5871501  41.9302417  46.1566300   7.8548429  43.0120906  56.1341361
   8.0249677  43.6009026  56.8960576   7.0775190  43.4294942  55.7677711
  70.6187933  28.1999910  13.1186640  70.9797134  28.1378515  14.0268358
  69.8883527  27.5824053  13.1693678  15.3680068  61.9772924  69.2540852
  15.2344481  62.4871949  70.1219048  15.5083173  62.7757022  68.6831939
  77.9622694  34.6732411  10.7397906  78.3711247  33.9297214  11.2436898
  77.3377785  34.1591026  10.1911169  39.0591326   4.8835375  60.8403962
  39.2341296   5.8014754  60.9353122  39.2118264   4.5909675  61.7446630
  13.1354070  29.4232904  11.4208999  13.7106313  29.7878987  10.7540347
  13.7956331  28.9577297  11.9713937  14.9751814  70.8455645  57.0058312
  14.9346775  69.9185553  57.3046448  14.0501602  71.1663170  57.2832118
  68.7063472  35.9065254   5.2896464  68.2853648  35.2135808   4.8066336
  67.8969035  36.4528597   5.5889225   2.3236753  22.8747477  21.1747244
   2.1831979  23.3383568  20.3305041   3.2303428  23.1666994  21.4527539
  14.1986725  67.4497209  66.2976470  14.8574830  67.9099804  66.8442111
  13.8426724  66.8019265  66.9367351  22.4830701  52.3174403  70.5493413
  23.2101900  51.8570553  70.0820605  21.8855287  51.5851902  70.7755133
  12.1166372  62.6136847  58.0647985  12.2631736  62.9225553  57.1379295
  12.2442347  63.4970658  58.4972334  21.6324439  56.8000373  72.7710743
  21.9051799  56.2421026  72.0443103  21.3773502  57.6158516  72.2716214
  18.5415181  67.1521892  63.9230813  18.6248646  66.8794090  64.8619133
  18.0654966  66.3881475  63.5863689  76.5916454  38.1351064  15.0874662
  75.6678035  37.7108347  15.2396044  77.0190477  37.7824108  15.8942518
  18.8857140  65.8953976  66.7280192  18.2034253  66.0922648  67.4927994
  18.9847904  64.9349738  66.9281774  20.1207541  59.4554389  57.0280582
  19.3389193  59.6989998  56.5066936  20.4539133  58.7502649  56.4353547
  69.9683600  31.3550115  10.7232403  70.3584234  31.1325729   9.8810362
  69.3725503  30.6425871  10.9031369  18.8021989  54.5571806  63.7203169
  19.5649088  55.0829250  63.3905709  18.4553143  55.1291196  64.3554691
  25.1783454  65.0519545  70.9864073  25.0473990  64.1349414  70.6452450
  26.1011345  65.1963127  70.7673905   8.3326253  60.0876746  61.5307704
   7.7594002  59.9892008  60.7206110   7.8414495  60.7523811  62.0247018
  16.3843111  65.4530021  63.4242417  16.3333775  64.6921653  64.0182457
  16.2594545  65.0664427  62.5665005  26.1387463  66.4680232  57.2426784
  26.9512499  66.3420061  57.7479354  25.9136481  67.3874955  57.5521702
   2.7052046  27.0947347  19.4408421   3.2992825  26.3342667  19.2746454
   3.2564038  27.5417265  20.1036450  22.7611099  66.6160268  71.2143648
  23.6276716  66.2514625  71.2793146  22.1641782  65.8411258  71.4644650
  44.0091846   8.1661941  66.6175307  44.2318063   7.2056464  66.7348910
  44.3832009   8.3154133  65.7265139  25.1093179  71.7738491  66.8901689
  24.8998129  70.7876563  66.9033610  25.1955805  71.8869748  65.9010486
  78.6345758  39.8857391   7.8526301  78.5144951  40.8703132   7.9221430
  79.0694938  39.8524697   6.9623754  14.3964969  59.9974612  51.0157510
  14.6699104  59.5643526  50.1499900  15.0430065  59.4762337  51.5664795
  17.6930625  68.4921954  61.1235597  17.2389316  68.2614872  60.2783525
  18.4662374  67.8255203  61.0112298  11.1594725  60.4426048  61.0374630
  11.4904471  59.6250733  60.5801019  10.2537925  60.1860346  61.2930740
  13.7524961  61.6569072  61.2402979  14.1225869  61.2424394  60.4314652
  12.8313871  61.3028234  61.1655752   3.1435139  66.4981900  56.9099933
   4.0207646  66.4168829  56.5602064   3.0683113  67.3878534  57.2660379
  20.8539456  57.7506786  55.0678484  20.2809974  57.3011296  54.3923607
  21.6909688  57.8001939  54.5850247  30.3161582  56.0894020  76.6462586
  29.8562589  56.1315970  77.5076278  31.0724130  55.5212999  76.8276134
  20.3035202  72.4129681  49.2081279  20.9726655  73.0147407  49.6025218
  20.0314521  71.9016211  50.0013480  19.0194289  61.2971688  64.6205947
  19.8644516  61.8067056  64.8015088  18.3796285  61.8072490  65.1184425
  20.9210139  50.2339663  70.7368955  21.3407775  49.3761354  70.8785711
  19.9632009  50.0299801  70.8818340   7.8162661  55.0349378  66.1133706
   7.0219373  54.9300786  65.4980653   7.9430809  56.0091742  65.9538533
  20.1333195  66.8497574  60.5090987  20.8718855  66.6579596  59.8813737
  19.4339807  66.5862700  59.9009524  46.7681779  38.7251244  -0.5677099
  46.3386950  38.7154847  -1.4462120  46.3282022  38.0539017  -0.0655026
  21.9748067  67.9439694  66.5697024  21.7100876  67.8644105  67.5184013
  21.1126646  68.3434376  66.2497168  35.3850698  67.5410280  71.1638296
  36.2885666  67.7269134  70.8408400  35.1062945  68.3597359  71.5846637
  65.1191104  36.7909579   4.3845478  64.7566099  37.5769896   3.9263838
  65.7991913  37.2644008   4.9275353  12.1748371  64.6483491  64.0859635
  11.6737064  65.5282769  64.1998318  12.9233976  65.0193406  63.5578212
   7.9674498  38.0378563  15.7895089   7.0652343  38.0855485  15.4249729
   8.4211093  38.7938080  15.3851701  15.6630816  63.5177150  65.3483854
  15.2287849  62.8968182  64.7688031  16.2743276  62.9217398  65.8879221
   6.4896268  64.7260906  46.9232543   7.0954544  64.8090339  46.1513111
   6.8904388  65.4062668  47.5145105  27.6656510  73.9322660  70.7156635
  27.5001007  74.8065680  70.4029268  27.6492464  74.0335757  71.7090724
   1.2836990  38.9729132  10.1765290   0.6775096  39.1240622   9.4583840
   1.3330519  37.9524556  10.1554007  59.3215598  38.0895824   6.6050791
  60.2132183  37.8923531   6.2392063  59.2728703  39.0452032   6.4014519
  22.3645294  66.4447857  59.0780681  23.3228637  66.4212684  59.3289902
  22.4302125  67.0046592  58.2833692   5.0935441  36.3152439  11.1030034
   6.0123067  36.4649812  11.3232801   4.6834049  36.9471983  11.6837638
  38.7112733  -1.6894196  61.2534285  39.0753182  -1.1289176  61.9606801
  39.4349503  -2.1363581  60.9175180  28.7450858  54.7643933  70.0911414
  29.5764729  54.5529068  70.6000139  28.7785020  55.7461395  70.1287463
  49.8562061   3.2137698  62.4604695  50.7187254   3.6787734  62.7534358
  49.4045136   3.2710461  63.3271090  20.5055198  69.9470774  55.3319020
  20.1692640  69.9002071  56.2540774  19.6994367  70.0046793  54.8319863
  14.5822602  56.7204255  69.5659479  14.7953895  57.3825754  68.9164133
  14.4714337  57.1816575  70.4169563  24.5238245  53.8680145  74.5896045
  24.8660959  54.5915127  75.1131496  23.5526161  54.1768565  74.4803575
  12.6110671  65.4375350  58.5053036  12.5650529  65.4939105  59.4907111
  11.6823285  65.6399559  58.3050727  25.2960277  64.6486518  76.7867190
  24.8162963  65.0993830  76.1220135  26.0090538  65.2565103  77.0681955
  72.8208556  35.6042360   9.9751831  73.4750712  35.4820534   9.2491927
  72.1345396  34.9469740   9.7162731  72.6423219  28.5022214   9.9104095
  72.9785890  29.3268528   9.4662575  71.8512556  28.8594066  10.3832448
  25.8820527  69.0260682  58.1800922  25.8053568  68.6537578  59.0850299
  26.1253192  69.9649930  58.4732945  70.9516379  26.3432448  18.1411144
  70.6672624  25.4327394  18.3396755  71.8209518  26.3713496  18.5328455
  26.2050340  70.5903488  69.5289522  26.7966134  70.6809857  70.3357136
  26.8104588  69.9623027  69.0415746  34.8830193  67.0267773  58.2439059
  34.2058783  67.3382530  57.5994958  35.3017257  66.3469547  57.7281688
  37.8994699  64.2419598  72.0157353  37.9895196  64.1056206  71.0237511
  38.8023778  64.7030320  72.1012175  75.8072277  32.3769751  14.7844583
  76.0035124  32.3942369  15.7618801  75.2896525  33.1857735  14.6968406
  44.5720191   0.0872503  62.1159834  43.7575179   0.0504291  62.6672328
  45.1668165   0.4182700  62.7993541  25.6207432  57.4647455  68.4146957
  25.0069796  57.2922628  69.1464077  26.1681453  58.1716061  68.8824273
  66.8443493  36.6825198   2.0540789  66.9962985  36.0131122   2.7443949
  67.0677484  37.4559804   2.6274239  23.6824904  66.2888794  75.0673230
  22.7727312  66.1598680  74.7642981  23.6745720  67.1342849  75.5203410
  28.2083088  55.7703906  82.8234067  28.4375626  56.6583433  82.5390850
  27.9260695  55.3429312  82.0400740  25.2053171  66.7031564  66.2643842
  24.8146459  65.8369247  66.4739310  26.0374784  66.6304333  66.8059908
  60.2553982  30.7340715   8.8780014  60.2910767  31.0703833   7.9381752
  60.6425475  29.8228565   8.7097162  48.9826080  30.9932135  -6.4201326
  48.0376991  30.9736628  -6.7919793  48.8638703  30.2399633  -5.7730580
  27.6445817  66.5487351  67.3030014  27.6071539  65.7445585  67.8307065
  28.1526030  66.1722923  66.5577196  11.3226062  60.9901333  63.9533524
  10.6014748  61.6205371  63.8479240  11.7840951  61.0597515  63.1157338
   8.7360437  41.4359857   9.8255637   9.3891369  41.1169948   9.1691763
   7.9521789  40.9186269   9.5788614  32.7477118  70.3837069  54.9868891
  32.2710856  69.9088113  54.2449908  33.6399066  70.0452420  54.8030766
  52.4454825  22.4365453   2.7094058  52.6034057  21.6927402   2.1185249
  51.7053117  22.1413461   3.2580085  28.3671599  70.4671689  61.2752725
  29.1402444  70.7750963  60.7030147  28.1184718  71.2559055  61.6561573
  25.7505942  63.5410984  65.1486880  24.9358879  63.7358334  65.6462237
  25.5815125  62.5900529  64.9790754  29.7338475  61.7737401  49.3780934
  30.6175977  61.3978372  49.5302473  29.4860456  62.0549468  50.2877085
  24.3894461  67.8611415  63.8795855  24.8410754  67.5492754  64.7220177
  24.1929349  67.0089182  63.4888306  33.6097404  53.1218362  65.2139008
  34.5821666  52.9575831  65.1363661  33.4379341  52.3552914  65.9077350
  28.5634651  64.4314241  65.0767893  27.6643202  64.1038794  64.9149652
  28.7737227  64.6627030  64.1124962  23.4460264  64.1496223  66.5659815
  23.0563981  64.0139597  67.4557110  22.6063203  64.4280909  66.1107596
  12.2477351  35.2569769  22.7890867  12.5924568  35.4626140  21.9258352
  12.0964701  36.1383505  23.1919522  15.0500825  59.7130404  65.2309903
  15.3589967  60.3463342  64.5976389  14.2278408  60.1891767  65.5352330
  19.1625814  63.3645829  68.6497639  19.9971082  63.1600333  69.0853098
  18.5377198  63.0388596  69.2935221  30.8268825  71.1783668  71.9300998
  31.7204950  70.8150553  72.0569567  30.5152120  70.6591940  71.1750425
  38.1159310  79.9724747  59.4428807  38.7588041  80.6886767  59.1409557
  38.2590510  79.2804509  58.8066198  34.9077365  70.6390370  61.7493586
  34.4411819  70.1586993  61.0629112  35.2472976  71.4221408  61.2339562
  15.5581199  61.7084739  63.1621468  16.3594153  61.4538670  62.5929261
  14.8711383  61.6531192  62.4701175  23.3154383  54.7516830  66.6455681
  22.9773014  53.8913754  66.8394552  22.9692729  54.9228490  65.7438535
  34.9388003  78.6085524  58.3664449  35.8919546  78.2539669  58.4804513
  34.6665180  78.5963094  59.2982595  19.0980899  73.4825253  59.7816677
  18.3504554  73.1508971  59.1702674  18.5382197  73.8646509  60.5085719
  28.6092611  76.3717704  65.7323510  28.4748156  77.3109054  65.4524114
  27.7178889  76.1539760  66.1211987  51.6393663   2.8264470  58.3699163
  51.0670700   2.1534325  58.7679426  51.8175947   2.4816705  57.4608750
  56.2880773   9.0160860  65.4415813  55.4417940   8.5490267  65.4015605
  56.5775247   8.8611014  64.4943657  34.4605065  75.7796537  56.4124434
  34.7716607  75.6479441  55.4932020  35.0364048  76.5186415  56.6846315
   0.9982044  36.4123100   9.4562258   0.4354835  35.8406253   9.9345904
   1.8778840  35.9222686   9.7159189  50.2608736   1.5107654  60.3033898
  50.1194051   1.8813067  61.2056735  50.6772151   0.6656699  60.5357826
   5.0435573  40.1128936  23.6282639   5.5796226  40.2334647  22.7613303
   5.0982804  41.0086298  23.9607997  24.7336596  72.8825860  69.9127967
  25.2784488  73.3510885  70.5555991  25.3966844  72.2371550  69.5167302
   6.7755705  39.7915783   9.2577179   6.2867659  40.1881713   8.5026758
   6.0428394  39.2618276   9.6364331  25.2476822  72.0626321  64.2349313
  24.7407243  71.5166686  63.5788515  26.0554908  72.2391620  63.7364807
  52.9872574   7.0728216  73.6818918  53.0674914   8.0170032  73.4436437
  53.8314877   7.0007316  74.2181405  28.6256448  70.7226589  58.1743609
  27.8262791  71.2531601  58.2795452  29.3123848  71.4078982  58.3980363
  32.5163298  76.4751766  67.3182398  33.4112909  76.6168643  67.6730355
  32.5963285  76.6368034  66.4097478  18.8296155  45.4678634   2.1892174
  18.3196884  44.8311795   1.6043470  18.4150717  45.2256194   3.0570495
  27.7464840  76.8096061  69.9223998  27.4736575  77.7336427  69.8330354
  28.2823175  76.6817434  69.1296452   7.1727786  30.9130286  50.6500446
   7.0880387  31.8867970  50.4997362   7.3533889  30.8758329  51.5940238
  17.5489925  26.5139444  65.1890966  18.0249698  27.0141544  64.5578573
  18.0173327  25.6905802  65.3265025  14.4815510  28.4149244  59.7027369
  14.7991805  29.1961114  60.2554469  15.1152995  27.7527963  60.1508412
   1.2977165  30.4688680  54.5873765   0.7931248  29.6655695  54.4869568
   2.1875929  30.2035989  54.2529416  10.7083035  19.0567335  52.4183863
  11.5457236  19.3227652  52.8902482  10.3969434  18.4167237  53.1278001
   9.4358871  25.3826942  48.4005505  10.1489087  25.3022350  47.6773626
   8.6261826  25.4451456  47.8428473   4.4020476  18.0114418  56.1212510
   4.2060357  17.3269586  55.4171687   3.9492089  18.8090767  55.6329078
  67.7518190  33.0745297  66.4678067  66.8707496  33.4581672  66.5823415
  67.6185637  32.2118104  66.1937412  14.5528464  15.8509793  47.1708655
  13.9057271  16.5677748  47.0078500  15.3450678  16.3159246  47.4628667
  32.1786876  44.0630584  -5.1012798  32.9662148  44.5130323  -4.7598858
  32.5274070  43.4365122  -5.7410090  12.4359070  22.3723872  60.0813632
  12.3466262  22.3404616  61.0246761  11.5652215  22.3652955  59.6789833
  29.5735651  67.2856872   4.5337037  30.1869229  66.5227908   4.6697536
  30.2430296  68.0043526   4.3904687   1.9246766  32.8297593  59.6822086
   2.1845830  33.5833675  59.0512585   1.5316862  33.3414924  60.4129851
  76.8249733  14.8484176  47.7486663  76.7113770  15.0391289  46.8159074
  75.9922780  14.4830399  48.0071994  12.2700351  15.7461778  52.4984102
  11.9737849  16.3322399  53.2547772  12.1069665  16.4007524  51.7730373
  12.2770294  35.6351557  62.8545202  12.6900369  34.7046936  63.1605528
  13.1708573  36.0829611  62.7289120  11.6808971  23.7626038  53.0169630
  11.9315642  24.5667699  52.4886097  11.4128431  23.1497095  52.2799726
   8.2680669  40.5469372  59.4396475   8.8907416  41.1794897  59.8246629
   8.2737392  39.8843442  60.1220727  77.7207375  33.8752038  45.4742117
  77.0819646  34.5492464  45.2246904  78.1436502  34.2802394  46.2505223
  70.4194668  32.3471853  58.2040326  71.0511939  31.8345306  58.7777007
  70.1643527  31.5784026  57.6346380   6.3610718  25.5336449  56.8772798
   5.9850121  24.6772938  57.1031117   7.0036039  25.6730679  57.6257002
  71.3341071  31.9205282  42.5610846  71.4261220  32.3250086  41.6572607
  72.2557858  31.7227577  42.7546879  78.3392372  39.0279356  39.6161264
  77.6186019  39.1236775  40.2868654  78.5506989  38.0570043  39.6980084
  15.8302043  35.3136498  56.5908194  14.9496188  35.7740549  56.5744913
  15.5992482  34.6065611  57.2774917  15.8768069  35.5821142  61.7336940
  16.8893235  35.5118423  61.8716744  15.7102345  34.6480840  61.6333038
   6.2749169  34.2748947  52.1461373   5.9072539  35.0225327  52.6301413
   7.2457293  34.4531840  52.3833152   4.5430194  41.4686681  73.2764044
   4.0058747  41.9505864  72.5667167   5.3254643  41.2539569  72.7363418
   4.7535027  32.2034189  47.6159760   4.0603882  31.9144234  48.1779229
   5.3963172  32.6612797  48.2222057  74.1370951  44.5134761  66.7081771
  73.6142731  45.3009025  66.9593123  73.5841698  43.8004216  67.2230158
  18.8654975  24.0650360  56.4751194  18.2681966  23.8178665  57.1971318
  19.5156345  23.3053881  56.5244077  68.6625464  36.6486915  62.4816914
  69.2828459  35.9765887  62.2688008  68.0989662  36.2842933  63.1618808
  17.0998871  41.6945438  64.3081717  17.3692151  40.8357805  63.8916884
  17.3185624  41.4969327  65.2365037  10.2231648  35.3301246  64.6961465
  10.7772196  35.7959543  63.9990935  10.7853282  35.5146548  65.4431275
   5.2843767  38.5700378  68.5286517   4.4763197  38.9437389  68.9132050
   4.8895078  37.8051291  68.0626361  12.4950589  50.4218073  55.5229711
  12.0806121  51.2369967  55.2032973  12.8051973  50.0686388  54.6448777
   4.8666909  30.4086548  54.0335779   5.7394470  30.0621305  54.2138999
   4.6332702  30.5703605  54.9992718  58.7244522   5.4082784  15.1409594
  59.3605494   5.7300645  14.4496906  57.9687081   6.0627422  14.9513344
   8.3943546  32.2672232  69.3688542   7.9354221  31.8194021  70.1125687
   8.9628038  32.8761910  69.8767253  11.2463211  33.1487156  58.9512522
  10.3389657  32.8817209  58.8981672  11.2462110  33.6954136  59.7697490
   8.1010490  31.1177471  58.3512529   7.9602903  31.6777562  59.1241547
   7.2687271  30.5655362  58.3125071  15.9064643  38.5267597  53.3440746
  16.0507579  37.6678463  52.9001543  16.7303551  38.6553401  53.7857001
   1.9387831  30.2211502  61.1797163   2.5281671  29.5674588  61.6736541
   2.4254643  31.0493782  61.4321826  14.1792037  44.1331068  51.3894880
  14.8478221  43.4230858  51.4697867  13.6415137  43.8009289  50.6348563
  74.6223818  26.7743041  62.5581667  74.5684142  26.0266054  63.2071525
  74.2503356  27.4821780  63.0898183  37.9771679  77.7720656  14.4359956
  38.0184732  78.6199060  14.9429162  38.9273596  77.6669722  14.3050519
   0.6007851  39.6333249  62.7229596  -0.2838963  39.7992207  63.2090872
   0.9177585  38.9455991  63.3308409   8.2973980  36.8148746  63.1609251
   8.7527905  36.0499223  63.4900781   7.3926804  36.4660643  63.0297163
   9.4934080  16.4223676  56.7653059   9.6731967  15.7048199  56.1027178
   8.5325105  16.4582551  56.7982575   6.3471111  26.2993406  61.4929655
   7.0901403  26.2305245  60.8268504   6.4538676  25.4313255  61.9894262
   7.3914185  21.6933040  56.7426095   6.9850193  21.2843998  57.5620631
   7.2331344  20.9201693  56.1319808  13.2192515  21.5527457  65.7347871
  12.4049820  21.1310035  66.1017190  13.8629164  20.9677904  66.2384843
   4.0305120  27.6502805  43.4940830   3.6073488  27.2241441  44.3010401
   3.5252334  27.2177043  42.7760198  11.9742670  46.5239963  51.0470948
  11.0067966  46.3488282  50.9851282  12.0441484  47.4851039  50.8735739
  11.1541494  22.7253631  55.2203719  11.2747622  23.2492541  54.4096500
  10.3399196  23.1903561  55.6196979   7.4839958  39.8591235  54.7509940
   7.1372968  40.1354044  55.6091575   8.3355439  40.3510745  54.7066595
  15.6741498  40.7131290  42.2424927  15.1984814  39.8401086  42.1863572
  15.4442061  41.0309933  41.2793751  14.3112259  37.6133363  46.7459922
  14.6756294  38.2439803  47.3308698  14.6196580  37.9424782  45.8431393
   4.1903989  35.3906543  60.0675768   4.7009563  34.4893524  60.2080610
   3.6779690  35.1016441  59.3272014  13.2617715  50.6575196  45.5046623
  13.3576546  50.4867919  46.4330465  13.2059169  51.6123715  45.4576515
   9.6128464  25.6811941  60.9299567  10.5585276  25.8842590  60.9087862
   9.6292179  24.8270861  61.5153292   9.9800168  37.2681450  45.1013479
   9.2383802  37.8353458  45.3541885   9.4994582  36.4986068  44.7104609
   9.9984055  32.9322027  44.3391789   9.1831749  32.5287820  43.8665920
  10.6968761  32.7102384  43.7408560   6.6322924  47.8060743  50.8472752
   5.9962277  47.3856295  50.2925404   6.9340293  48.5666375  50.1716851
  14.4225176  39.9987473  61.3963185  13.8562819  39.6541065  60.6637197
  14.4684029  39.2028861  62.0148497  24.9333801  39.4987623  57.3240583
  24.8224653  38.8986960  58.0950954  23.9817314  39.5984395  57.0228673
   2.1227080  50.0169061  50.7435135   1.9622407  49.5648724  51.6177529
   1.9868442  49.2726223  50.1584814  13.6854045  31.2549525  57.1505773
  13.0318930  31.4085608  56.4368486  13.4759365  30.3387804  57.4429248
  77.0854796  28.5055387  57.4141473  76.2493316  28.1187655  57.6083408
  77.0899836  29.3009967  58.0033866  31.7926948  72.8835766   9.3323631
  31.5401503  73.7227762   9.8353093  32.5223194  73.2964020   8.8076276
  13.0723636  25.0642440  58.5993474  12.3554627  25.7341127  58.4552427
  13.3471446  25.2825755  59.4988173   6.7445743  42.7479916  51.6740915
   6.7288122  43.3188213  50.8466922   6.1107807  42.1165794  51.3470235
   1.9706731  38.4159391  36.3409347   1.7735401  37.5499082  35.9475161
   2.1821180  38.1763532  37.2654737  74.1880855  40.2875230  62.7460764
  73.7826937  40.3133192  63.6644793  74.1868484  39.2968172  62.6737608
  73.9602355  33.9777663  58.1808983  74.8308806  34.2472504  58.4774912
  74.1178094  33.0126110  58.1731554  15.1823499  32.8711258  60.9588710
  15.2793748  33.2030935  60.0316418  15.1446935  31.9106150  60.7793349
  16.4577564  33.8129161  54.2256777  15.5042522  33.9734302  54.1683263
  16.7814929  34.5160898  54.7793889   3.0849177  48.6120668  57.1390319
   2.6995234  47.6882640  57.0386901   3.3146475  48.5520008  58.0415373
   1.6490205  38.8687326  53.9509797   1.2659905  39.2963743  53.0913192
   2.3358423  38.3036954  53.4022341  11.5261313  26.2916571  51.7578017
  11.8602711  26.6896550  50.9292463  10.7434566  26.8357998  51.8441645
   5.4076335  46.3824193  48.9329520   4.5473238  45.9246515  49.2052855
   6.0165413  45.5789803  48.9668954  17.9360975  35.5211870  52.3532236
  17.3731968  34.7800998  52.7227000  18.8347234  35.1704538  52.3710825
   8.6559259  34.0116959  55.7992376   7.7726025  34.3269552  55.9770854
   9.1845223  34.8384559  55.9258223  17.4844755  37.5727973  55.9656382
  17.9827316  37.5000480  56.8386327  17.0152020  36.7382380  56.0138061
  77.9070835  33.0386193  64.4342837  78.6893711  33.5875497  64.4182590
  78.3127589  32.1690023  64.6825222  16.0670001  30.6985836  52.2441888
  16.1362924  29.7248701  52.1583815  15.3605231  30.7498562  52.9456329
   5.7338533  34.7944718  55.6556299   5.6008728  35.4798860  55.0122017
   5.0497542  34.1193940  55.4739365  15.3739945  35.2180361  48.5143220
  15.0644628  35.8533097  47.8522836  15.9845996  35.8231921  49.0397451
  12.7649392  40.9810346  56.4703616  11.8397365  40.9900682  56.6685435
  12.9035373  40.2247799  55.9132449   8.7572871  43.0863454  60.2131781
   9.5495311  43.0965995  59.6525994   9.1245654  42.8785999  61.0528044
  31.2261182  68.3276007   8.4253525  30.8427051  68.8836196   7.7469681
  30.5586945  67.6295128   8.5168790   7.0781114  43.9636322  49.0322515
   8.0270734  43.9253484  48.9757225   6.7331931  43.4493705  48.2820979
   8.3322711  33.4611855  59.8616678   7.9586004  34.1721662  59.3034514
   9.0049574  34.0226218  60.3371778  18.8426477  36.0773153  62.2421058
  19.1931069  36.9136905  62.5902825  19.5281678  35.8484499  61.6420082
   0.1959232  35.3496328  59.1722722   1.0081524  35.7150485  58.8087778
   0.2928874  34.3997419  59.0931691  74.5002067  35.2757706  55.4769452
  74.2215720  35.2111016  56.4005316  75.4800482  35.2145446  55.5662703
   5.5293528  30.2717730  59.5335315   5.8002772  30.0359041  60.4960347
   5.5416952  29.3807683  59.2188041  12.2661142  20.4563644  56.2268808
  11.7548938  21.2958050  55.9157503  11.4769321  20.0315266  56.5853625
   5.7524699  29.8861570  64.7373963   6.0149947  29.4616100  63.9039928
   5.3156940  29.0715156  65.1317914   8.1330350  53.6632686  43.8389007
   8.6342292  53.5096551  42.9888336   8.4052719  54.5986724  43.9582773
  78.0587729  28.5517694  54.7666708  77.5190406  28.3480447  55.6021468
  78.1383554  27.6816022  54.3953655   7.8517931  25.8681502  58.8749627
   8.6468579  25.5614560  59.4386758   8.0071792  26.8483825  59.0666117
   1.0843839  39.2860981  48.9909248   0.4933168  39.3047657  48.2214830
   1.2085300  38.3082515  49.0911933  10.8594916  36.5646557  51.7571149
  11.1926229  37.0680564  51.0295360  10.8172514  37.2418511  52.4747442
  17.5630964  39.2198946  63.2977382  17.0425583  38.5116538  62.8255500
  18.2420505  38.6587517  63.7321283   6.6452501  40.3721109  57.1312484
   7.2608180  40.6357751  57.8997642   5.8398911  40.7722538  57.4634683
  77.0109111  30.6633672  59.5159130  77.3753871  30.8352980  60.4234169
  76.1436600  30.2491697  59.7911567  14.8899044  46.2584648  60.7672600
  15.7533544  46.2461171  60.3775683  14.5704910  45.3542655  60.5299639
  10.5964432  44.9050310  65.3178475  10.7531261  45.7974029  65.7255429
   9.9368236  44.5853465  66.0022209  17.4889009  40.7035861  56.3781871
  17.4366447  39.7597379  56.3808231  17.3714563  41.0289425  57.2693213
   2.0795614  30.1821746  58.5378718   2.1028639  30.0389012  59.5622598
   1.8446706  31.1555554  58.6604228  14.9109295  40.6731082  66.4609403
  15.6965394  40.4469687  65.8989688  15.1538780  40.2493306  67.3028642
  17.6958886  29.3507906  54.6746762  17.7193554  29.4629153  53.7022539
  16.7866102  29.0142649  54.7338404  18.0700951  34.0487433  59.3804804
  18.7855202  33.6325200  59.8680726  17.6757962  33.3025091  58.9264191
   8.9021725  22.0382385  59.8306708   9.2220220  22.4970816  60.6290492
   8.0777597  21.6364113  60.2113236   6.7476613  37.7537790  47.5023917
   6.7322120  38.1199543  46.5614615   7.4736011  38.3362563  47.8607452
  17.1025817  26.2295615  58.1141283  17.2372789  25.2526791  58.3703263
  16.4604926  26.4696809  58.8150815  22.4871929  24.2530632  56.2245089
  23.3147779  24.1770668  55.7370456  22.4335117  23.4338853  56.6962733
   4.9910838  40.7222641  50.9189238   4.1549306  41.2380373  50.8620859
   4.7347726  39.9163001  50.4073639  13.7902156  34.3873170  54.5999749
  13.0520013  33.8159594  54.2791456  13.4937275  34.4555442  55.5122449
   0.5369663  25.4804014  48.7117016   0.9879648  24.8947250  48.0742505
   0.1363312  26.0880405  48.0820777  17.7807898  25.8269245  54.7404442
  18.7299083  25.7197494  54.6010953  17.6579717  25.2896995  55.5489427
  11.2663640  31.0737761  63.2532908  10.3142837  31.3006886  63.0450695
  11.5373829  31.9960094  63.5150577  20.5822269  35.0655053  52.0092880
  20.9091003  35.1815709  52.9114720  20.8529432  34.1100821  51.9201085
  23.2088831  29.7173326  57.7288242  22.9511532  29.7076491  56.7688539
  23.0979289  30.6584703  57.8902673  11.8573777  36.7255581  67.3042610
  11.7615799  37.6884213  67.3549934  12.1002266  36.5219030  68.2200690
   6.7223467  20.8967301  26.5193635   6.8858800  20.1647507  27.1319934
   6.5323297  21.6240335  27.1562741   4.6403474  29.5762791  49.5483572
   4.6097886  29.1974273  50.4331166   4.1612203  30.4359385  49.6327744
  10.6185454  30.4119052  50.8228796   9.7226160  30.4971945  51.1368912
  10.6236400  29.4449499  50.5461246  10.4675417  40.4917833  63.5992978
  11.2474927  40.3453586  64.1710988   9.8097479  39.9211221  64.0211535
   2.7094857  26.5011265  45.5556751   3.3071681  26.9192840  46.2349563
   1.8410375  26.4474239  46.0685531  10.9356537  21.9853169  41.8219755
  11.6895431  21.4593508  41.4034315  11.4295981  22.2414939  42.6223937
   4.2132719  32.4133357  52.0429751   5.0065306  32.9825247  52.1036729
   4.5919830  31.5871364  52.4828554  11.9321638  36.2427759  46.6336442
  12.7365113  36.8296237  46.5657668  11.3170762  36.7541901  46.0291497
  26.5031255  15.6534599  65.0125042  26.3859667  16.3898569  64.3150442
  25.6233893  15.3542279  65.0501422   3.9307950  27.4551983  47.7579716
   4.3387939  28.3424249  47.9432949   3.0698432  27.5849786  48.3320123
   3.8842446  29.6626590  37.8497524   4.7514388  30.1272919  37.5802439
   3.2932558  30.2073608  37.3317849  16.7707748  20.0765294  46.9370567
  15.9248324  20.0754424  47.3961478  16.7157741  21.0171799  46.4804588
  17.1185150  47.3082926  44.3901697  17.9666465  46.9275383  44.6665192
  16.5071296  46.9865540  45.0685120  22.7139388  40.6501877  52.5803307
  22.3178110  39.9328186  53.1220324  22.4350885  40.3515712  51.7048260
   8.7257613  38.8501835  48.6967896   8.5143201  39.2177036  49.5547094
   9.0252247  39.7144249  48.2347868  28.7968096  49.9579193  55.7068743
  28.6426260  50.4994285  54.9207119  29.6188709  50.3153521  56.0350442
  10.2305447  48.1215653  54.3237479  11.1748806  48.2258025  54.2450389
   9.8793448  49.0169246  54.0425201  22.7466377  49.9682848  47.0366174
  23.0065461  49.1619074  46.5218117  22.6959508  49.5785911  47.9557636
  13.4180523  42.9462128  48.7504636  13.5246898  42.4112960  47.9006503
  13.1446847  43.7899162  48.3655216   4.9312866  45.2433092  69.5662420
   5.1027261  45.0816350  70.5308009   5.8268759  45.4734835  69.2296525
  23.0289938  54.5951714  46.2907742  22.8061839  53.7733371  45.8169951
  22.0647418  54.8247847  46.5318933  30.9905512  56.9796006  67.9652814
  31.6840525  57.5738465  68.1508137  30.6727624  56.7074376  68.8458155
  31.7237368  45.7961396  50.4195260  31.5601889  45.3923072  51.2758113
  32.4282921  45.3012099  50.0192685  29.2794899  51.4829972  48.2827586
  28.4710814  50.9924656  48.2557917  29.7258343  51.2537207  49.1228182
  15.6244064  58.2198981  52.5860166  16.1019874  57.9614493  53.3915878
  15.4525684  57.3289611  52.1158999  12.6078688  54.9525650  48.3462802
  12.3836153  54.0031448  48.4465881  13.3076412  54.9285471  47.7093678
  21.6592295  34.3358960  54.2045552  22.0497069  33.4627708  54.0037580
  22.3680697  34.7623807  54.7693015  10.1735319  49.5236660  45.2663461
   9.7479025  49.8346760  44.4211826  11.0917411  49.9540402  45.0868933
  14.4964403  40.3051257  51.3574889  15.3873157  40.7503243  51.3997641
  14.6063267  39.7996022  52.2287580  14.0899156  45.0462186  74.2605610
  13.7986451  45.9359603  74.3413867  13.2416051  44.6693469  73.8228226
  11.2887930  44.1484801  55.0550855  10.7341765  43.9921663  54.2435779
  11.7931695  44.9175111  54.7170625  10.4962197  44.5377917  42.1671632
  11.3922073  44.1352421  42.1156657  10.5350717  44.9499823  43.0248633
  22.9375409  49.6195908  49.7357161  22.1610277  49.5619069  50.4266630
  23.2288126  48.6829420  49.9180063  16.0616162  60.6884667  46.8364842
  15.3636578  60.4694342  46.1847933  16.8355266  60.6576959  46.2171354
  19.9810292  45.6198053  61.1486386  19.4686916  46.2066363  60.5900931
  20.3241409  44.9932872  60.4547690  23.3209685  35.9495967  55.5678821
  24.0621430  35.4840803  55.9923878  23.8309780  36.6982587  55.1619661
  16.3665103  52.0644626  43.8523593  16.2743722  51.0867250  43.8607537
  17.2533830  52.1424644  43.4034660  32.1046149  40.2314871  52.8266348
  32.7326130  40.8499373  53.2112992  31.4168063  40.9527751  52.5632215
  34.1121326  55.5303835  63.9913893  34.9758478  55.1189816  63.9523356
  33.6592543  55.0275015  64.6644240  14.1029495  45.8791077  67.7517706
  14.4835626  45.2905438  67.0548042  14.2956155  46.7611847  67.5270442
  29.1909234  47.6396039  54.3920811  29.4337950  48.4516111  54.8686649
  28.2449935  47.5882537  54.5973407  20.6463650  49.6005324  51.0845432
  19.9045106  50.0400739  50.7090288  20.9441731  50.2913473  51.7322307
  28.5172804  43.7005158  61.9253938  28.4663353  42.7132984  61.8441560
  29.5142337  43.7641276  61.7651399  24.9329147  41.8215687  53.8110668
  24.1712636  41.2892509  53.4293427  25.4092236  41.0293060  54.2157979
  26.3838593  43.3726924  66.8788761  26.2250045  42.5259052  66.4308924
  25.6915827  43.4499049  67.5435620   0.7113104  49.5945278  44.7466049
   0.7517651  48.9739118  45.5211654   1.6418294  49.8631598  44.7175890
  13.2657412  45.4158028  47.2596613  13.9199961  46.1300872  47.3118780
  13.5483993  45.0277988  46.4033748   8.1016402  64.6593205  58.2264955
   7.2903847  64.3436668  57.8213004   8.4133830  63.7267241  58.5356024
  15.8891434  41.8859820  60.1076918  15.4045276  41.1056691  60.4966029
  16.6916288  41.4177489  59.7772035  12.9023154  48.4385220  64.7131310
  13.0826475  49.3998664  64.8228395  13.7478462  48.1896499  64.2649121
  30.2160578  55.1411616  53.4529741  29.3933967  55.0691609  53.9754079
  29.8337020  54.7944315  52.6209988  10.5808492  46.0257344  47.2259460
  10.7179882  46.9787452  47.2927088  11.5310326  45.6973811  47.2502142
   4.1455654  53.1318093  49.6688822   5.1108630  53.2359294  49.9311578
   4.2515518  52.2007996  49.3328914   8.5600677  44.3669044  67.4073050
   8.0615231  45.1339593  67.7703479   8.4783101  43.7327956  68.1379908
  31.1120075  50.6218851  57.5551580  30.8892553  51.5564215  57.2834447
  32.0832099  50.6595871  57.5060065  22.3156626  59.7054963  51.7336723
  21.4761147  60.2841019  51.5613314  21.9131528  58.8490966  51.5030402
  11.6230861  43.4324867  61.6048187  12.3390001  43.3963980  62.2575774
  11.8062327  44.2506289  61.1279447   3.9525477  56.6596386  51.4203065
   3.4404861  56.1740639  50.7511046   3.9468222  57.6058688  50.9875613
  78.3674502  41.4491642  38.3665382  79.0266076  41.4039728  37.6608249
  78.4394629  40.5431735  38.7882764  20.5454583  43.0882429  60.2592315
  21.4144532  42.9278290  60.5806200  20.1106499  42.1970909  60.4188117
  12.8159584  46.6599441  57.0043294  12.7716234  47.0725143  57.8932448
  11.9277927  46.7205099  56.7140110  12.9470228  58.2971489  53.0655857
  12.6325022  57.4083186  52.7038224  13.8480023  58.3079880  52.6894340
   9.2918115  61.5836580  47.1895299   9.7676580  62.4272712  47.1710913
   9.3688566  61.3007827  48.0832007  19.2891194  53.1506883  52.7032731
  19.9335161  52.5104742  53.0901088  19.1713487  52.7090697  51.8410511
   8.5364404  40.1270287  51.0968026   9.2504623  40.4053161  51.7636003
   7.8795801  40.7874363  51.2955623   8.5346222  35.7938503  52.6869054
   9.4990960  35.9667164  52.4368605   8.6178416  35.8617649  53.6687398
  11.2583931  52.7601448  54.5184446  10.4881741  53.0543924  53.9685472
  10.9256903  53.1051985  55.3721118  19.1462410  49.7964576  45.1850883
  18.4754550  49.5688798  45.8650535  19.2579702  48.8398478  44.8236096
  12.7279847  40.2178758  65.0925944  13.6395168  40.4781426  65.5745552
  13.0503956  39.4625461  64.6020914  15.8977166  40.3689568  46.6311617
  15.8102249  40.0426981  47.5712614  16.7857762  40.1063968  46.4539219
  14.5022183  29.6155554  54.3743839  13.5948486  29.9477470  54.5135954
  14.5218012  28.7887337  54.8835087  17.7127920  45.3548449  52.8843468
  17.3087289  44.6409281  53.3324204  17.9176376  45.0188774  51.9991664
  21.3891293  41.1165900  48.2583202  20.4572598  40.9400366  48.4143829
  21.4022951  41.3002285  47.3214562  18.0582418  56.1076622  65.7902146
  17.6486282  56.8400505  66.3323200  18.9226437  55.9433521  66.3153105
  27.2685098  51.1174480  61.0745292  28.0311532  51.1537089  60.4905992
  27.5631931  50.5768928  61.7847210  11.4226010  39.8324626  45.1251981
  11.0557351  39.0170995  44.6975090  10.6944139  40.4534676  44.8857054
  17.8933849  38.0755458  51.2289739  18.3482411  38.5943465  51.9056213
  17.7275542  37.2044746  51.7026523  17.5304201  41.7697688  43.6308589
  17.7931328  42.4203485  42.8976278  16.8177528  41.2520514  43.2226326
  19.6386717  46.5658797  45.7447485  20.5233632  46.0889729  45.7758444
  19.6033353  46.8818191  46.6738515  23.4032215  57.7298799  45.8265124
  22.9739989  56.8294743  45.8026638  24.1218081  57.4999876  46.5121072
  22.9679884  45.5083405  48.4052407  23.2746540  46.0891040  49.1716058
  22.9035406  44.6666083  48.8932892  21.7564087  48.4393306  54.0622992
  22.1956228  47.9727303  53.3608446  20.9702100  47.8512021  54.2005292
  14.9029700  54.4750899  43.7668418  15.3585395  53.6133560  43.5368921
  15.2294734  55.0743035  43.0690329  22.1252151  50.1156922  57.6938221
  21.7009996  50.9923546  57.6212567  22.4821733  50.2296364  58.6204732
  17.4186160  36.8341214  49.0810330  17.5291939  37.2910438  50.0120624
  18.2682970  37.2020052  48.7315405  17.1426508  66.6759865  43.1076004
  17.9138881  66.4053642  43.6259068  16.8413864  67.4693169  43.6672899
  73.5267838  42.4629803  45.2538189  74.5166474  42.5858978  45.1794472
  73.2489926  43.3987947  45.4844341  11.3746639  38.6306011  53.6528587
  12.2396532  38.7819231  54.0667508  11.1724153  39.5643916  53.3377430
  27.7701063  55.8091183  47.6340955  27.4927656  55.1414114  48.2837654
  28.6654424  56.0027356  47.9186717   4.4759529  46.8708954  46.5448470
   4.9051612  46.8033369  47.4762673   5.0833705  47.4675331  46.1248729
  24.0274836  61.7503401  54.1256297  23.8775202  60.7649921  53.9099569
  23.4336571  62.1108349  53.4148967  20.1595718  31.4848660  56.9488107
  19.5261778  31.8127301  56.2405626  19.4545656  31.4043737  57.6709984
  36.8032307  43.1210834  54.5129494  37.6369240  43.2578861  54.9540356
  36.8522292  43.6443250  53.7293058  13.6523453  38.7316572  54.9075008
  13.8320485  38.2884241  55.7345901  14.5262157  38.4972281  54.4303661
  28.4691090  37.2240112  55.6971296  27.8570918  37.0103030  56.3716861
  29.3355575  36.9590658  56.0726440  18.5270178  48.7139869  64.6808735
  19.4013078  48.9198823  65.0420182  18.0048882  49.4408941  65.1150736
  12.9303073  41.4439235  46.3735868  13.7434698  40.9493314  46.2811864
  12.2886772  40.6977875  46.0404360   0.3059547  42.9400824  41.9055528
  -0.0359481  43.9126728  41.9595028  -0.6279074  42.5453148  41.8743526
  14.4841722  36.5753520  51.1258638  13.8611130  37.0659008  50.5467001
  13.8517506  36.3115823  51.8842163  21.1079829  43.1048565  52.0153237
  21.6540940  42.3598359  52.3339923  21.5217754  43.3492550  51.1531096
  28.8210691  53.8151611  62.0061842  29.4824708  53.0732451  61.7814696
  29.1294523  54.0211664  62.8940080   9.9485011  45.3473657  57.0059107
  10.4343761  44.8363156  57.6876867  10.2380826  44.8518649  56.1953775
  22.1454454  50.1299513  60.2777060  21.9599309  50.6778772  61.0471676
  23.0157812  49.7879507  60.5117535  21.3737686  47.8457619  56.5671532
  21.7722696  48.1374497  55.7345129  21.7019205  48.6337017  57.1230345
  26.8211644  49.6134404  47.6664044  26.3067465  48.7703779  47.8469861
  26.5100509  49.7546425  46.7166599   9.7659668  51.6394463  48.4317699
   9.7116340  52.0333194  47.5421996  10.4953244  52.0879649  48.8730479
  25.3127971  47.2342575  47.4965218  24.4464408  46.8623284  47.7179901
  25.9247666  46.6584301  48.0564101   6.5295591  45.9347040  56.7903036
   6.9573870  46.4175294  57.5198014   6.3320189  45.1107671  57.2689877
  18.8171011  52.6350974  42.6659597  19.5225979  53.2024033  42.9388652
  19.3043752  51.9223053  42.1532331   7.3537466  54.7673322  55.4429701
   6.9969987  53.9898116  55.9345932   7.9685226  55.1357869  56.1138746
  23.0200297  55.4456062  64.0351327  23.0275753  54.4944082  63.6915075
  22.1470826  55.7172523  63.6845041  10.0076036  36.6090030  55.2471422
  10.4329008  37.2297034  54.6435689   9.6647545  37.2619401  55.9094857
  11.3290413  65.1788972  41.1118067  11.5014585  65.7424315  41.8990971
  12.0444060  65.5417190  40.5543165  26.2696302  61.0825842  72.2551335
  27.1927336  61.3576961  72.2372715  26.0582671  61.3795773  73.2288391
  77.8382191  45.6709147  50.4984615  78.1912689  44.8076699  50.1781320
  76.9639272  45.3412001  50.8652876  12.5512212  26.5326354  61.1191798
  12.4421167  27.3611431  60.6379797  13.3222378  26.8115118  61.7098842
  21.0668953  52.0080532  62.2781676  20.4553738  52.7084583  62.5760012
  21.9099797  52.4996986  62.2976771   8.6277051  59.7065161  54.7508593
   8.4538348  60.6705583  54.8893116   9.5992919  59.7423144  54.6767022
  18.5721881  47.8642077  49.6585713  17.9993475  47.1906008  50.1225057
  19.2438131  47.1434139  49.3649279  31.9076352  48.3821903  50.7359392
  31.7574508  48.7441240  49.8462983  31.7323148  47.4542198  50.6296156
  28.7094587  57.5605590  70.2739607  29.3863802  58.1475961  70.7283667
  27.9191646  58.1883900  70.3725970  24.9459369  38.8080003  51.2954437
  24.7807183  38.1369668  51.9166996  24.0428970  38.9364839  50.8351226
   6.5193148  52.2466046  56.4097210   5.8286722  51.5344616  56.4343309
   7.3376858  51.7413709  56.4419942  31.0034128  58.7108970  48.1394875
  30.6986074  57.8911690  48.5915470  30.1797628  59.1747419  47.9545375
  13.1975256  67.6916019  53.5617126  12.7203500  68.5362238  53.8844764
  13.4566813  67.3308924  54.4722301  26.9914429  45.5155060  48.6361427
  27.9351792  45.8226406  48.7411666  26.9734756  44.8928128  49.3980139
  30.3516813  53.1551427  56.8468729  29.3546949  52.9844260  56.8541679
  30.4450870  53.6626436  57.6575407  14.1756139  47.4841518  54.3109078
  14.1146669  47.3411373  55.2521223  13.8319142  46.6679697  53.9259933
   8.3401678  62.4304909  55.3204117   8.1377394  62.5002264  54.3211331
   8.5020147  63.4139764  55.4406016  25.5306827  46.2736547  52.4309117
  25.9044299  45.3712543  52.5180134  26.0357280  46.7362245  53.0925269
  14.7818241  43.5212884  70.9157025  15.0864338  43.0946173  70.0565830
  13.9565174  43.9292455  70.6345338  12.9228326  63.0154904  55.3632562
  13.2242615  62.0737840  55.1762761  13.7766820  63.4519356  55.3598302
   7.1373712  60.0952627  58.9973113   7.2776333  59.3454570  58.3287676
   6.6068996  60.7170714  58.4726861  12.6642042  39.4037028  59.1648616
  12.0367082  39.9924323  59.6520301  12.7750604  40.0003288  58.3602907
  13.1967741  48.1187335  59.7687675  12.5829054  47.6443519  60.2928125
  14.0642396  47.6762878  60.0512009  30.0620044  42.7147241  51.6257407
  30.3318099  43.4560560  52.2156305  29.4382600  42.2267634  52.1995452
  21.7126130  45.4982328  57.7047267  21.5072758  46.3804934  57.2915967
  22.3102150  45.7303942  58.3970565  27.8146653  46.5569132  62.1060593
  27.9789766  45.6342077  61.9492477  27.1551191  46.8286541  61.4114161
  13.5895470  43.5879004  56.7949100  13.5911026  42.6643021  56.5773896
  12.7721928  43.8685976  56.3107808  20.1177217  58.2599684  45.4861191
  20.3240410  58.0498382  46.3935097  20.7887321  58.9843878  45.3409921
   9.0941861  41.0166367  67.7164498   8.2579620  40.7478073  67.2460789
   8.6980194  41.5218854  68.4472055  13.9529717  43.7417681  59.6061682
  14.6209563  43.0405743  59.8068544  13.8466574  43.5441716  58.6267564
   9.3250636  43.5575171  53.1901355   8.9236938  44.3772728  53.5363158
   8.4680479  43.2235539  52.7387519   9.6766187  35.7392937  49.3521355
   9.8632994  36.0082358  50.2223345   9.6237124  36.6155577  48.9226138
  30.9378445  55.8664824  65.5573633  31.0769185  56.5919023  64.9453995
  30.9993040  56.3437865  66.4407084   9.6480713  47.6609648  36.9408244
   8.8707150  47.6094009  36.3789843   9.5672529  48.5033518  37.3590216
  11.1954137  63.4147551  52.1672410  11.3380285  63.9606826  52.9412619
  12.1350798  63.1769078  51.9332710  18.9458024  38.9997659  53.7080992
  18.7711303  38.4066469  54.4281025  19.2265187  39.8472883  54.1253581
  23.4276577  35.0208856  50.9697290  23.3253665  35.0282102  49.9589749
  22.4799957  35.0765560  51.2304128  21.1246990  43.7436558  54.6837362
  20.9058285  43.4330145  53.7658347  20.2749688  43.9145568  55.0957122
  14.9391897  48.0505795  47.6866229  15.9124451  48.1527190  47.6236882
  14.8867601  47.6377231  48.5650625   4.2135279  41.8512957  35.9156757
   5.1722224  41.9863624  36.1504242   4.2705832  41.0643146  35.3635712
  17.8322928  40.1310321  59.6180663  18.4138932  40.3540802  60.3928121
  17.6984277  39.1898637  59.8829846  17.7328656  49.9903708  51.9680719
  17.5688642  49.3723729  52.7319826  18.1973274  49.3750181  51.3437552
  24.7375327  57.0622056  43.4221857  25.6256907  56.7869866  43.6803784
  24.5956592  57.7399393  44.1515690   8.6421455  45.8765916  54.3472768
   9.2372332  46.6676508  54.3328728   8.0605059  46.0501710  55.0727952
  22.5147898  42.6123962  57.3732168  22.0013238  43.3526458  57.7632169
  22.2649523  42.6794885  56.4390149  11.6387847  32.6683767  53.9245910
  10.6918037  32.8152277  54.1415436  11.8338750  31.8413488  54.4074214
  31.5542205  48.6709537  53.3277337  30.6545683  48.2788140  53.4458448
  31.4701233  48.6764410  52.3111095  17.3727602  53.2512342  46.1498533
  16.9186962  53.0263735  45.3126294  18.1463741  53.6969799  45.9643372
  53.7196372   6.8042649   8.1769071  53.0911160   6.7341488   7.3608793
  53.2089143   6.2511518   8.7693740  18.1445459  44.3592972  50.3366815
  17.8421753  43.8990829  49.5510978  19.1228355  44.3981137  50.2255951
  24.0031637  56.1589127  52.8549571  23.4730490  55.8912785  52.1042985
  24.9076902  56.0110943  52.5058736  16.8982790  57.7324273  55.0936616
  17.0194700  58.7210455  55.1898307  16.0121972  57.5970998  55.5179485
   4.6687780  41.3061465  39.9561999   5.1019717  42.1673232  39.9875275
   3.7215198  41.5356490  40.0061967  22.8466932  54.9495640  50.4276552
  23.4281817  54.7339029  49.6686640  22.6419252  54.0664934  50.7217815
   7.7033174  55.8762310  51.6584229   8.1272368  55.2881553  52.3287123
   8.2963954  56.6441739  51.6490364  15.0265966  48.0424894  63.1014779
  15.9799417  48.1080769  62.8986529  14.7512635  47.3502098  62.4759072
  24.7931722  49.7354218  60.0585761  24.6363191  50.0963768  59.1261345
  25.6882675  50.0339244  60.2049915  23.8236116  58.7385410  56.7472603
  23.6222665  58.8821353  55.7772751  24.5701233  59.3543735  56.8395481
  16.1661462  58.4734460  61.5488718  17.1242492  58.2932595  61.4285980
  16.0863775  57.9968643  62.4414253  19.2040795  51.7597629  49.5983727
  18.2267800  51.8054822  49.3584567  19.5600643  51.6544606  48.7121975
  18.4122675  46.8995290  69.3785233  17.5489581  47.0775809  69.7004892
  18.7271200  47.7381503  68.9849182  37.4236676  54.0974509  58.9586935
  38.1325978  54.4474136  58.3757080  37.8000422  53.2488415  59.2079127
  34.3216191  42.9621094  50.9623031  33.3958946  43.0634153  50.6945524
  34.7119785  43.0277293  50.0573556  19.5240209  56.3142767  53.4694168
  19.4958726  55.4445927  53.0891685  18.7570451  56.2548675  54.0673070
  14.0936639  39.3191287  44.4027327  13.1446295  39.3511621  44.2406112
  14.4426936  40.0708757  43.9414414  11.0443462  29.6034908  60.7482746
  11.2027311  30.0534293  61.6146812  11.3057706  30.3044855  60.0767032
  16.5964414  41.9429300  51.4914659  16.4272026  42.2352899  52.3949309
  17.5380604  41.9383773  51.5065322  12.3481493  38.2466481  50.1588689
  11.9682319  39.1381647  50.2483609  11.9520825  37.9747300  49.2817336
  17.2089294  56.7454814  31.6036735  17.7476730  56.3256486  32.2511783
  16.3622025  56.2285297  31.6127229  32.8922734  31.5994484  63.1760348
  32.4825452  32.3143593  62.6675576  32.5760488  30.8049707  62.7795157
  16.6481590  37.0907926  59.5427799  17.4882587  36.9100454  59.1146629
  16.5287168  36.4039352  60.1292635  15.6803136  57.0459717  37.7405774
  14.7532955  56.6934106  37.9092186  15.9895104  57.3014493  38.6183817
  22.1737866  52.2995364  50.7660527  21.3318807  52.0296286  50.3529701
  22.7918974  51.7213260  50.1947526  20.0284567  45.9496581  48.4368443
  19.7542850  45.1149159  48.0173940  20.8472569  45.6764863  48.8406524
  30.2800752  36.6270557  57.7702451  29.6421759  37.0583206  58.3323760
  31.0980250  36.8581863  58.2902728  38.7940911  50.8303888  53.7437142
  38.1928344  50.0853353  53.5713129  38.2240661  51.5632337  53.4760031
  26.6865086  47.7444009  55.1879571  25.9196415  48.3735965  55.0597689
  26.3180110  47.1281377  55.8666495  16.7705718  43.7006665  62.3773500
  16.4972935  43.3457313  61.4811274  16.9407290  42.8230746  62.8191338
  12.1044097  41.2412709  50.6487576  12.4506446  41.8894115  50.0966997
  12.8927978  40.7215458  51.0293283  78.3578735  49.0964102  55.9893552
  78.4540775  48.2980043  56.5870722  78.0806947  49.7664572  56.6442868
  16.4398819  42.7279447  54.1156684  17.0029941  42.2869920  54.8333886
  15.9493449  43.3756244  54.6975975  22.4950844  39.4452931  50.2500414
  21.8144382  38.7502057  50.4611023  22.0939085  39.8666415  49.4988492
  16.7584534  45.3158820  74.0755583  15.7861439  45.1527339  74.1946273
  16.8486713  45.5505179  73.1342316  78.2959854  51.9365046  53.1758565
  78.3196465  50.9428292  53.3633267  79.2413499  52.1521340  53.3539065
  18.7057379  40.3345110  45.6146612  18.2210885  40.8820085  44.9493967
  19.5465943  40.8916303  45.6727121   9.8765158  45.2120050  71.5653285
  10.1801012  44.8987635  72.4458175  10.7420506  45.4170675  71.1333887
   2.2860313  52.9260063  54.1777874   3.2035785  53.3386653  54.2142639
   2.5076420  52.0015864  53.9375210  14.1238033  60.3035945  44.9792160
  14.0787014  61.2038892  44.5513508  13.1647786  60.1805098  45.1323374
   3.7556176  48.7421406  59.6700593   2.9675766  48.3106851  60.0609260
   4.4721894  48.1519090  59.9283586  19.1163992  43.3541568  47.7567444
  19.3941765  42.4382109  47.7738004  18.2780102  43.3229793  47.1636479
  33.3044707  51.3670701  60.4772329  33.2680514  52.2642944  60.9206771
  33.6650832  51.6407017  59.6232812  31.7768464  47.7925275  57.1440157
  31.4264344  47.6345192  56.2358012  31.8314864  48.7694003  57.1638672
   4.9722394  53.7700112  54.1509924   5.4723529  53.0246071  54.5880009
   5.5576556  54.4920719  54.4704601  21.6531087  59.2102486  42.0854330
  22.3066068  59.4616273  41.3671479  21.8210465  58.2431856  42.1608066
  19.9173845  40.9227352  55.4453842  19.0656904  40.9453837  55.9082995
  20.2640889  41.8119050  55.6577834  36.8941824  40.7286069  44.9495538
  36.2555835  40.6949987  45.7011836  36.7766117  41.6504838  44.6417090
  18.2665831  56.8823896  49.1478541  17.9802505  56.1395174  49.7599366
  17.6716026  56.7271144  48.4144440  27.2237399  43.3252543  50.3164795
  27.0018251  43.8147764  51.1252163  27.8733880  42.6817948  50.6553363
  22.2612704  45.4709585  45.7916960  22.4755690  44.5661427  45.5708185
  22.6686830  45.5609069  46.6667864  17.9146724  44.9002958  67.6979332
  17.4546333  45.4731359  67.0655858  18.2676369  45.5138378  68.3675082
  13.0338899  45.5410961  53.2398019  13.4630500  44.7957563  52.7496773
  12.7361598  46.0238518  52.4277731  17.3901532  54.7657444  50.5202945
  16.8710677  55.1066832  51.2292390  17.1142183  53.7831076  50.5329774
  11.0550983  46.6837435  63.2531156  11.4768071  47.3190731  63.8031330
  10.8442840  45.9445156  63.8497828  12.6875718  45.0406322  69.8836450
  13.1852772  45.2176110  69.0639741  12.0932811  44.3172256  69.6136160
  29.7702390  48.7170312  61.8771374  29.1553735  47.9648865  61.8437026
  29.6581154  49.1650461  61.0472633  39.9079059  61.1640917  54.4317147
  39.0751993  60.8018228  54.0564281  40.4422887  61.3694761  53.6693923
  27.2347440  66.1111514  54.6889027  26.7528814  66.5795102  55.4255520
  26.7805222  65.2010441  54.7649242  23.2735204  58.1071405  70.5237312
  22.3826885  58.4327637  70.7325507  23.6582151  58.9625247  70.1906194
  28.3048463  59.6880636  48.4301402  27.5572919  59.6764052  49.0221454
  28.7606564  60.5246064  48.7643963  55.8794661   4.4771064  51.9761633
  56.1983242   4.6813882  51.0741584  55.4189360   5.3604979  52.1600094
  28.2312140  68.8443212  47.7379429  27.5449086  69.1159970  48.3736332
  27.7942728  68.1151412  47.2365662  24.5549732  71.5924969  53.9816798
  23.7700399  71.3859381  54.4629343  25.3011081  71.2331267  54.4913112
  23.6448273  69.8558551  69.2660552  24.3352448  70.1978660  69.8419147
  24.0601197  69.9918855  68.3904887  37.0112443  52.7717749  50.5904593
  36.4610144  52.1216663  50.1465302  37.4482741  53.1584806  49.8235658
  36.7611315  68.8619323  59.4382943  36.2407831  69.6520825  59.2324390
  36.1996096  68.1151770  59.0665616  21.4030225  50.4988191  43.5376356
  20.5454660  50.6655852  44.0953465  20.9652624  50.4191104  42.6467711
  20.7707700  63.9787840  49.7041348  21.3501086  64.4901191  49.0367896
  19.9603230  64.5663038  49.5801991  31.6608513  49.4238554  64.1664887
  31.9010579  48.5042558  64.1497272  30.9526687  49.4961125  63.5406434
  29.7450021  67.8589859  55.9793201  29.7721047  68.2035095  55.0902637
  29.9241195  66.9275334  55.8303156  19.0309346  65.7542752  52.1591116
  19.9466148  65.4672551  52.1856626  18.8323306  65.8175491  51.1997839
  26.2761270  71.8055640  58.6982672  26.4123287  72.6889223  59.1466080
  25.2844572  71.9052428  58.5580217  19.4948829  71.4796884  66.5396318
  19.7212048  70.6371964  66.1638998  18.7470936  71.8221235  66.0122001
  42.3175341   2.0813354  54.9737321  42.2703058   1.3015282  54.4476872
  43.2879129   2.3098927  54.9038211  19.5504283  57.1771166  67.9100074
  20.4973879  56.9544074  67.7109744  19.6379590  58.1653002  67.8021786
  31.5983410  53.8626198  49.7904954  31.7171693  53.4928220  48.8899273
  32.5662353  53.9430611  50.0564666  19.2650280  60.1518963  53.4339326
  18.5899831  60.6837091  52.9794748  19.1690116  59.2868054  52.9827973
  42.0452190  70.4913802  64.5698171  42.5616011  71.3281281  64.6422201
  41.2459423  70.6921076  65.1065680  23.6307747  52.7649734  57.3490856
  22.6674962  52.6666393  57.1232653  23.8433259  53.3875030  56.5709392
  20.5108114  62.7367787  54.2722355  21.1160077  62.9830410  53.5395382
  20.5243194  61.7595035  54.1386227  36.7339894  60.6681771  45.9474127
  37.6528079  60.7590821  45.5846225  36.8658372  59.9871151  46.6135706
  19.6165459  58.6081455  64.1577215  19.3552892  59.5583232  64.2524142
  19.5055744  58.2764520  65.0422393  41.4015221  60.7591641  58.5676249
  40.9907646  61.5279720  59.0800431  41.2752186  60.0691552  59.2372405
  37.6263109  56.5146832  66.2085014  37.7698949  55.7581518  66.7693774
  36.6614166  56.5479733  66.1511413  32.9073899  64.3284279  56.4944599
  31.9848121  64.3074040  56.2515832  33.1290353  65.2877786  56.4488686
  58.4910902  10.8949981  53.8544710  58.7617691  10.0330592  54.2420314
  57.5647451  10.8642518  53.9613377  23.2364128  59.7659136  40.1553767
  23.9631971  59.2213632  39.7899007  23.6367671  60.6856888  40.0447474
  21.2874610  62.5462746  64.2537057  21.4909658  63.4855215  64.2591886
  21.6474053  62.2415581  63.4015266  28.9655232  63.8375776  62.3313331
  29.3832177  64.2447718  61.5472325  28.3954669  63.1246511  61.9521350
  27.4068194  69.1511058  63.8619704  26.4542580  68.9971079  64.0764779
  27.3733822  69.9654974  63.3590782  24.7045289  59.7484529  48.9048864
  23.9255724  60.3269262  49.0847663  25.1607089  59.8483263  49.7758339
  31.2703912  66.4033114  50.7352988  31.0150435  67.0514666  50.0457814
  30.8220009  65.5907517  50.3497527  20.5579172  57.7287088  48.1080752
  19.8425535  57.2776801  48.5850511  21.2775431  57.7324320  48.8074512
  35.3176177  54.7310249  53.3872719  34.7541846  54.1256611  52.7967893
  34.6332021  55.0142094  54.0088120  33.4017218  57.4215683  51.2016906
  33.2792586  56.8141571  51.9437559  34.2887537  57.7384916  51.3582824
  33.6786911  60.3273833  58.9735569  32.7460803  60.2716524  59.2319563
  33.8745907  61.2688372  59.0662568  16.7265326  66.0786709  53.6591319
  17.5319090  65.8620285  53.1933299  16.4740629  65.2001052  54.0198319
  18.4830061  63.1161445  45.4173369  19.4306671  63.1338084  45.7939722
  18.4061374  62.1349960  45.4576714  29.8823338  60.1705916  57.1636805
  30.2148664  60.1575515  58.0944950  30.0668133  59.2135257  56.9463974
  24.6736932  62.5508434  70.2324213  24.7176401  61.9817226  69.4961422
  25.2431775  62.1840415  70.9046232  29.2487296  50.0382665  59.4374257
  28.4852497  49.6270703  59.0067930  29.8011058  50.2117044  58.6142551
  49.3885510   3.5193290  50.9555796  49.8805562   2.6416326  50.7326245
  48.9568213   3.2152044  51.7781385  37.0538290  72.6926764  66.5632891
  37.1789265  72.9491496  65.6514597  36.4305268  73.3390368  66.9033193
  33.4526062  59.6229942  54.7846725  32.8436890  58.8903108  55.1398319
  33.0269386  59.7573477  53.9147780  31.7432315  46.9401889  61.1854334
  32.3492345  47.6267214  60.8464639  31.0789626  47.5960464  61.5725790
  18.4404715  64.0897310  57.4013465  17.7279913  63.5936326  57.9213475
  18.1711698  65.0077810  57.5946474  27.6739158  54.9413269  54.2987354
  27.0212334  54.9244457  55.0253692  27.0898467  55.1426019  53.5308552
  37.3276425  48.3948107  53.2880534  36.5185109  48.2636037  52.7316026
  38.0222609  48.2301876  52.6345148  23.9923747  51.3799246  52.6512072
  23.3491590  51.9339761  52.1361065  24.6459840  51.1822083  52.0091626
  34.9120938  63.4361809  49.4032284  35.5927972  63.6030148  48.7145138
  34.1687773  63.1454622  48.8148342  29.3516731  62.5218569  51.8468326
  28.9213786  61.8861479  52.4645253  28.6851588  63.1852246  51.7368089
  31.7109178  57.5297620  55.8018428  30.9530671  57.0142391  56.1681484
  32.3072212  57.5507618  56.6158940  30.3324198  58.3905137  52.8659521
  30.7791683  59.0812868  52.3587996  31.0942463  57.8336569  53.1352993
  31.3876111  59.6548534  59.9488432  31.2353032  58.6855966  60.2301490
  30.4991230  59.9877404  60.1954102  15.9186653  58.3307939  44.0581206
  15.5092648  59.1831099  44.3810581  15.0713636  57.9091264  43.7068205
  40.1483949  48.0954271  51.1990985  39.6855542  47.7281593  50.4168432
  40.8078883  47.3546742  51.3423914  45.4702294  73.5952107  40.7177405
  44.6340504  73.9361125  41.1121889  45.6991990  72.9662666  41.4153515
  26.8921394  59.0718456  56.9829595  27.4572002  58.8285524  56.2485654
  27.1293950  58.3729990  57.6077164  26.4954175  67.4302363  45.9519475
  27.0046649  66.8598047  45.3309884  26.0947443  66.6895003  46.4523151
  18.0788714  63.2248568  42.1900376  18.1959466  63.7896494  42.9758830
  18.7322302  62.4942315  42.2634429  37.2487852  62.4083088  57.5387733
  37.9737177  62.6664913  56.9080759  36.6732644  61.9254179  56.9150127
  28.1325871  58.4344528  54.6705502  27.8292569  57.5358160  54.7836968
  28.8441982  58.2847763  53.9908144  21.5085127  65.6160202  45.5737492
  21.5027064  64.6022328  45.7432620  21.6738095  65.9103164  46.5142228
  16.2792262  56.9747717  47.2020897  15.6068712  56.2890741  46.9923778
  16.8035186  56.9255120  46.3904001  27.8787862  61.0261178  53.7399389
  27.9925293  60.1398033  54.0213434  27.4902675  61.4588397  54.5026177
  17.1367332  59.5436615  49.2952794  17.5138315  58.6498747  49.2652333
  16.6967626  59.6273994  48.4434230  20.7894558  62.3155316  57.5684234
  20.5588040  61.4277652  57.3286399  19.9594098  62.7672782  57.4396037
   3.3491192  34.9084562   9.7275620   4.0045554  35.4845408  10.1661035
   3.8628816  34.6004775   8.9139440  32.6785029  61.5224533  44.9979144
  32.1582158  62.3591451  44.9036027  33.6011398  61.9108730  44.8478443
  25.4818968  52.8963977  55.1260054  24.5703345  53.1685265  54.9109197
  25.8020394  52.5225807  54.3386069  37.6839369  69.4468971  56.6472899
  38.2804962  68.8272438  57.0190688  37.3184942  69.9001953  57.4084785
  19.6780881  64.5408422  61.8950531  20.3447470  64.3957324  61.1553175
  19.7997850  65.4840190  62.0351327  25.7139971  68.9237327  60.8311702
  25.2123559  69.3236715  61.5787130  26.5543862  69.3785476  60.8452936
  18.4809003  65.5944170  49.6623137  17.7087220  64.9383508  49.6663627
  17.9621493  66.4507726  49.6643494  14.0380066  51.4606491  51.3146110
  14.2426080  52.1073211  51.9875293  13.7029087  50.7350338  51.8746115
  13.3230221  50.1645035  48.0266639  13.8767111  49.3738520  47.7722804
  13.0962831  49.8974201  48.9569459  38.8218963  75.9644793  43.2681107
  37.9688996  75.7460955  42.8931189  38.7479093  76.9433963  43.2787573
  32.5947831  68.6585195  66.9567084  32.7180194  69.4488766  67.5200452
  32.0474691  69.0890430  66.2553920  40.2103224  53.5546095  50.6965728
  41.0409543  53.5282011  51.1597150  40.0538078  52.5842133  50.6178166
  34.0537753  68.2453123  64.8842678  34.0645681  69.1167798  64.4966232
  33.6655755  68.3944906  65.7958680  52.3983629   6.3982108  56.2001055
  51.6053909   6.4149027  56.8359753  52.2547061   7.2592191  55.7743325
  57.6075697   6.6023944  55.9571914  56.6217820   6.5896302  56.0284767
  57.7825145   5.8127220  56.5182031  17.6378860  48.6599664  47.3106806
  18.1326249  48.4542388  48.1057008  17.1532340  49.4735826  47.6288371
  63.3049376  26.9025939   2.1448601  63.9133295  26.9154430   1.4122830
  63.5564286  26.0925748   2.6389790  42.3697479  75.0527607  50.9466144
  43.0296893  74.8544864  51.6364824  42.7616231  75.8953459  50.6547271
  36.0005330  71.1892361  58.2166174  35.3608634  71.7778259  57.7394696
  36.1494521  71.7134144  59.0261610  19.5836087  53.1273145  60.2427315
  20.1551708  52.3120973  60.2389734  20.2519641  53.7991547  59.9864771
  32.8011664  67.3455339  56.5146579  32.1198573  66.9791687  55.9293672
  32.4205318  68.1739829  56.8023027  22.5666706  65.8827242  52.6069201
  23.1040743  66.6828670  52.7083435  22.2997881  65.7174468  53.5332968
  15.4204028  49.7397059  56.2239338  15.1806781  49.8607249  57.1669368
  14.5010848  49.7517266  55.8571361  41.9038350  68.1171219  65.3999843
  42.8600742  67.8701039  65.4690121  42.0369022  69.0323823  64.9664319
  48.3720589  12.3598598  49.0790331  48.6191298  13.2657842  48.8822102
  47.3972366  12.3855488  48.9054714  28.4425404  57.2189393  51.4806879
  28.2159002  58.1176135  51.1270934  29.1804899  57.4703131  52.0905523
  43.7522886  70.6835954  53.3592711  42.8463582  70.9683031  53.3662039
  44.2385862  71.3790712  53.8151081  28.4799784  62.9187014  59.5552401
  27.7335453  63.2072934  59.0251642  29.1201612  63.5975019  59.3880777
  51.4941903   3.5051038  46.8465582  50.8161076   4.0751794  47.3071390
  50.9039595   3.0085690  46.1809532  33.8376127  52.1261658  57.5703986
  34.2785553  52.0302846  56.7362008  33.8559077  53.0970158  57.7236536
  44.3592906  60.4820299  55.5473581  45.1893622  60.8531800  55.2082464
  43.7261689  61.1475374  55.2380133  31.7045549  65.8370130  54.1252106
  31.8559211  64.9011172  53.8686518  32.3842023  66.3121475  53.6397768
  31.2539020  66.3954276  46.7117056  31.3411693  65.9429884  45.8371455
  31.4429868  65.6808466  47.3474795  33.4297440  48.7026915  60.3334306
  33.7182269  48.4837741  59.3952496  33.3968976  49.6806679  60.2622626
  26.6179709  57.1700011  45.4299665  27.2744425  57.9229247  45.4686245
  27.0862450  56.6283261  46.1510012  23.2285348  65.5599002  38.9395736
  22.8850856  66.4192135  38.9509555  24.2091938  65.6742123  38.9468324
  28.5626910  76.6437858  50.0993473  28.4418167  77.0403932  50.9371497
  27.7345501  76.5725356  49.6576690  25.6742315  66.8142448  73.1446027
  24.9358105  66.5194069  73.7693423  25.6357709  66.1491662  72.4656718
  26.3034810  63.5573932  54.5386485  25.6080180  63.0381764  54.1239635
  26.4277881  63.0755867  55.4058194  21.0089653  71.7317492  46.7812486
  20.8416668  71.8330213  47.7593538  21.8070122  72.2627873  46.6742278
  11.7440679  59.5785531  42.7710211  11.2985864  59.8455636  43.5638796
  11.6763695  60.4125066  42.2251862  25.9247717  76.2550023  49.1682991
  25.7643286  77.0179346  48.5727670  25.9108580  75.5620298  48.4318723
  16.9319377  48.4980562  54.2527572  16.2177333  47.9077890  54.0021541
  16.6243576  48.7083777  55.1862831  37.4733885  61.6577107  60.2370375
  37.3817512  62.0048047  59.3041644  37.3937338  60.6884759  59.9409258
  14.1789659  27.5488575   8.5391355  14.6093766  28.3971797   8.8635033
  15.0765118  27.1713856   8.1583340  16.9852359  68.1324271  56.0676842
  17.2263776  67.7063463  56.9070384  16.8086103  67.3282979  55.5308954
  16.8558435  63.4694775  50.8131420  16.4309041  63.5283321  51.6416678
  16.1324283  63.2254435  50.1964185  24.5319175  61.2559503  63.4271502
  24.7103826  60.3115339  63.3632008  23.6608213  61.3318947  63.0131445
  32.6176290  74.3367490  46.1124325  33.1678163  73.6196370  46.4576604
  31.8019290  73.8591131  45.9237573  20.9622163  63.9955226  59.7227690
  20.7021780  63.3716226  58.9710244  21.3834780  64.6358899  59.1274425
  28.7505104  58.9178964  45.9179974  29.0873975  59.6350153  45.4726605
  28.4954069  59.2516696  46.7962006  43.0390829  66.8617857  49.8313854
  43.9009782  66.6831635  50.2114405  43.2260326  67.7135794  49.3186755
  31.3745087  62.0444825  55.7308948  30.7375891  61.4801515  56.1892690
  32.2401038  61.7318780  55.9933576  32.1661127  70.3636163  46.3360062
  32.4525598  70.3644610  45.4233042  32.9988618  70.5504597  46.7789983
  41.2996322  56.3011288  61.3450569  41.3884740  55.3227966  61.5385543
  40.6270781  56.5163691  62.0424757  35.5456941  64.8625492  56.2419541
  34.8218534  64.2965138  55.8476465  35.9612133  64.1856892  56.7482769
  16.0891177  53.8674554  36.1559384  15.4030501  54.2477926  35.5125445
  15.4920945  53.3035687  36.6700784  22.1449281  61.6008282  62.0063458
  22.4102665  62.2369693  61.2797238  21.4622597  61.1251464  61.4822428
  34.0645587  63.1852991  59.0790111  34.9378003  63.5538385  59.2131337
  33.6641464  63.7079057  58.3558737  31.7918610  53.2669836  54.4033722
  31.3108983  53.0614857  55.2420539  31.2578768  54.0297574  54.1026444
  33.5863894  76.1922516  47.9338484  32.9772264  75.9782890  48.7133168
  33.0545558  75.6347503  47.3141607  70.3126255  35.0431134  14.8793734
  70.4372292  34.2912955  15.4415947  70.2719584  34.5828324  13.9516063
  27.8239997  53.0295149  57.1510731  27.4004664  53.6268053  57.7643450
  27.2355840  53.1881865  56.3926129  33.2987664  57.6242044  58.0342128
  32.6566883  57.5825984  58.7669789  33.6203153  58.5172519  58.1994094
  39.2104965  67.4877527  45.1318834  39.6853798  68.2775978  44.7016145
  38.6096566  67.9416349  45.7557597  33.7983086  78.1554868  45.9894839
  33.9382256  77.6854851  46.8576925  32.9531803  77.7202937  45.6891539
  26.3769250  55.4020686  51.8410030  27.0154763  56.0443623  51.4519772
  26.4534168  54.6172156  51.2568001  37.1452376  66.6503835  47.0988931
  37.5633350  66.8787379  47.9664780  37.0372961  67.5300493  46.7449465
  32.0263088  64.1010657  61.5681752  32.2661829  64.7557811  62.2398760
  32.5606898  63.3688030  61.7413559  39.5424765  69.9450420  62.8230618
  39.6893782  69.9852104  63.7968963  39.5024108  70.9030044  62.6064230
  45.7938571   1.1578169  50.5674007  45.1313544   1.8695411  50.8637167
  45.2871772   0.3369542  50.7106724  53.0218757   9.2380299  62.4308658
  52.4587395   9.9660861  62.8047435  53.8615466   9.7007644  62.2301144
  27.3679465  76.7644657  53.0457506  28.1672953  77.2731491  52.9770433
  26.8396343  77.3926011  53.6656263  74.9190936  33.2116632  10.8724065
  75.3101204  32.5193384  11.3636831  74.8061731  33.9091291  11.5188698
  39.4948519  71.2036796  59.5502293  38.7696252  71.3671742  60.1986321
  39.2282437  71.8287635  58.8083541  33.4981373  69.8449132  59.8480810
  33.3393671  70.2004336  58.9287226  32.8662296  69.1075667  59.8472624
  20.1716276  69.6013909  42.9372986  19.8418809  70.0783518  43.7329921
  19.6230676  70.0646463  42.2386332  43.1535392  60.8934783  67.7113729
  42.7322153  60.2373901  68.3108520  43.6907629  60.3098549  67.1128784
  34.0013602  66.2342090  67.4603547  33.4071367  67.0343735  67.3369934
  34.8681835  66.7068237  67.4946552  30.8700734  70.2886762  65.3102935
  31.4738850  70.7656801  64.6791061  30.5632978  71.0296333  65.8705862
  46.7751019  77.1051962  45.7306934  46.9098401  76.7654814  46.6219263
  47.4604496  77.7614440  45.5849174  42.1065772  58.7267664  60.3537989
  41.5880852  59.1507358  61.0951401  42.0669467  57.8042016  60.7217265
  28.8653683  69.0398110  41.3299255  28.9869163  68.1929390  41.8127908
  29.0072416  69.6683459  42.0733994  22.0299373  63.3271927  51.9390149
  22.1631913  64.2907575  52.1158785  21.7857736  63.3922046  50.9559718
  30.0973392  60.9008112  44.9641440  30.0245662  60.6148300  44.0568447
  31.0555767  60.9895821  45.1064832  42.7917776  51.8104589  63.6700388
  42.3888003  52.5792032  64.1754687  42.1093103  51.1513956  63.9052456
  26.0517511  72.0672457  43.6289518  26.2074873  71.4506852  42.8930357
  26.1046294  71.5031499  44.4034471  32.1265357  60.4714877  52.4109223
  31.6645597  61.3042476  52.4636273  32.2593212  60.3670287  51.4240641
  30.2677528  66.0216064  69.0670714  30.7647689  65.4372352  69.6098257
  30.6867053  66.0164537  68.1771578  36.5828127  69.2553213  45.8678899
  37.2197232  69.8414055  46.2950294  36.4299923  69.6983056  45.0392443
  34.6046566  59.7576462  48.7020879  34.7309928  60.5213062  48.1087367
  35.4983179  59.5634571  49.0052870  38.2496401  59.8418396  51.9495711
  37.9136949  60.3468741  51.2346517  38.9579047  59.3449801  51.5359253
  31.6261353  67.7268705  60.1289402  30.9373788  68.0891576  59.5072177
  31.0279780  67.5175454  60.9020148  43.0984996  62.0276671  52.0728193
  42.3944486  62.7113728  52.1016060  43.6059333  62.1877454  52.9381586
  40.8878651  67.3812988  63.0961882  40.4218673  68.2354420  62.8564865
  41.1421994  67.6311508  63.9991620  34.7983345  76.1966028  65.1801206
  35.5458770  76.8487127  65.1875511  34.1938866  76.8210678  64.7596111
  19.1243510  68.7228912  52.4674062  18.5959207  69.0325034  53.2630574
  19.1846346  67.7770575  52.6478172   4.4191195  59.9386648  62.3059429
   3.6218400  59.4587311  62.6160790   4.0473903  60.3799549  61.5183699
  34.2069052  41.8814517  44.5993376  33.7438127  42.7299099  44.8356349
  35.0362654  42.2750212  44.2650001  16.9222347  59.7337872  69.0323684
  17.3230134  59.8289564  69.9260560  16.1350285  60.2791243  69.1240893
  27.3961991  61.7441341  56.3692249  28.3668411  61.6892097  56.5326239
  27.1020336  60.8866273  56.7549466  20.8872656  52.8063209  57.0300045
  20.0612068  52.4072015  56.6328254  20.5779206  53.7500165  57.1623845
  30.1156125  70.6140215  68.9949316  29.5438115  71.3612607  68.7748548
  29.4202849  69.9037696  68.9727694  17.3333150  53.9480917  54.2673098
  16.8628657  53.0464374  54.2842860  18.1310822  53.6550585  53.6943843
  27.8346657  57.7507587  59.2378112  27.8884725  58.6465691  59.5923900
  27.6233257  57.2324638  60.0561038  24.0976875  68.3859128  52.7175465
  24.6859358  68.6551336  53.4357615  23.6945745  69.1958836  52.4196927
  30.1392424  65.0077782  59.8579472  30.8368933  64.7235755  60.5158139
  30.7059661  65.5202230  59.2516342  39.2076994  56.0321852  45.9847123
  39.0292822  55.1909746  45.4515959  39.6516238  55.5891132  46.7599870
  54.4398538   6.8039998  52.1813931  54.6527350   7.1747354  53.0959893
  53.4810703   6.6381254  52.3363868  35.4715850  61.1975709  55.9108915
  34.6519160  60.8526380  56.1712671  35.8219316  60.3912105  55.3596453
  45.8336567  66.7862920  50.7014117  45.7231950  67.6711809  51.0624125
  46.5545106  66.4334170  51.3114782  44.5982281   3.1268117  45.4365963
  45.2769642   3.7251445  44.9452062  45.2060827   2.6935663  46.0664964
  38.9485094   3.3076080  63.2025666  39.0319319   3.3658171  64.1912675
  39.8856072   3.6234049  63.0101802  18.1240864  61.8827062  61.9499662
  18.4835261  61.6699969  62.7954526  18.5320102  62.7312095  61.7435988
  15.4013074  64.5205130  67.9625157  14.5242608  64.9395242  67.9673179
  15.5591597  64.3426171  67.0109100  31.9230858  -4.7835361  55.1655303
  32.1166458  -4.7195312  56.1122863  31.0795353  -4.2594956  55.1857062
  30.3293811  58.9998749  71.8420431  31.2568028  58.6567874  71.7651268
  30.3989022  59.6745674  71.1716797  63.8621126   8.8752986  57.0714380
  63.5736692   9.2318641  56.2127662  63.7663597   7.9149425  56.9172969
  41.2962908  77.0524803  45.4013453  41.1852408  76.7236777  44.4609649
  40.3099894  77.3474283  45.5201322  50.6003035   8.3092829  58.8688774
  50.6844281   9.2463897  59.0975266  51.4368598   7.9520769  59.1417275
  57.7917839   4.6813509  62.4569265  57.1010911   5.2888867  62.7502988
  57.5458926   4.4101933  61.5794936  65.2452102  12.7189556  59.1869430
  65.3189556  12.6928441  58.2336075  64.9152655  11.7582066  59.3591452
  31.2722005  71.2764680  40.1038815  30.5141053  70.6792463  40.0933350
  31.5379931  71.3600250  39.2367132  47.0634170  66.9316696  60.8474568
  47.3308693  67.8609497  60.8202121  46.2912386  66.9631902  61.4874876
  26.6580986  57.1980744  -3.3610850  26.6085039  58.1257235  -3.1492172
  27.2293121  57.2352414  -4.1884662  39.1509240  74.5634967  45.5609947
  39.3210808  74.9668327  44.6988114  38.6263249  75.2461911  45.9934399
  64.9102129   7.8924350  39.2147493  65.7821254   7.8973651  38.7392069
  65.2207034   7.4664405  40.0889088  44.3184726  72.4964534  46.7935545
  43.8762520  71.7594382  47.2779886  44.5098450  73.1041054  47.4896513
  51.6800041  70.3092544  52.8396594  51.3526368  71.1155005  53.3523555
  52.3870617  70.0264754  53.4381190  47.1733740  71.7179012  46.9483660
  48.0869995  72.0580418  46.6823448  46.6711058  72.3852656  46.3758268
  38.4096906  66.4367404  56.0588132  38.6178389  65.6336301  55.5116742
  38.2254983  66.0933840  56.9200588  18.8567939  41.4562916   1.5775449
  18.6309418  42.3461509   1.2837850  18.8675533  41.5445349   2.5686071
  33.7041165  75.3957995  40.5131126  32.8454200  75.3368860  40.9004433
  33.9167268  74.3991592  40.4701609  52.4936095   4.2333481  54.4696321
  52.2730414   5.0171452  53.8633464  52.6181925   4.7364965  55.3203210
  30.3296606  37.0701453  10.2707939  30.3921704  37.5949170   9.4777538
  29.3438944  37.0898681  10.4077257  44.1771385  55.6518188  53.1781452
  44.6942105  56.1483175  53.8431372  44.4174307  54.7367036  53.4905823
  43.3302714  81.7826937  53.4438684  44.1528265  82.1902711  53.1573241
  43.0529180  82.3548211  54.1739439  41.2265287  78.0812592  57.6618799
  41.2963823  77.4536971  56.8867420  41.1834993  78.9083331  57.1753100
  17.8752860  43.5737699  -0.0395451  17.2543438  44.0073547  -0.6498527
  18.5350479  43.2171403  -0.7408885  47.5209173  78.8887207  56.8949696
  46.9335768  78.6578087  56.1651827  46.9786477  78.5906715  57.6468309
  30.3240960  72.7868164  66.1903173  29.8631736  72.9577392  65.3442642
  29.5685646  72.9074910  66.8325545  52.3794863  79.5420753  51.9179711
  51.4366739  79.7311797  52.2135052  52.6781637  80.4573136  51.8994226
  28.3234992  72.5280188  68.4560261  28.1599172  73.0758839  69.2542454
  27.4788666  72.3141774  68.0914527  47.9483214  75.4659136  47.8382700
  47.8235160  75.2351425  48.8103816  47.4198530  74.8286741  47.3948274
  43.3061519  73.4945905  44.4488287  43.8061610  73.0850783  45.2380136
  42.7106107  74.0242864  44.9891266  43.9111301  74.8289691  58.3764875
  43.1295046  75.3033443  58.7204715  44.1450109  74.3336241  59.1455103
  62.2885153  10.5896068  51.9753283  61.3744640  10.3971035  51.7275508
  62.2790398  11.5523069  52.0713026  39.5149725  72.5250212  67.2177670
  39.6663033  73.4858963  67.4314007  38.5588145  72.5925966  67.0484922
  60.0775978  10.3720517  60.8944525  60.1134586   9.3439563  60.9415995
  60.8754019  10.5450107  61.4357734  66.3988813   8.7528333  49.8317114
  65.7151816   9.2983726  50.2829309  67.1689338   8.9144882  50.4195083
  31.5135440  69.2494955  52.7794815  31.8005947  69.5093449  51.8917476
  30.6298996  68.8457145  52.5309293  64.0409398  10.3387665  59.4718738
  63.8251668   9.7428710  60.2008077  63.9371126   9.7310604  58.7224396
   1.0063730  21.8049616  49.3347853   0.3858428  22.4776000  49.6799006
   0.5850341  21.6466293  48.4689065  24.0636905  29.4487510  16.9746148
  24.5433470  30.1280210  16.4463241  24.2830161  28.6341756  16.4351862
  42.2955393  69.8493220  57.3400358  41.4445219  69.4546674  57.5826749
  42.1035341  70.3401679  56.5438676  41.5481334  80.7609881  56.5238728
  42.2852680  81.3754934  56.3304289  41.5790800  80.2330763  55.6822964
  35.3565201  69.6256554  54.5712679  35.6117725  69.8862828  55.4754700
  35.6094468  68.6577963  54.5682441  40.5803860  72.4596093  46.4669117
  40.2781234  73.2017880  45.8429772  40.5838270  73.0402692  47.2812040
  36.8123795  66.1041586  52.2587590  35.8404889  66.1189439  52.1891838
  36.9266000  66.3955018  53.1623305  34.0535660  66.9606847  61.3192912
  34.0814045  67.6982755  60.6573833  33.0664270  66.8702038  61.3702229
  39.0041208  80.7837200  41.5631595  38.5360165  81.3423215  42.2443534
  39.9264812  80.9795421  41.8391336  59.7022937   6.4493224  46.5237436
  59.9733999   5.4788733  46.4661087  59.2684522   6.3621724  47.4273971
  42.4515889  70.8086701  47.8120785  41.7456720  70.1990326  48.0914052
  42.0521924  71.2818880  47.0911445  39.0856051  75.1724819  59.2928335
  39.1546699  74.2839638  58.8615292  40.0185999  75.4556886  59.1551930
  28.3220667  70.8631296  52.5119416  28.5070882  71.4458271  51.7472243
  28.5488077  71.5115627  53.2434914  40.6805873  77.2080796  52.7289667
  40.2850302  77.6508141  51.9430049  40.5134805  76.2618615  52.4805982
  60.9009966   5.4684961  37.9488492  60.1609908   4.7772992  38.1334819
  61.1916038   5.4870215  38.9277415  38.2873907  66.5476333  58.8531166
  38.8614189  66.1294062  59.5758149  37.3851799  66.3694095  59.2018488
  64.5581086   6.7465815  34.0620455  63.8699078   7.2442242  33.5834954
  65.0368718   6.3082860  33.3381552  40.5016947  74.4287921  52.6079957
  41.0846501  74.5088171  51.7721226  39.6741415  74.3160945  52.1638269
  48.4644793  79.3415721  45.5750606  48.5009485  80.2023952  45.1494043
  48.9419474  79.5382645  46.4201210  39.5536826  73.6593002  42.2469204
  40.0454323  74.0171089  41.4627405  39.4382372  74.4529613  42.7644175
  39.5340777  78.8999954  50.6620946  39.7832445  79.4510623  51.4288609
  39.5711084  79.5172177  49.9179633  37.7796670  56.2067138  50.6089469
  37.7438798  55.3013642  50.3134899  38.6883036  56.1908593  51.0243847
  28.9140952  72.2775408  37.9428754  28.2057267  72.4610400  37.2767062
  28.4193446  72.5971759  38.7485360  50.6207167   5.8388252  50.3856837
  50.1047696   4.9589172  50.5028273  50.4214769   6.0590006  49.4714850
  35.3795824  78.7588578  34.6334740  36.1647240  78.9842921  35.1760836
  35.6740722  79.0660291  33.7637709  62.2663533  17.0118638  62.6918397
  63.0591931  16.5570335  62.3155821  62.4102735  16.9456980  63.6157403
  66.9370243  12.6797740  50.0424567  66.6551214  12.3863366  50.8622488
  67.7254497  13.2447342  50.2896917  37.9154634  78.2936951  61.5508370
  37.1985663  78.8423410  61.9350495  37.9697089  78.7224552  60.6584145
  39.0916043  63.9331691  54.8342203  39.8100439  63.4013725  55.1995900
  38.4553007  63.2174430  54.5584155  48.2280767  81.5572167  44.1249142
  47.6661105  81.9225436  43.3861628  49.1215910  81.8339006  43.8016288
  27.4496369  68.9324156  38.9446979  28.0292825  69.0111446  39.7137448
  27.9081559  68.2282796  38.4686436  39.0882747  78.5916143  43.0039400
  38.4525678  79.1766596  43.4609115  39.3688010  79.2044429  42.2874740
  62.4075366   5.9464993  56.1662612  62.0750547   5.2993151  56.8148473
  63.3679986   5.8634714  56.1857319  18.3820076  44.9132167  -2.9484806
  18.7657021  45.4947398  -3.6266910  17.4767897  45.3587790  -2.8336180
  37.3692630  77.5652891  58.2191814  37.8959558  77.3455589  57.4898694
  37.5664505  76.8507021  58.8946625  68.4140633   8.6413445  46.2229509
  68.3585425   9.0418228  45.3482555  68.3282118   9.3505735  46.8595547
  59.7846288   7.7230082  61.6449130  60.3196845   7.0913468  62.1987418
  59.1019867   7.0550302  61.3384735  66.6623103   9.8015583  56.9141013
  65.7467343   9.6086981  56.6569665  66.7757795  10.7429659  56.8681441
  71.2763781  16.5321431  41.9969924  70.6367335  16.9293937  42.5797507
  71.9806228  16.2581317  42.5964017  40.5707236  77.4504130  61.8542195
  40.8584586  78.2767846  61.3278717  39.5945659  77.6271035  61.8430350
  54.4109359  10.5306555  66.9510796  54.3556400  11.3186355  66.3586200
  55.1108671  10.0004900  66.6071822  30.4532278  75.0733872  39.1256269
  30.6820234  75.1756054  40.1474833  29.5827783  74.6511918  39.2503594
  45.8361595  76.9260170  60.8447213  46.4436919  76.2002659  61.0277760
  44.9918104  76.4075507  61.0376838  33.2520743  73.9598258  63.6139583
  33.2416946  74.5408540  64.3720876  33.0511858  74.6223717  62.8902948
  34.2897485  72.4754976  47.5133668  35.2241735  72.7760708  47.1804944
  34.5192240  71.6109432  47.8565000  52.7174658  71.2055905  56.7832108
  53.2033223  70.3541339  56.7914541  51.9344836  70.8623183  56.2566267
  73.6582220  13.3481127  52.1472338  74.1235075  13.4657632  53.0128615
  74.0921400  14.0515127  51.6370248  61.0816520   5.9958041  53.6229241
  60.1720679   6.3279985  53.8665771  61.5462743   6.3722551  54.4205937
  54.3721613  79.6187008  41.4569496  54.0248604  79.5361447  42.3322717
  54.0372594  80.4385529  41.1474739  68.9326374  14.9792785  38.2199595
  68.9473922  14.1660750  37.7008628  68.3869273  14.7718846  38.9921242
  27.8033723  66.3182923  59.4461485  28.5136222  65.7593101  59.8419125
  28.3891907  67.0788747  59.1986292  46.3227434  72.1400835  56.8210539
  46.9670023  72.2877142  57.5486843  45.7012984  71.5298658  57.2436708
  43.5651838  72.5902760  61.5526133  42.9632334  72.3133406  60.8820575
  44.1860852  71.8128384  61.6004366  59.1302866   8.6287635  55.2600348
  58.4455265   7.9515232  55.3706686  59.6606409   8.4918270  56.0627042
  30.1886231  73.0376784  63.0382518  30.9359462  72.7511175  62.5256644
  30.2547167  74.0238023  62.8793117  13.7158478  44.1431315   5.0854858
  14.2684081  43.6400771   4.4315173  12.9243253  44.3450094   4.5236933
  54.2179388   5.8260201  59.3448517  54.7632423   6.3973204  59.9826931
  53.3763907   6.2842244  59.4993413  36.4226035  75.6233859  48.2753887
  35.5570714  75.6839190  47.8664610  36.1992031  76.2874134  48.9958448
  24.1080672  70.1179948  62.6882224  24.3858242  69.3509349  63.2975848
  23.2015853  69.8358538  62.5026818  26.2213358  74.3405815  47.3735558
  27.0731901  73.8660059  47.2203883  26.0016407  74.6455510  46.4673156
  30.5759377  68.2202696  48.8516730  30.8124617  67.5709816  48.0900667
  29.6993675  68.5056064  48.4623752  39.5753959  76.4058776  48.5486492
  39.6910229  77.0960921  49.2692970  39.5988453  76.9870539  47.7548189
  31.4061789  64.1514999  48.7761792  32.1317025  63.6289315  48.3766696
  30.6420844  63.5681192  48.6825178  30.0072318  67.7410213  44.5620418
  30.5599719  67.0262420  44.1748758  30.2711439  67.6611542  45.5023508
  47.5297971  70.8841909  50.0431471  47.5139992  70.1092562  49.4318694
  48.2691520  71.3872039  49.6094322  24.9346016  66.0780171  60.5037070
  25.3098551  66.9309011  60.8103527  25.8095076  65.7358129  60.1229305
  36.6470026  69.8198217  51.2486144  37.2774669  70.3503820  50.7111047
  37.2486961  69.6057309  52.0121669  44.2148895  71.7331871  66.8086300
  43.6972977  70.9247705  66.8332724  44.6169612  71.7889040  67.7582955
  34.9654436  71.7010725  52.7052463  35.5023348  71.1380497  52.1126692
  35.0236200  71.1052822  53.5053358  40.5494771  68.8999176  48.6687555
  40.3147263  68.0064831  48.4156041  40.3534640  68.8364808  49.6296679
  22.6840630  44.2828683  -4.0920167  22.5801434  44.1673221  -5.0448002
  22.2339449  45.1936446  -4.0295220  24.3391128  69.2775251  66.4564783
  23.4155425  69.0552806  66.1082983  24.6734166  68.3067353  66.3998250
  69.3271126  10.9820133  53.5191694  70.2824000  11.3615827  53.5985347
  68.8236925  11.8039322  53.7406209  52.2758360   7.1678514  60.9492470
  52.5173679   7.7568123  61.6759747  51.3332507   7.0716977  61.0701031
  29.4554198  67.5302532  53.3575792  30.1380941  66.9115160  53.3343152
  28.6948136  66.9697755  53.7013495  24.5511019  39.4130316   3.4115583
  24.9850664  39.7077157   4.2734375  25.4133682  39.3645543   2.8652956
  29.6541018  41.1834102   1.3992042  29.8067297  40.2872113   1.6963956
  29.3977641  40.9918129   0.4814023  32.8883832  77.9846845  64.7292329
  32.0407976  77.5075583  64.7465449  32.7009507  78.6201037  64.0244741
  45.5414682  82.0957213  48.6058232  46.0803207  82.5244532  47.9160383
  45.2224172  82.8106850  49.1403259  50.4134447  70.0320178  55.6413543
  49.7536313  69.3461687  55.9547149  49.8422585  70.6234990  55.1544960
  46.4565952  76.4969016  52.4927426  46.0904780  75.7842499  51.9806160
  46.9367245  76.0416357  53.2343204  61.9515562   5.6612201  49.0895883
  61.9468913   5.1131130  49.9347956  60.9967940   5.7216570  48.9200978
  47.9240999  75.3682547  61.3736676  48.2805129  75.1823162  62.3275360
  48.7952379  75.2813325  60.9220442  28.0963099  77.1543160  34.6544844
  28.3489894  76.2324985  34.4436945  27.7320008  76.9722690  35.5629156
  42.4423820  55.7206238  48.0342772  41.5324849  55.3947879  48.0537351
  42.4364542  56.3346249  48.7668736  37.7239931  73.9370054  55.4823944
  37.0925808  74.3132461  54.8496028  37.9510630  73.0825700  55.0445706
  38.1097272  71.6107477  54.5346892  37.8347227  70.8337786  55.0749420
  39.0135299  71.3420265  54.2521848  48.8008177  64.5091563  62.4472088
  48.3592492  63.6592591  62.4293186  49.6889708  64.2616444  62.8121933
  42.6675661  79.3655971  37.6808666  42.9770972  79.1628810  38.5790616
  43.2775108  78.9389517  37.1005680  45.9303456  78.9026121  59.0594270
  45.5060734  78.2351645  59.6005006  45.2779156  79.6205520  58.9703593
  36.1373068  57.1694050  52.5109086  35.7491421  56.3406425  52.9109514
  36.6530498  56.8437064  51.7647271  53.6888061  79.0176944  54.4121919
  53.3649916  79.3071188  53.5681762  52.8721413  78.7362189  54.8612013
  27.2460766  39.3513197   2.4812609  27.1223188  39.7307503   1.5645597
  28.0464296  38.7875837   2.2712136   2.5197771  45.9946183  16.2725033
   3.1464033  45.6813591  15.5873438   1.7785556  45.3434262  16.0938259
  39.7041948  74.6180072  37.7378316  40.3696558  75.4133010  37.6531942
  40.0504606  74.3133355  38.6075246  43.6123039   2.6679369  51.3228545
  42.7472595   2.9505045  51.6542670  44.1320242   3.4820274  51.5265211
  34.8947211  72.9982958  56.5173237  34.2139738  73.0482431  55.7414583
  35.3017779  73.8760018  56.3383429  47.1906374  69.2232909  48.0620700
  46.3518101  68.7670766  47.7313783  47.1815921  69.9673197  47.5042919
  28.2647335  68.8478066  69.1538703  28.2488043  68.0580905  68.5438842
  28.4792046  68.3975992  69.9939426  49.8347465  77.4367769  44.3723913
  49.2471408  78.0527296  44.8726161  49.8033831  77.9035888  43.4884999
  37.1378719  72.6545787  44.7803838  37.9453153  73.1550599  44.7139620
  36.5731191  73.2250496  45.3451190  37.7759579  56.2118888  54.9702805
  37.8404800  56.7059693  54.1385367  36.7906734  56.3238781  55.1772908
  43.7051176  80.5490734  59.4464729  43.7004456  81.3578620  58.8997438
  44.0277675  80.9257102  60.2419708  47.8152195  81.0815189  54.3076753
  46.9990330  80.5737702  54.5215582  47.5876462  81.8767305  54.8503718
  44.4093568  68.7012314  48.0538104  43.7056174  68.9736550  47.4578175
  44.1314903  69.2564751  48.8639260  52.0192264  66.2779054  51.6311754
  51.3217170  66.4276478  52.2617411  52.8111853  66.4800194  52.2566488
  47.2851687  78.5874079  50.8549160  47.1281610  77.8917554  51.5204072
  48.1538171  78.3603493  50.5693010  41.2679371  80.5590603  52.0722389
  41.8923575  81.1284970  52.5124011  41.7057635  80.4236714  51.2178378
  10.5211440   6.6670866  43.1830436  10.0238115   5.7965554  43.3658934
   9.6788697   7.1762493  43.0076829  63.1891372  14.9192188  41.0571304
  62.8820364  14.0812932  40.7225237  62.5178647  15.5352263  40.6368560
  35.4294485  70.2777126  40.6915188  34.9740804  69.4717719  40.2644283
  36.2904650  70.1367756  40.1520540  53.3318013   5.0638632  69.7182454
  53.2335594   5.5260280  68.8798565  53.9658970   5.6814899  70.1973018
  27.1396687  59.6085956  51.0357341  26.1882618  59.5585569  51.1911216
  27.4700332  60.0498553  51.8033379  39.4756935  71.1596714  43.1288038
  38.7423918  71.4672850  43.6037042  39.6815338  71.9100854  42.5413441
  32.5222613  65.7049134  71.8137146  33.4927268  65.6921173  71.6015512
  32.3095241  66.6157381  71.5505248  22.5971817  51.1407956  -2.1398632
  22.4340180  51.3093899  -1.1923989  21.8490315  50.5449776  -2.3029006
  44.1460912  77.4656772  53.3035634  45.1169169  77.2470204  53.1684281
  43.8685515  77.4099736  52.3929017  23.5875380  42.0910246  -3.0121607
  23.1298668  41.4240089  -3.6149427  23.1405435  42.9201041  -3.2653251
  75.0272317  13.9508872  54.3677777  75.7775836  14.5748213  54.1412903
  75.5070574  13.4008932  55.0343050  48.4291394  75.2910849  43.3297047
  48.9991055  74.5281246  43.1921604  49.0760947  75.9727846  43.6388004
   2.9876898  12.3566030  56.5815894   2.5221358  11.5150758  56.3860030
   2.2855852  13.0129138  56.4258945  51.2298747  83.5938235  53.8901042
  50.2958348  83.6424566  53.6429801  51.4164557  84.5465016  53.9921678
  71.7015053  11.4990030  45.0238946  72.5397408  11.6873191  45.5381489
  71.0391976  11.5870173  45.7577332  75.8204201  14.9007011  57.7553094
  75.3787856  14.9635565  58.6051884  75.6312632  15.7985538  57.3901749
  60.7304566  77.0801268  49.1419585  59.8633021  76.7467375  49.1411283
  61.2333661  76.2140915  49.2253759  25.9104002  46.5214304  -6.3239486
  26.5363118  47.0758534  -5.8205177  25.8747441  45.7770773  -5.6186279
  53.0422742  78.3337630  49.6036092  52.5288310  77.5229825  49.7288305
  52.7559265  78.8897474  50.3593660  48.5208409  84.1456835  53.1599597
  49.1149353  84.6640341  52.5848046  47.6264018  84.3688469  52.8514836
  77.2279044  15.2570751  53.7178996  76.9529434  16.2196965  53.7691083
  78.1872176  15.3770398  53.3999646  25.2924426  42.9493439   0.9016582
  25.4598938  42.8758859  -0.0484049  25.7475427  43.7820602   1.1105466
   0.7549708  11.8402713  50.1166391   1.0017842  12.5398048  49.5006196
   1.4561953  11.1840224  49.9882106   9.3191893  21.8877732  34.4120457
  10.2372504  21.5542169  34.3119976   8.9214536  21.0205753  34.6842101
  67.8851975  74.9062123  44.2310785  67.7301176  73.9657201  44.0981778
  67.2917381  75.2983547  43.6124431  15.4243515   3.6597237  53.7670601
  16.3884133   3.3788648  53.9369859  15.1185480   2.8137023  53.4035836
  19.9508215  12.4229709  30.5281681  20.8905105  12.2589022  30.8662649
  19.8894350  11.7063465  29.8986933   2.9407596   9.8119562  50.2738285
   2.5997905   8.9219192  50.5600730   3.1268072  10.1361669  51.2039904
   4.3908424  12.0954384  41.2713722   3.7841974  12.1738926  40.5114589
   4.4519859  11.0978373  41.3088361  60.0802921  77.7246189  26.1476516
  59.4041452  77.9427734  26.8284130  60.5882092  77.0757733  26.7119222
   9.2065971  16.8242706  45.5342487   9.9147500  16.4530354  46.1753489
   9.4732853  16.2646788  44.7731661   9.4517033  16.6135436  38.9260766
   9.1711691  16.3728166  37.9978369   9.8820661  15.7710523  39.2155878
   5.9583726  21.5803313  34.8709459   6.4234597  22.4622784  34.9050508
   5.8666667  21.5138662  33.8760769   9.0234541  18.5289004  50.3904793
   9.8404368  18.6744612  50.9414738   8.3712609  18.8760791  51.0280317
   3.3647368  13.7399404  42.9499323   3.9060560  13.3670652  42.2744907
   3.9125400  14.4604789  43.3930077  18.3744714  17.8714439  35.8625605
  18.9544832  17.2143361  36.3175681  17.5437581  17.7386946  36.3892287
  16.1770488   5.1803535  44.2763016  16.4390984   4.3598140  43.7588464
  15.2557092   4.9783844  44.4354599  10.8338994  21.7776289  38.4304003
  10.5719688  20.8845432  38.7602643  11.3191978  22.0690633  39.2374526
   6.7472955  16.6875081  46.4581902   7.7002336  16.9123352  46.3997655
   6.4655457  17.3171053  47.1648519   5.6000627  12.6961026  45.2299091
   5.9707683  12.7298066  46.1485233   4.9429856  11.9545636  45.3208144
  19.0320717   9.0158645  45.6602839  18.8578733   8.1504171  45.2794533
  19.2835589   8.8541716  46.5620676  22.5543622  14.5800580  30.5536578
  22.0345652  14.3891903  31.3696938  23.4159493  14.8510703  30.9660041
   9.2162612  27.4579207  50.4535617   8.4985918  27.9579723  50.0581351
   9.1154029  26.5761713  50.0321430  11.0066466  17.8173633  43.0140003
  10.5204340  17.0415471  42.6285133  10.2385357  18.2962213  43.3899061
   2.1881872  18.5343263  52.2026797   1.2641796  18.6575240  51.8509207
   2.0729906  17.5977296  52.5276309  23.9344533  11.4957661  26.3056522
  23.2250640  10.8461931  26.2900056  23.4942143  12.2000029  26.8420829
  15.5595594  13.4811704  47.9188509  15.5541715  13.7323414  48.8572580
  15.1946013  14.3150343  47.5238368  76.4783286  16.0275936  39.7600207
  75.9349613  15.2156076  39.8270843  76.3656455  16.2972653  38.8409985
   5.5353647  15.3058490  26.8700806   6.4856393  15.5867738  26.9539898
   5.4476297  15.2075565  25.9131169  64.4512069  75.8864345  24.0641541
  63.6747868  75.9121537  23.4803052  64.1046368  76.3623165  24.8328816
   1.4544700  12.0759999  31.3513596   0.8926698  12.1520296  30.5289858
   1.0645128  11.2262079  31.6800747   7.4632615  15.5520464  40.9779439
   8.0521432  15.2994325  40.2824751   7.2906405  14.6585086  41.4006630
   7.4221280  13.2074486  32.1538063   6.8444373  13.7669833  31.5861885
   7.2013032  12.2953054  31.7945299  11.7195241   5.8505848  23.3681545
  12.5820220   5.7766864  23.8585981  11.1209844   5.2480203  23.8359078
   5.5705317  15.3652767  24.2026793   6.1213136  14.9815494  23.5064425
   4.6946074  14.9799584  23.8917989  13.8355831  25.8097722  43.4420088
  13.5434949  26.7350265  43.6101888  13.7516424  25.7704018  42.4840230
   9.9499664  19.4186648  39.6692433   9.2445462  19.3381570  40.3709213
   9.9978828  18.4872655  39.3641069  12.2031807  19.7360650  40.8490196
  11.3838306  19.5353282  40.3603947  12.1324215  19.0734763  41.5850671
   6.7044020   9.7593617  43.4476062   6.3353622  10.3877552  44.0589744
   5.9329667   9.6078966  42.8407271  31.1765380  12.2201679  47.4174366
  30.5544940  12.6524668  46.7722620  31.9295483  12.0382306  46.7915035
  16.7542407  10.5778651  36.0393852  16.7419892  10.0321374  35.2695608
  16.3921560   9.9581927  36.7222354  16.6601260  17.4776678  37.9031684
  15.7063995  17.6511887  37.9529526  16.7254427  16.5577184  38.1420392
  19.3200281  11.3559787  35.3174514  18.4566723  11.2126772  35.7217220
  19.4062903  12.3523160  35.3972297   6.2354400  16.9668007  50.5297454
   6.9498216  17.4442234  50.0751148   5.6856109  17.6847885  50.9033624
   9.6298146  20.2451777  43.4180976   8.6816437  20.2884767  43.1765485
   9.9206247  21.0577527  42.9242108   1.4615737  21.4148806  37.6717848
   1.5054499  20.4326385  37.5235215   1.4047236  21.4689150  38.6593264
  75.1783819  26.1453498  32.9279553  74.3921521  25.5878884  33.1217684
  74.8878085  26.9619326  33.3988129  77.8844449  23.3356866  50.3884459
  77.8662286  24.3105020  50.2127067  77.1469010  23.1863144  50.9418467
   3.3807732  17.3938192  28.4581403   2.9290697  17.4361614  27.5646259
   3.4038475  16.4238714  28.5634647  19.5786140   8.8785592  50.4618035
  19.6734248   9.1101938  51.4074640  19.5816218   7.9009468  50.5395093
  12.6679818  18.1620681  47.1627657  12.5190727  18.4783055  46.2249241
  11.7584816  18.0734828  47.4476895   7.0548138  22.3344976  40.0813225
   7.5500910  21.9317608  39.3160803   6.2154353  22.6085280  39.6204457
   6.9129270  25.8247493  41.7541791   7.1996274  26.2447834  42.5660008
   7.7188431  25.2945240  41.5431238  11.8021767  10.4026997  49.0608334
  11.9192094   9.4260312  48.9536218  12.6522293  10.5380681  49.5157333
  10.0721467  10.9183979  43.0880699  10.0682339  10.2757589  43.8188507
   9.4140448  11.5679941  43.2949251   4.9500929  18.1290197  48.0214971
   4.7767639  19.0283173  47.5588559   3.9944491  17.9359183  48.2723389
  13.4133479  16.6793338  34.5844288  14.0173297  17.3533234  34.9637223
  12.5891273  16.8504677  35.0669938  16.9712556  18.0023344  29.2813766
  16.9447946  17.6264027  30.2493410  17.0015452  17.1109635  28.8676859
   1.2438760  15.5299830  39.2080923   2.1887078  15.5553333  39.0596318
   0.9707827  14.7642990  38.5714936  16.2346618  24.4629786  44.2035836
  16.8268555  25.1946733  43.9564876  15.3812054  24.9588444  44.2144348
   3.7979076  12.6690702  34.4189360   3.6270984  11.7198160  34.6589288
   4.0737571  12.5984770  33.5150988  10.1016466  13.0948187  36.8598008
   9.7693704  13.7804924  37.4354823   9.4407147  13.2060126  36.1004351
  15.1524100  19.4549511  42.2162233  15.9091651  19.3657366  42.8623587
  14.4887727  19.9017588  42.7916983   7.7966630  18.2622332  41.0885975
   7.0902903  18.3896550  40.4393150   7.9240408  17.2932868  40.9758890
  13.8748190  22.8363574  40.8178863  14.0110907  22.9626617  41.7884256
  13.6933535  23.7495566  40.5737378  19.0854425  15.2365209  48.5460832
  18.8050494  15.8445255  47.8670203  18.2719406  15.2341773  49.1554785
  11.8362874  11.4598097  35.8298159  11.3093864  12.0310888  36.4806454
  11.5356113  10.5790056  36.1897659  17.1429664  10.9405584  56.6084789
  16.5499571  10.8850432  55.8221068  17.3904137  10.0312884  56.7076008
   2.5211967  32.9809112  33.7103958   2.6084319  33.7057178  33.1042330
   1.6097953  33.0261393  34.0161488  15.5689480  10.8649029  31.3485101
  15.4968392  11.5535200  32.0626578  14.6799902  10.4517053  31.4010294
   9.1627104  15.7680786  36.2584981   8.8840702  15.4507617  35.3486795
   9.8816339  16.3149519  36.0010465  19.1375750  14.0029186  42.7700957
  19.2806858  13.9914666  43.7039826  20.0228010  14.0349408  42.3734277
   3.2425828  34.5988946  47.5700458   3.4271394  33.6627038  47.5475314
   3.5905448  34.8732369  46.7238916  14.3830493  20.2364642  48.1352258
  14.1336752  20.4881656  49.0843977  13.8939170  19.3674033  48.0962710
  16.1062867  10.1802731  53.9216874  16.6200075   9.3794618  53.6930769
  15.2742611   9.7780939  54.2645786  14.1307046  14.4011668  59.0060635
  13.6142673  13.8246458  59.5495895  14.8695973  13.8171608  58.7189847
  21.8723935   8.5295343  60.1063622  22.6095167   9.1619018  60.2580881
  22.4359781   7.7851221  59.7775952   7.3884776  19.7143798  46.4747819
   7.0153362  19.3396543  47.2456254   7.3561105  20.6880518  46.6050865
  42.1702756  46.7728532  -1.5930036  42.3042840  47.6570338  -2.0685041
  42.8523143  46.2626416  -2.0579763  17.2482829  19.3441922  44.0861158
  17.0361507  19.1661706  45.0282281  17.4579161  20.2759923  44.1219270
   2.1662793  21.6496188  40.2986455   2.2612442  20.9659826  40.9584078
   2.3832744  22.4282041  40.7665879   4.8772429   9.4060376  41.6048023
   4.2778639   9.2648342  42.3623520   4.7282818   8.5898866  41.0784368
  77.4775506  18.6989604  26.6218554  77.9190640  19.0625615  27.4157170
  77.4714984  19.4482911  25.9979066   0.9789841  12.3480539  23.6563879
   0.1138127  12.1744686  23.9570542   1.1687214  13.2305600  23.7777608
  12.8025418  14.5368540  48.9833792  12.4217759  14.0430169  48.2224625
  13.4435464  15.0678008  48.4797214  10.4514523  19.3230694  32.2774687
   9.7945667  20.0403476  32.1663360  11.0854911  19.7181794  32.8851220
  23.2950900   5.6844229  43.8245007  24.0640408   6.0735929  43.2994272
  23.5281280   4.7745177  43.7551748  19.2234462  10.8113541  48.3764610
  18.2842288  10.7033143  47.9687511  19.2144808  10.0799237  48.9971448
  13.9165835  21.1043456  43.8395415  13.3491213  21.8904359  44.0282987
  13.4563880  20.4335535  44.4187085  15.8904260  12.7773365  33.0989346
  15.6040742  12.3315749  33.9097206  15.3696237  13.6160442  33.1300465
  15.0241068  16.8562264  44.4897613  14.6037343  16.2838287  45.1569108
  15.4217541  16.1342975  43.9024481   9.2934104   6.8724283  26.9455046
   8.5194565   7.3692218  26.5403312  10.0152484   7.4962121  26.6602838
  51.7983831  75.9183401  49.9409467  51.4311987  75.2443563  50.5573197
  51.8567114  75.4088203  49.1107358  21.6602159   7.4968339  25.5533436
  21.3654292   6.7004162  25.0859587  21.8864865   8.1263030  24.8416537
  16.7989125  15.3413852  34.8558351  16.2101713  15.3366771  34.1313593
  16.4114326  14.8112398  35.5185700   6.3544403  24.3829155  25.9468101
   6.3433902  24.0143740  26.8511536   5.5225145  23.9057691  25.5871532
   8.1358768  20.9271336  31.7424767   8.0007609  21.2702018  30.8239463
   7.8119630  21.6988898  32.2203355   8.9661913  31.4172581  55.7965599
   8.8097821  32.4285821  55.9395194   8.5242201  31.1106391  56.6287822
   8.8241554  13.8592333  39.2659881   9.4460730  13.3309798  39.7869380
   8.2021974  13.1692039  38.9387615  16.7561060  11.0632665  47.6516918
  15.9278466  10.6503744  47.7893743  16.6533782  11.9779148  47.9268568
  77.4277961  24.1661704  30.1575253  78.0109670  23.9118194  29.4024188
  77.9366286  23.6203154  30.8648816   7.8033458  27.2909999  43.8884363
   7.8960732  27.5497413  44.8295264   7.8526951  28.2334038  43.4882530
  11.7044017  30.3599513  55.2961661  11.6311497  29.3813120  55.1916265
  10.7518631  30.5763785  55.4883715  25.9708137   7.4614251  40.0737457
  25.5342729   8.1821684  39.5442293  26.8719894   7.5323932  39.7966971
  11.1765712  26.0661160  39.6114679  10.5611369  25.4446397  40.0663843
  10.6338311  26.4044556  38.8632306  11.4388318   5.6532598  46.5492912
  11.4190848   6.2963239  45.8163108  11.8376801   6.2520640  47.2529328
  21.9196361  15.5373712  46.1170727  21.3792583  16.3003800  45.8209101
  22.7032697  15.6430873  45.5635239  15.1612897  27.5428250  39.8741291
  15.4372465  27.2167145  39.0038675  15.6352396  28.3625379  39.9662029
   7.0264499  10.1267406  28.6967626   6.4285343  10.4322299  29.3724175
   7.8977585  10.1155450  29.1027061  21.3497891  14.0879896  32.9877637
  21.8667884  13.9625291  33.8334082  20.9610135  13.2029017  32.9735050
   6.7189268  18.3707092  44.0587190   7.2019856  17.5635160  44.3523496
   7.0088796  18.9735221  44.7363727  20.0476849  24.7022732  44.1246469
  20.8373903  24.9644861  43.6487286  19.3367422  25.3604519  43.9009760
   3.8187240  21.1844244  49.4207533   4.0202551  20.9070417  48.5221517
   2.9052041  21.4001646  49.3878411  74.2167670  17.7154053  43.4584450
  74.6643748  18.0854772  42.6366622  73.3812340  18.1540713  43.4145350
  13.3183832  12.7696235  27.0803957  13.6732313  13.1763444  27.8825182
  12.3670151  12.9000580  27.1661226   6.9278003  28.0480132  46.3349231
   6.6283496  28.9254745  46.0080188   7.3231279  28.3576285  47.2226782
   7.4664160  28.5171686  39.2254594   8.3415004  28.2244275  39.0033393
   7.3887291  29.3816181  38.8043357  78.5524909  18.1696031  40.0965551
  77.6816241  18.1874456  39.7131602  78.6865943  19.1022931  40.3661382
  19.1180773  14.5688734  45.6992948  19.6417013  15.1443257  46.2473074
  19.5272381  13.6957998  45.8026556   4.6815677  19.3168654  51.2902919
   4.3225209  19.9593412  50.5904541   3.7991038  18.8970765  51.5232907
   4.0184176  33.2159598  41.1647555   3.9523701  32.2493227  41.1132883
   4.6251632  33.2507043  41.9726300   9.5504193  27.4875788  37.4947906
  10.1023268  27.8106142  36.7493586   8.6419252  27.5851128  37.0921449
  19.5226670  22.2440787  45.2080661  19.8495133  22.9665253  44.6534629
  18.6134067  22.0888278  44.9332763  12.2561173  20.0696880  36.8619657
  12.9161329  20.2864130  36.2056640  11.8807212  20.9495620  37.0441184
  13.3362575  22.7704738  28.3452086  14.2109472  23.1603194  28.5281633
  13.1157749  22.3080224  29.1432918  10.8929950  27.6743466  54.8276031
  10.7078284  27.1107171  54.0614971  10.5016457  27.0856859  55.5130419
  10.4600372  21.7350165  51.3732202  10.4720987  20.8514076  51.7608954
   9.5785051  21.8914362  51.1128256  16.6951100  19.0772189  33.2679309
  17.3001622  19.7339447  33.0297532  15.9349072  19.0970056  32.6710988
  21.0918689  16.2566630  49.9497536  20.5027005  15.6758313  49.3885652
  20.6873567  16.0347456  50.8558786  13.5569044  25.5575093  40.7244260
  12.6316680  25.7971975  40.5845259  14.0598057  26.3022081  40.3543986
  15.5621732  21.8353148  36.7674840  14.8311807  22.5070108  36.6715320
  15.4104870  21.6169382  37.7184368  16.6547657  18.7979396  50.9447934
  17.1178906  19.5614988  51.4239987  15.7694483  19.0646195  51.2187140
  12.8868172  20.2402864  53.6142819  12.7860084  20.0978949  54.5835028
  12.6417108  21.1131583  53.5003578  20.4360256  17.7882144  45.3006588
  19.6034035  17.4830175  44.7964584  20.0911988  18.5208161  45.8280570
   5.4366786  22.2305203  32.4479557   5.1764093  21.7318089  31.6239404
   4.7225539  22.8795924  32.4486033  14.9044281  20.9723450  39.3492523
  14.3126772  20.2518239  39.7500450  14.5265667  21.7096013  39.8837453
  15.3818655  16.6877387  62.8061924  14.5483833  17.1532976  63.0338180
  16.0589723  17.2395520  63.1569344  18.9274544  18.2707889  27.2498152
  18.5966158  18.1572242  28.1666443  18.1032438  18.5387128  26.7622163
  12.5941107  23.4040208  43.8339944  13.2209284  24.1725859  43.6112897
  12.5890285  23.4579314  44.7918663  12.6222678  14.3976935  43.7297300
  13.0125744  14.8725529  42.9191793  12.8172701  13.4857860  43.4548989
   5.5793279  28.2290852  26.7945018   4.7527550  28.0028033  26.3448105
   5.5863084  27.5808195  27.4998501  23.7816612  14.5455668  38.9700013
  23.9002707  14.7500151  38.0016335  22.8844447  14.1540413  38.9119038
   7.3256812  23.4645570  44.7015946   7.2170489  22.7266946  44.0261640
   8.0614105  23.9612444  44.2274945  32.4241467  56.3557003  62.1547126
  32.0106319  57.0720056  62.6044732  33.1957035  56.1726413  62.7502539
  33.9914522  39.0317026  49.6111746  34.1205749  38.3938586  48.8874744
  34.5971956  39.7709156  49.3083154  36.4392181  63.0484896  54.0951833
  35.8698169  63.3221705  53.3938977  35.9427671  62.3677782  54.5507577
  42.1386640  68.3141343  45.9845239  41.2111865  67.9410876  45.9698229
  42.1978949  68.7701347  45.1379359  32.0952408  60.6442073  49.8333460
  31.7415248  59.9186802  49.2430817  33.0666836  60.6576990  49.5330577
  34.4536642  54.3760973  50.0413190  35.2500523  53.9209901  49.6659239
  34.4128570  53.9170274  50.9212360  48.4185585  65.9931769  46.9839323
  48.6042705  65.9607771  47.9791581  47.4270844  65.9255566  47.0310991
  47.5691666  55.4683735  51.7049841  48.2384757  56.0433438  51.2115044
  46.8558928  56.1447974  51.7383677  25.9348322  65.1143925  47.4753755
  25.4900598  64.6235667  46.8668447  26.6744245  64.5329566  47.7557828
  35.0170527  62.7131649  44.6475714  35.6807502  61.9753475  44.5682818
  35.5946649  63.4090826  45.0483694  41.1528910  68.8254034  43.1894671
  40.7652723  68.2111744  42.5641407  40.5716792  69.5964957  43.1707520
  55.6492159  76.1970329  23.8562873  55.0076113  76.4419899  23.1698598
  56.4988632  76.4517522  23.4053462  45.5357141  76.4004868  31.4329789
  45.9373393  76.1106731  30.6218365  46.2295421  77.1004848  31.7380084
  51.0731622  74.9757208  47.4298134  50.2760105  74.4266301  47.4929302
  50.8194126  75.5254892  46.6605214  41.3456301  71.6566791  34.2986709
  41.1619661  72.5758046  34.6758120  42.0404103  71.3773516  34.9030185
  58.8643700  75.0200261  48.3881642  59.4407244  74.2332392  48.3137216
  58.9598689  75.4582423  47.5730699  47.3933845  74.3687717  39.0427568
  46.6115310  74.1659375  39.6738906  48.0742165  73.8370408  39.5126103
  46.2103895  61.2000434  60.0741587  45.7806829  60.6323304  60.7457904
  45.4850175  61.2475516  59.4064040  56.7868756  60.2241154  46.3299113
  56.6658696  59.3272328  45.8664543  56.4317434  60.7646328  45.6092282
  48.2433103  72.1992601  55.0108326  47.7962252  71.9403968  54.2056542
  47.5803299  72.0052181  55.6896553  54.2726240  63.3294542  50.3168099
  53.7092690  62.9957832  51.0668234  53.8056591  62.9610575  49.5523340
  54.5680823  69.5503224  44.2641085  55.2242839  70.2710126  44.1486521
  54.1600275  69.8681409  45.1411174  51.8146071  67.9999003  37.0018462
  51.3579505  67.5429897  36.2720561  52.7636972  67.6466573  36.8551006
  45.7989963  66.3572049  47.9797319  44.9402153  66.9049962  47.9072786
  45.9505932  66.5469285  48.9519549  46.2298336  62.2990512  53.7445567
  47.0377646  62.6783113  53.3954570  46.4313986  62.5178952  54.7278232
  49.3496029  68.5160495  49.4407810  49.5507471  67.5785893  49.2316034
  48.4902489  68.6855244  48.9129152  53.3019275  66.9072505  49.4606542
  52.9416981  66.7361598  50.3742997  54.0459417  66.2880410  49.4839539
  54.6951847  73.4179597  44.2718593  55.3092248  72.6656220  44.5535873
  55.4209665  74.0682556  44.0668191  44.0104500  72.1760006  33.0346765
  44.0377920  71.9366250  34.0138433  43.2841333  71.5744069  32.7622662
  45.3975828  55.3556394  48.6029368  44.6339264  54.8097643  48.7277415
  45.2136286  55.6697475  47.6601607  41.2717124  74.0909309  39.9668812
  41.9265815  74.4171955  40.6923995  41.9037196  73.9466046  39.2673509
  35.4123995  73.2540378  34.5013951  36.1649426  73.0501769  35.1422570
  35.5644770  74.2673472  34.4445459  45.2379217  61.2406040  46.0431969
  45.0473309  60.7410892  46.8150336  45.8450382  61.9401438  46.3925650
  31.8647138  75.0170782  49.8931418  32.1403484  74.1261210  50.0227385
  31.6715623  75.3686177  50.7866552  47.0829228  61.7988142  56.1951900
  47.6857418  62.4011245  56.6764837  47.2212073  60.9805475  56.6509653
  70.8485705  15.8733143  51.3926352  71.5637237  16.1145966  52.0405548
  71.0656317  16.4806259  50.6784299  44.4280609  69.9583998  50.7608644
  44.6071958  70.8820566  50.4696646  44.2619248  70.1119721  51.7428733
  56.8752461  71.0433709  38.7257768  57.7369767  71.1432497  39.1807634
  56.3818145  71.7680530  39.1523851  36.4614818  70.7915569  37.2132859
  36.7145537  71.6744441  37.5780912  36.7756900  70.2319769  37.9627532
  52.7118625  65.9439542  41.8888861  53.1932451  65.4117328  41.2464936
  52.4711159  66.7116714  41.3058795  49.9473118  72.5481824  46.6436506
  50.9214898  72.3643503  46.8234212  50.0031882  72.3020228  45.6506861
  56.5209169  76.3438258  40.4767722  56.3763495  76.8168315  39.6398080
  56.6284351  75.4118595  40.1697549  46.5093538  71.7188730  31.4300835
  45.6381993  72.1498041  31.7134077  46.2166885  71.5339649  30.4835580
  55.1722873  74.0197848  30.7630578  54.6370962  74.8513525  30.6874280
  54.9557234  73.6725019  29.8406585  45.4062741  72.1048562  43.3881845
  45.1755817  71.1395901  43.3194496  44.5632765  72.4210470  43.8217721
  77.2355080  11.6490253  24.7547548  76.3177620  11.2593616  24.6860051
  76.9934758  12.5910415  24.5278965  58.2137061  66.5024756  44.7828919
  58.4089915  67.2805056  45.3596559  57.2465963  66.4059224  44.8302317
  55.6380160  72.8958909  49.6535414  55.1151346  72.7805735  50.4579666
  55.0977142  73.6590176  49.2322935  46.4249983  76.3412583  37.3510835
  46.9571433  75.5399188  37.6398188  46.7747912  76.9316750  38.0969314
  54.6950667  66.4335610  39.6687399  54.4728833  66.7630299  38.7742835
  54.6457823  67.2584857  40.1962905  43.2905281  74.4297523  41.8848188
  43.2650568  74.0421050  42.7901972  43.3436592  75.3884494  42.1608764
  49.7284021  78.4570917  41.8724533  49.4412713  79.2407011  41.3761875
  49.5311763  77.7712950  41.1749305  54.9716846  75.3804575  33.7572373
  54.0386139  75.4656118  34.0808796  55.1129403  74.4831258  34.0743708
  51.4562020  66.9974718  54.7795369  51.3691891  67.9466270  54.8681595
  50.4876643  66.7470110  54.7858555   2.8972195  12.0769032  38.8338157
   2.9675501  11.0912914  38.7983301   1.8995643  12.0838528  38.7450888
  49.7124453  62.9659422  49.7023143  50.1858861  62.3451766  49.0687328
  48.8335760  62.4713852  49.7539542  42.4224750  80.7676508  47.6988291
  43.0861857  80.1920539  47.2727787  42.2557213  81.4484502  47.0431632
  51.8675477  80.6624495  47.5710211  52.4925462  80.4546103  46.8785201
  52.3152783  81.3531154  48.0398859  29.6170500  49.9628624  78.7827225
  29.2229700  50.1647917  77.9337963  28.9073816  49.5532902  79.3273704
  59.8783189  71.2560392  37.7829965  59.4239279  71.0741945  38.6287617
  60.3871554  72.0333097  38.0766524  47.9190353  66.0922333  52.4100051
  48.1292347  65.9907153  53.3563037  48.8236074  66.4417252  52.1137239
  52.9740004  70.6479512  35.8033021  52.4808991  71.2348733  36.4333063
  52.2787954  69.9666520  35.6504380  12.0529875   7.7893885  35.7075933
  11.3844284   8.3262183  36.1548730  12.5597129   7.4057073  36.4665597
  50.6026863  69.5455848  35.0666226  50.2644725  69.7273538  34.1748118
  49.8967969  69.8486785  35.6304782  72.5374951  20.2561586  36.8087069
  71.4969880  20.1484464  36.7610745  72.7270140  20.0297570  35.8876250
  48.0129207  82.1833603  34.3939388  48.6206412  82.1544762  33.6321595
  48.4804884  81.4946202  34.9266830  44.6614963  81.9077984  39.6137771
  45.0087152  82.2397741  38.7834636  45.4051518  82.0956640  40.1925465
  37.9670443  79.8571322  47.3118200  38.6988456  80.2771743  47.8096553
  37.3645431  79.6726273  48.0361692  67.4761221  14.4380826  40.3598421
  67.9916170  13.6367249  40.4928578  66.7170340  14.2163278  40.9854583
  74.4093098  21.3679703  50.5875742  74.8321850  22.0444336  50.0171363
  73.5093644  21.4012277  50.2107635  31.0332538  72.0725976  48.2177700
  31.1520745  71.3835184  47.5474687  31.6182572  71.7109839  48.9252624
  51.1857218  75.1819000  54.7579637  51.9953830  75.4176535  55.2978628
  50.5476773  75.8636875  55.1576912  54.6368925  79.0763649  47.5177912
  55.4550185  78.5977305  47.8376142  54.0871065  78.9632814  48.3507878
  32.1712584  70.0765258  49.9796099  31.5627180  69.4395838  49.5726948
  32.9899759  69.5279060  50.0241570  60.6338754  76.5034712  41.6577549
  60.4987811  75.5787707  41.9316067  60.8936219  76.4250099  40.7559272
  20.2915704   3.3028426  30.6962391  20.1166900   3.8300147  29.8919286
  20.0417256   3.9337219  31.3780309  49.3572429  73.5607174  40.8983810
  50.2417406  73.3357625  40.7171088  49.1512810  72.9149709  41.6252022
  61.9295946  53.4696406  33.6732118  61.1191170  53.3149551  34.1241658
  62.2437483  52.5695389  33.4816518  52.5217058  75.1108785  35.0206710
  52.7874472  74.6855559  35.9021230  51.6277273  74.6465341  34.9450583
  31.1155606  72.6592966  44.4537878  31.7922390  72.8353101  43.7685704
  30.7170772  71.8711571  44.1383841  53.6291607  75.5871025  21.9132078
  53.9514898  75.7639198  21.0323153  52.6587973  75.5585078  21.7996400
  31.9143005  46.5727773  -6.3517947  32.0480171  45.5826432  -6.3791823
  32.4226781  46.8354910  -7.1511580   4.2211042  10.2254540  29.0323697
   4.0542379   9.8753406  29.9435367   4.5226338   9.3922637  28.6313392
  62.7016595   6.4249482  29.3147341  61.7660371   6.3401587  28.9921974
  62.8709408   7.2927098  28.8512028  68.8511868  12.5681536  33.1565204
  69.0611186  11.7017292  33.5546018  69.4979975  13.1404949  33.6536558
  46.3466607  71.5396980  35.0705707  47.0030904  72.2025001  35.3192214
  46.8102933  71.0563193  34.3924717  55.7036489  65.3329453  49.3553314
  56.5068535  64.7647198  49.4526124  54.9934862  64.7161778  49.6846441
  52.9923581  77.3697553  40.9592041  52.8135481  77.1582103  41.9346399
  53.6875254  78.0943965  41.1173352  47.8338287  81.7924349  38.7581460
  47.1910951  81.9882186  38.0561579  47.6713451  82.5192682  39.3974020
  57.8427606  77.7944107  27.9092606  57.0736980  77.2228099  27.8777219
  57.4473809  78.6849316  27.6344268  46.5951506  57.2423135  54.5035004
  46.7193599  57.7736973  53.6459207  47.5516994  57.3091920  54.7413483
  61.8534559  79.1862910  50.1877900  61.5224614  78.3351827  49.7942600
  61.3068234  79.2738516  50.9866856  62.3840752  64.2356851  49.3331707
  61.8124659  63.6312531  49.8525096  62.0568847  64.0476606  48.4248581
  39.7494161  60.9008922  48.4072679  40.0425838  60.4449997  47.5804550
  39.7354436  60.1071091  49.0025973  49.5248084  70.1253984  23.3162195
  48.7822687  69.6640549  23.8265091  50.0495499  70.3161231  24.0816537
  47.7467497  78.2677279  32.2420839  48.6567991  78.6184179  32.3368564
  47.5026213  78.2708907  33.2439969  59.5928729  77.6893435  30.5699905
  58.9345484  77.5349179  29.8820958  60.1254281  78.4202536  30.1624172
  50.7913235  61.2888199  47.9817452  50.2105580  60.6194675  47.5258923
  51.3739476  61.5686578  47.2103474  51.9926397  69.4417692  39.8325147
  51.6921147  68.8742430  39.1619984  52.9311226  69.3703723  39.7642061
  55.4597305  76.2172862  43.1453506  56.1791726  76.7377997  43.4655370
  55.6048826  76.1472311  42.1807721  58.5317521  71.7971676  35.5319193
  59.0268709  71.5632924  36.3653766  57.8587117  71.0543256  35.4793409
  53.3916535  70.3560057  46.3176359  52.6880077  70.1000044  46.9799935
  53.2331869  71.2931318  46.1748684  44.8977437  57.8170387  56.4664938
  44.6017006  58.6662309  56.1049552  45.4765449  57.5803002  55.6738096
  49.9223709  80.4507287  35.1398565  49.9766575  80.9911571  35.9474675
  50.3762501  79.6445986  35.4296574  39.1622806  69.9233519  46.4155451
  39.7985404  69.6359011  47.1611995  39.6986229  70.7020157  46.1080437
  50.3227840  84.4904702  40.5232075  50.4996019  85.4253493  40.8140049
  50.0832179  84.7277440  39.5695723  64.6419256  65.2109189  48.2216498
  63.8887188  64.8459056  48.6777570  64.8582667  64.4840679  47.5558329
  62.3285373  10.8777663  48.6027596  62.4071882   9.9531953  48.1652645
  61.4102143  11.0920022  48.3297288  50.3487447  72.4323942  44.0448717
  51.0096662  73.1653141  43.9890949  50.5556197  72.0313108  43.1771749
  40.2427567  77.4353268  37.3186652  40.6065587  77.0846843  36.4935445
  40.9941308  77.9895769  37.6129641  54.6537484  70.8276758  29.5042174
  54.8408956  71.6790027  29.0607166  54.3878315  71.0790678  30.3911759
  36.1658406  67.0350566  54.7144100  35.7870224  66.1996414  54.9967551
  37.0338822  66.9698116  55.2741087  55.7998997  76.0122191  55.4095505
  56.2107377  76.7432797  55.9391738  55.9135005  76.4279492  54.5204794
  45.0649377  82.8123869  51.3155551  45.7994367  82.2225489  51.2961795
  45.5366886  83.6962584  51.2315903  56.1467277  81.4632513  35.3613119
  55.4005723  81.4572264  35.9938578  56.7150742  80.7633355  35.7959494
  38.2002993  71.1662889  49.5624292  39.1528693  71.2799042  49.7253420
  37.9983134  72.0015174  49.0197551  59.5331982  74.8408282  33.4586772
  59.5498130  75.0773415  32.5305594  60.3152200  75.2778784  33.8358047
  10.0427422   6.7147935  34.1312231   9.9254461   6.1063803  34.9069721
  10.6958605   7.3540268  34.6000717  38.8474428  77.7398385  46.1893889
  38.0349777  77.5276431  45.6914637  38.4960255  78.6123068  46.6123090
  57.1923707  79.4206397  36.9548218  57.7607170  79.5022612  37.8110716
  56.6799406  78.6322997  37.3290198  62.3621277  78.2437631  32.7561118
  62.6429233  77.8606180  31.9076133  62.8091147  79.0874577  32.7909953
   4.0412373  16.4423166  39.3568853   4.8161771  16.3113520  38.7790366
   4.3406659  16.1570514  40.2157836  52.5766864  74.8388830  40.1063867
  52.4708293  75.8072494  40.1393175  52.5679174  74.5994952  41.0597351
  22.2251959   9.0393055  39.6194754  23.1313565   9.2975515  39.5805794
  21.9285487   9.3461389  40.4658858  53.6147648  79.0546719  30.8699146
  53.8668965  78.0969159  30.9462440  52.7005527  78.9360672  30.5112864
   1.9824617  15.8802435  44.8955659   1.2826959  15.3247293  45.3590043
   2.7471792  15.4294111  45.3316456   9.0076459  10.4733573  33.7319450
   8.6018677  11.2461733  34.0558508   8.5125374   9.7443982  34.1704850
  78.7091306  16.7842422  36.5660796  79.0626080  15.9118786  36.6477596
  79.0214151  17.2081085  37.3927012  57.0002480  80.2205264  30.2329603
  57.1722992  80.3310403  31.1540147  56.3699447  79.4458112  30.2714676
  72.9333199  10.7809315  51.1453909  73.5648017  10.6602914  50.4184001
  72.9932837  11.7488169  51.2316878  12.3597104   3.5882630  38.5119685
  13.1830365   3.1569103  38.7272489  11.7149789   2.8883258  38.7150880
  20.6283143  49.3396873  -1.9377689  20.2064157  49.7110222  -1.1297453
  21.1465593  48.6189916  -1.5914927  49.3036979  84.6632821  35.7511576
  49.2116503  83.9161271  36.3609680  48.3874533  84.8215137  35.4400888
  15.7086122   7.3986606  51.7225432  15.5443220   6.4860933  51.7296617
  16.2916487   7.5130221  52.5158095  13.7931205   3.8687671  44.0131460
  12.9223581   3.4797023  44.2380388  13.6506723   4.0065052  43.0387951
  25.1405482  49.6765074  86.1300339  26.0553366  49.9522646  86.0404511
  24.6624519  50.4586852  85.7648163  64.9437335   9.9109653  51.6721038
  63.9649921  10.1252198  51.8188765  65.3390870  10.6651329  52.1358601
  55.9006074  80.4414797  44.8029130  55.8141609  79.7637731  45.5129312
  56.6475830  80.9491605  45.2148970  56.6663900  80.6307573  32.8378823
  56.5626574  80.9231942  33.8047790  57.2851219  79.8477551  33.1199850
   2.2948348  17.6371671  48.4200589   1.5783588  18.1375712  48.0644411
   1.8469453  17.0375613  49.0502938  61.1932262  73.5871565  37.8008702
  61.9011873  74.1236744  37.3723707  60.7873346  74.2777450  38.3781931
  58.6397347  79.1904085  39.0827636  58.3167556  79.3188551  40.0333658
  59.5465803  79.4289907  39.1551094  48.1130122  68.7208537  56.8051514
  47.2932419  68.8337544  56.2895303  48.0767618  67.7255603  56.9029719
  12.6588130   6.6448019  41.7715420  11.8648839   6.8533462  42.2906065
  13.3502912   6.7535103  42.4426755  12.0659517   4.5072628  35.6994006
  12.2891279   4.0626088  36.5747496  11.1132368   4.6430986  35.8619920
   7.8000633   9.7504096  37.1346603   7.2604467   9.6707928  36.3597662
   7.4016994   9.1121502  37.7378290  51.0150215  71.6405918  37.8849647
  51.2979672  71.0471978  38.6158358  50.1141344  71.2905758  37.6527011
  68.3324145  74.1175320  29.5902053  67.6458703  74.8488292  29.5167807
  69.1411122  74.6078368  29.6901219  60.8998995  66.9812005  33.4224888
  61.6807158  67.5550611  33.6155804  61.2493641  66.5159169  32.6417396
  52.5679729  82.8117103  24.4854659  53.0212033  81.9905131  24.6597534
  53.1920812  83.2098982  23.8195360  16.0981493   3.9651648  29.1653287
  15.9712349   4.3285264  30.0831943  15.8609578   3.0528940  29.3146020
  58.1633241  74.7234912  28.6191142  57.4242834  74.8202211  27.9613189
  58.4163806  73.7873759  28.4565710   6.9827599  11.7498973  38.8460817
   6.2781644  12.1461972  38.2721737   7.2276686  10.9172927  38.4177398
  26.1835474   3.1812278  24.8973081  25.2899516   3.2092540  25.1568155
  26.6768727   2.8819113  25.6958010  14.4607410   5.8960998  35.3530395
  13.5827449   5.3562358  35.3170173  14.6666897   5.8372195  36.2979143
  68.4231483  73.5457212  40.6550344  67.9306851  73.1032001  41.3451673
  68.1285057  73.0483150  39.8459288  56.4972137  81.9401084  52.4429245
  56.0528263  82.6677489  52.7934261  57.3244554  81.8608269  52.9684285
  15.3197986   8.2096343  34.1203874  15.1550066   7.2994136  34.4098225
  14.5380141   8.6421923  34.4499296  52.3140180  83.9078611  36.1807977
  52.2031230  84.7355582  35.6101968  51.4895906  83.4645956  35.9961953
  71.1450131   9.0402412  43.8235942  70.2282460   8.9832007  43.4073692
  71.0661893   9.9379903  44.2143168  50.1342514  80.2806390  53.4331248
  50.5232608  79.7774950  54.1296303  49.3227292  80.6771660  53.8116096
  74.7820298  11.7911197  31.9361596  74.5046010  10.8562659  31.7950625
  73.9728509  12.2483739  31.6444192  46.8058642  73.6510321  45.1787726
  46.2949825  73.0810148  44.5201564  47.0726292  74.3836513  44.6301879
  51.4197118  70.1267512  48.2341729  51.6918784  70.5731946  49.0701273
  50.6065170  69.6558461  48.5753581  23.8835637   4.5047509  48.4158113
  24.5875244   4.8602129  47.8199732  23.6232960   5.1982243  49.0131334
   8.0591651   9.7192157  48.5382168   8.0581944   9.4014162  47.6302797
   8.8067664   9.1866398  48.8986099  76.7835610  12.5105850  41.8497068
  75.7919261  12.5583873  41.6019168  76.7225517  12.9341051  42.7336333
  49.5877947  72.7243639  49.3220938  49.6610336  72.9027647  48.3547515
  50.5191841  72.5147351  49.5178155  48.7415036  72.2532040  32.5888046
  47.9807835  71.8749421  32.1119643  48.9190556  73.0617719  32.0361002
   5.2473458  13.3557030  37.3384606   4.5650218  12.8720712  37.7782682
   4.9495526  13.3307124  36.4069373  13.3096678   3.3835531  27.0083871
  13.9551803   2.7531150  26.5477553  13.4421375   3.1481909  27.8986445
   5.6726951  10.7974822  49.6249384   4.9823191  10.1845195  49.3637621
   6.4391602  10.5252384  49.0793525  59.5192342  77.9961182  35.3185831
  58.7362529  77.6422907  35.8263409  59.0470296  78.2764481  34.4817921
   6.4939875  16.4430071  57.0210332   6.2499926  16.7319931  57.9204146
   5.8176257  16.8914512  56.4784839  62.9328645   8.2372757  42.3188216
  62.5209011   8.7810518  43.0745826  63.1166504   7.4175865  42.8696146
  54.4558207  71.8884778  41.9706696  54.5068301  72.2970123  42.9018035
  55.4352561  71.9499668  41.7183075  45.5194940  74.7738295  33.7694536
  45.3505937  73.9113652  33.3276419  45.8444859  75.3053543  32.9951754
  49.2675394  75.7969000  25.2556534  48.6269750  76.5231102  25.0330381
  48.6433871  75.2978341  25.8324303  56.9844324  78.1321461  48.0120565
  57.2996193  78.3578105  47.0683002  57.8085575  78.4647522  48.4690147
  57.8447459  69.3617485  42.6801493  58.2995535  69.6996411  43.4838456
  57.3872970  70.1695855  42.4205193  45.5699311  82.1594384  37.1788058
  44.9407102  82.6996530  36.6772083  45.7945959  81.4544393  36.5347271
  54.4195926  79.2643229  27.6684737  55.0950202  79.3303322  27.0063513
  54.3719515  78.2586553  27.7170313  48.9041663  62.6013518  52.7753880
  49.4416906  62.4261830  52.0324459  49.5068929  62.9203447  53.4393272
  54.0318160  72.9990013  55.1935752  53.5209782  72.3784535  55.7838638
  53.4304425  73.7586557  55.1852170  55.2554496  72.1210851  32.6209177
  56.2484325  72.2860746  32.8651962  55.2273980  72.9671107  32.0890301
  20.2724843   3.0908609  22.8948845  20.5490387   3.3291400  22.0108609
  20.1796918   3.8620759  23.3886323  12.9252022  14.1508367  39.4594078
  12.8506088  13.1646527  39.6405814  13.2652759  14.4415134  40.3182048
  18.9433564  13.0546489  39.4627333  18.1774305  13.2974473  38.9171217
  18.5962568  13.2379516  40.3621075   2.5977312  17.5576906  33.6047922
   2.5030644  18.3970670  34.1347612   1.6436985  17.3377473  33.4461739
   2.8242635  10.1022799  35.9852781   1.8813047  10.2075073  36.2171224
   2.8302226   9.1637785  35.8531592  49.5157761  75.5243672  37.2225503
  49.4441633  75.4765143  38.1882344  49.4392382  76.5094993  37.0532754
   5.0349863  13.4817166  54.8719757   5.3117556  12.5993267  54.4916978
   4.4434538  13.1424425  55.5968653  57.1928344  72.3463960  42.0168617
  57.3311663  73.0167147  42.7725061  57.1345022  73.0340612  41.3056708
  26.0819802  42.1284031  -1.7219700  26.7787953  42.8443428  -1.8345436
  25.3628517  42.5554420  -2.1910349   5.8486397  18.0196709  35.6670708
   5.2949151  18.8305639  35.8570091   5.8850037  17.6445065  36.5386703
  55.6651025  77.2934285  37.9832401  55.6860227  76.3822749  37.6257299
  54.7538123  77.5679532  37.6491315  35.7267422  76.0346023  35.1755485
  35.9748651  76.0956908  36.1578267  35.2730961  76.8085266  34.9544717
  60.8407352  71.4060755  42.4503228  61.2099475  70.8249130  41.7578816
  60.5984061  70.6998418  43.1128645   8.6324820  21.3466421  28.9243476
   9.1784859  21.0730306  28.1490606   8.0394552  20.5215457  28.9526159
  51.5827071  74.4209694  26.6699645  51.6970720  73.6042839  27.2727494
  50.8473001  74.0321844  26.2002437  21.9954370  -3.9097139  30.6469940
  21.1352630  -3.5041150  30.4693693  21.9038906  -4.1154977  31.6023927
   9.5058027  17.7961249  22.5387980   9.1469280  18.1087433  21.7078789
   9.0799615  18.4509706  23.1742875  52.3712866  74.4454080  43.0972991
  53.0955353  73.8908972  43.5186915  52.6552125  75.3268432  43.3176278
  51.2897770  71.6417631  41.5557396  51.2732079  70.8007761  41.0285511
  52.2605058  71.7646943  41.6635690  51.4907702  78.4529093  38.5676435
  52.1145747  78.1728207  39.3214248  50.8789268  79.0012927  39.0662308
  42.7155499  80.1195258  40.6190437  43.2114717  80.8324778  40.0807012
  43.0164993  80.3617360  41.5032252  54.8093890  76.6542988  27.9877597
  54.4912226  76.2813808  27.1378617  54.7024441  75.9423305  28.6098538
  60.0286261  80.5166345  33.0752003  60.9890995  80.2558133  33.1351059
  59.5456827  79.7282191  33.4344054   9.8797246   7.9877072  54.1917184
   9.0551691   7.5085343  54.0209043   9.5577403   8.3697813  55.0568245
   5.7750201  10.8461641  54.1654472   5.0666217  10.1902142  54.2818700
   6.2362104  10.5323336  53.3595856  60.9509076  72.8462632  31.5730750
  60.0669627  72.4227423  31.4268811  60.6672405  73.7697880  31.3149364
  61.5290620  66.1288870  35.9921001  61.4618924  67.0481964  36.3351002
  61.1942828  66.2128183  35.0664787  44.9676077  74.6924077  48.3314818
  45.3942040  75.5428335  48.6087269  44.2938738  75.0051314  47.7209444
  57.8203196  71.7823145  27.5745854  58.2703879  72.2668070  26.8490853
  57.4701610  71.0324731  26.9795709  53.3086141  79.5218029  36.9117683
  52.9669806  78.9822083  36.1447265  52.7463296  79.1075212  37.6196082
  49.2041465  76.5010393  40.0801614  49.0117711  75.5620608  40.3621256
  48.2651022  76.7722564  39.8274537  17.6215941   3.9806969  39.5056577
  17.7303441   3.0240603  39.6698901  18.4738494   4.3542679  39.6702746
  25.3400560   7.0172772  30.0000092  24.6936807   6.8526907  30.7367694
  24.9873463   7.9113834  29.7413938  26.2352224  14.9767361  40.0117966
  26.1830186  14.5208956  40.8398440  25.3500026  14.8710477  39.6572872
  12.1850997  20.7503844  33.9329047  12.9126948  20.1280595  33.8908363
  12.5409623  21.5504742  33.5174523  73.0963346  68.1145888  27.8420852
  72.8809095  68.5416376  27.0094080  73.8341794  68.7499411  28.1034648
  27.7652028   1.9935109  39.6358709  27.6586326   2.3976108  40.5042059
  27.9277882   2.7799739  39.0895143  25.5672553   3.7045375  29.9456588
  25.4730312   4.5860191  29.5534806  24.9589119   3.1765441  29.3660783
  17.5209033   6.0709316  24.4078783  17.1564075   6.9327328  24.2142464
  16.9165149   5.8210083  25.1424933  16.2845235  13.2479291  36.6724587
  15.3387364  13.4366773  36.4465933  16.4299399  12.4071396  36.2883950
  40.3180879   0.3072567  19.5883562  39.6301886   0.4490849  18.9137423
  40.0609561  -0.6037478  19.9289102   8.4999233  18.2172005  19.9418237
   7.7449760  18.7316073  20.2873890   8.9157310  18.8137403  19.3031978
  12.7481573  66.9615129  36.6648825  12.6730817  66.8526679  35.7007517
  13.4493511  67.6955499  36.6834403  16.1941975  15.2152490  25.9309654
  15.4003851  14.6857339  26.1066298  15.7094800  16.0782016  25.7478386
  50.2693454  81.2226588  32.6417638  50.0466150  80.5901456  33.3613631
  51.2524500  81.2647020  32.8878944  20.6861067   7.3729884  28.2794235
  20.8746447   7.0045515  27.3912284  20.0152242   6.7782093  28.6102107
  20.7979136   7.3370844  36.0105457  21.7568569   7.5776112  35.8821371
  20.9059564   6.4021797  36.2277650  44.9312307  17.2089836  17.1040905
  45.2670495  17.8156273  17.8122916  44.6101042  16.4481675  17.6313182
  48.5311517  38.4825182  72.7180577  47.6919804  38.0817702  72.8789171
  48.7283099  37.9871540  71.8279027  13.3164229   6.4027405  29.8214532
  13.0225323   5.9933639  28.9664679  12.4729010   6.4670394  30.2767394
  20.2015842  16.5369757  37.1387091  20.2334044  16.2151648  38.0633808
  21.1870551  16.5533573  36.9342135  19.5031111   1.6862366  33.4663677
  19.5772719   2.6865495  33.4283185  20.4924547   1.5177872  33.4067165
  14.2064101  19.3922086  32.1404572  13.6481812  18.8274185  31.5567622
  14.0637900  20.2510160  31.6629894  67.6805856  71.5792826  28.3992430
  68.4967735  70.9665608  28.3778923  68.0804196  72.3971778  28.7565456
  33.9553414   9.4324667  16.9525875  34.4964241   9.2510219  17.7086725
  34.6198093   9.5839737  16.2704229  18.1828335  11.3297691  16.4987053
  17.9333011  10.3863249  16.6393139  18.2277095  11.6348632  17.4361734
  29.1562674   3.8677400  34.3232149  29.3997380   3.3486438  35.1221238
  28.4086288   3.2738645  33.9820594  32.0353839   3.6758886  27.8963251
  31.2292789   4.0117261  27.4674808  31.7002836   2.7083541  28.0375399
  23.3532599  13.5640069  27.8335740  22.9549362  13.8552987  28.7124850
  22.8959877  14.2451665  27.2346484  26.6080438   4.2390792  20.8308567
  26.7834989   4.1051252  19.8530165  27.1177781   5.0550428  20.9606925
  12.5027178  18.2263289  29.9481752  11.8261084  18.5631550  30.5871080
  12.2020657  18.7708319  29.1813515  19.7973436   8.7007664  38.1735751
  19.8930672   8.1710927  37.3847963  20.6936077   8.7260525  38.5510755
  72.6382784  66.2548487  44.8266681  71.7496972  66.7190100  44.7261489
  72.7546280  65.9817153  43.9113960  42.4285637  34.6513982  74.1255754
  42.7901483  33.9212870  74.7484620  41.9247171  35.1463400  74.7610766
  27.5187736   0.3971630  31.2720706  28.3232681   0.1678696  30.7414355
  26.8423726  -0.0036985  30.6434775  69.7895104  71.8375945  31.5564554
  70.0777773  72.5140340  32.2285955  68.9764285  72.2398786  31.2481601
  19.4185339   7.3714988  21.6184431  19.2242664   6.7558243  20.8234497
  20.1039222   7.9239552  21.1286326  21.6533310   4.0913676  39.2940964
  21.3690749   3.4298801  38.6685138  22.0583853   4.7409117  38.7586207
  24.0380291  17.0234692  40.4012550  24.0138015  16.1282362  40.0262031
  23.0757514  17.2075675  40.4791667  23.0902591   2.7148230  25.9238196
  23.2875164   3.5740219  25.3792845  22.2114949   2.5249322  25.5316152
  17.1719848   7.4053165  30.0116718  17.5413787   7.7923747  30.8149384
  16.2777199   7.7867287  29.9495393  16.2100288   8.1379947  19.6317982
  15.3809158   8.0588930  19.1236127  16.2795556   7.2049857  19.9803493
  14.7490060   4.8495183  31.5582942  14.1098592   4.5519768  32.2305917
  14.2042261   5.2174367  30.8483960  25.6289046   8.5889530  34.1506397
  25.3494553   9.5124827  34.4645991  25.4239185   8.6721622  33.2476142
  10.6350730  22.3249133  30.7539709   9.9865668  22.7760052  31.3754343
   9.9904963  21.8005293  30.2205425  28.7428599  10.3446449  25.9918152
  28.0664470   9.6988126  25.6053333  28.7112167  11.0625715  25.3344094
   9.1073758  23.7137226  32.6517464   9.3252324  24.4704225  33.2058318
   9.3345463  22.9661870  33.3480985  12.1450244  15.5850873  29.0928989
  12.3804794  15.8097629  28.1464846  12.3495642  16.4370375  29.5462669
  12.9486717  10.1775615  30.9841514  12.4206811  10.3411944  31.8074858
  12.3026857  10.5679284  30.3620121  17.6771193  16.5192205  40.7980532
  16.7760082  16.8264019  40.6006957  17.5053155  15.9619122  41.5843203
  13.8176478  12.8631219  35.0919640  13.0755731  12.2825409  35.3618044
  13.4840565  13.7709485  35.2450447  26.2273758  11.7788847  32.9048408
  26.5634898  11.2104833  32.1546394  26.4519227  12.6866917  32.5226945
  12.8101157  15.9685925  26.4776382  13.6000052  16.4786704  26.1647177
  12.2101817  16.1442096  25.7168829  45.6721329  40.2128822  82.0186144
  46.2610451  40.8941364  82.3817665  45.4400937  40.5181293  81.1531239
  73.6718749  65.8393550  37.6842383  73.0700924  65.0658182  37.8153287
  74.5426378  65.3501722  37.6379686  18.0279767  22.4163766  30.4117402
  18.7727849  22.7829412  29.8876701  17.6041218  21.8616839  29.7535411
  24.6544694  17.8852663  22.9558541  25.3799363  17.2841532  22.6323334
  24.4626736  17.4168347  23.8299979   9.9452029  13.8735926  31.5392959
   9.0239954  13.6648565  31.9541241   9.9506999  14.8197014  31.7715840
   8.5306466  19.2985759  35.2249085   7.7368290  18.9936922  35.7828736
   8.2076816  18.9409039  34.3476858   9.8155929  17.3047731  26.4941053
  10.1492478  16.4766671  26.8517708   9.9979297  17.1555065  25.5441018
   8.2614774  12.9887285  34.6085750   8.1352926  13.0042493  33.6618625
   7.4058680  13.3489521  34.9262871  22.4910586  13.2019197  35.4038867
  22.0647860  12.7808893  36.2058853  23.3373922  13.5493448  35.8130170
  24.8783837   4.5624057  37.6662096  24.2657090   5.2664078  37.8722013
  24.6410710   4.2738284  36.7776580  65.7327922  72.8640848  33.0852339
  66.1343669  72.6064318  32.2157932  64.8100119  72.6601161  32.8622218
  16.7342044  15.5286368  28.4421638  16.0554134  14.8671312  28.6117798
  16.9346085  15.3258912  27.5209967  29.3147137  10.9815349  37.5632540
  29.3148173  10.1068360  37.3843090  28.6032314  11.1514461  38.1601467
  23.5831993   8.9660039  22.7566485  22.7060419   9.1574846  23.1501435
  23.3168848   8.4450320  21.9801511  24.9315680  -4.4952201  32.8881499
  24.7663665  -4.7484856  33.8412976  25.3265793  -5.2857130  32.5073734
  13.9295710  13.6952126  29.5244862  13.2896501  14.4638678  29.2809282
  13.6009657  13.5167598  30.4127959  12.5019795  13.4842889  32.1934551
  12.4781726  12.6466576  32.7629227  11.6314929  13.4948493  31.8330780
  14.7484844  26.2631747  53.3609519  14.5042079  26.5593462  54.2684203
  15.7312421  26.3409190  53.4896930   5.3588500  18.6929631  29.9095427
   4.9304375  19.5797664  29.7625835   4.6589022  18.1512773  29.4553713
  14.6899500  19.0407639  21.3861922  14.2281833  19.6168036  20.7393037
  14.6689413  18.1857325  20.8624875  76.5366382  11.2970227  46.5331841
  76.1463778  10.4071534  46.3981147  77.4266585  11.0043423  46.7823219
  21.5471535  10.6578310  36.5689961  20.7304416  10.8669027  36.1056047
  21.3512731   9.8585415  37.0399354  31.2536515   4.1901490  31.1044572
  31.3166545   5.1615633  30.9243293  30.3479496   4.1552056  31.4346736
  14.7073444   4.6776051  51.3920731  14.9891809   4.1241098  52.1333227
  14.1262256   4.0938948  50.9308998  16.2873366   8.2104260  37.2428285
  16.8687593   8.0854093  38.0535694  16.2889625   7.2501320  36.9482032
  25.4648189  20.5739253  22.9172971  26.3946628  20.2285966  23.0169576
  25.0248027  19.7715283  22.6524275  22.3264910  -0.9935022  32.1880768
  21.6799263  -0.3443433  31.8638532  22.7223756  -0.4759885  32.9215098
  20.0183210  10.0777680  29.1132449  19.9779996   9.1350172  29.2180643
  20.8239553  10.1467170  28.5297600  40.1236853  46.5773551  78.8865924
  40.2021896  46.4765380  79.8228118  40.8389879  46.0370586  78.4801716
  26.0751828  10.6203200  36.2454615  26.8213610  10.7286512  35.6271172
  25.9014891  11.5706648  36.4618212  22.9444369  -4.0698430  27.4485400
  22.3251102  -3.4312178  27.9350390  23.6869664  -4.1103310  28.1171495
  62.5531794  34.7839687  78.3825635  62.5894545  35.6881331  78.7979477
  63.2296951  34.3783358  78.9755038   8.6092245  65.0507247  28.9768377
   8.2024254  64.4119360  28.4050317   8.0346848  65.8016950  28.9700237
  22.0524672  -3.4061983  38.1662509  22.4163034  -3.5933081  39.0897752
  22.8838520  -3.3844214  37.7042198  64.2758934  58.7783839  35.6860445
  63.8396161  58.0284747  35.2294598  64.9039992  58.9727467  34.9489098
  25.0935594  -0.2632634  29.9430906  25.6371377  -0.7757315  29.2787613
  24.8206513   0.5012569  29.4183910   9.3282508  24.1380695  28.2625182
   9.5158874  23.1627471  28.2635808   8.9708513  24.2193292  29.1454137
  23.4234053   8.0326123  35.8637048  23.3579685   8.5211397  35.0194033
  24.2887497   7.6342150  35.7380328  69.0163809  74.2249499  23.9183144
  68.8026777  73.2709236  23.9822195  69.1708338  74.3785196  22.9853679
  30.1283420  -1.0099566  41.5938522  30.5435279  -0.3350770  40.9755952
  30.5362740  -0.6452801  42.4418473   5.3192101  12.3560192  26.4565183
   5.6029298  11.8365623  27.1953599   4.3670822  12.3434664  26.5603222
  21.2414625   0.8784796  38.7500507  20.6829102   1.6702975  38.4374453
  21.5184005   0.6007309  37.8667987  20.1916790   3.2483657  41.5114300
  19.8464645   2.3862735  41.2851925  21.0442207   3.2321271  41.0295757
  12.6820965  14.9207188  36.9202675  12.0609492  14.1763835  36.6452589
  12.8947180  14.6821224  37.8445070  10.6711882  11.7166506  29.8172784
  10.5357124  12.4268047  30.4496013  10.1349612  10.9737653  30.1866644
  28.2624401  28.4948954  21.1445310  28.0548805  29.2746123  20.7152024
  27.4327620  27.9573748  21.0460095  47.5513760  55.3622989  74.1674245
  48.3026613  55.0762313  73.5575878  48.0313374  55.3234604  75.0139096
  23.9254448   7.3987638  20.0679520  24.8135231   7.0439247  19.8421607
  23.7406075   7.8232843  19.1926956  59.6814378  54.4619924  69.4591242
  60.0450287  53.9588179  68.6919466  60.2161798  54.0943911  70.1695037
  12.9548165  71.7912402  27.7613608  13.1146874  72.2072467  26.9081986
  11.9730557  71.9242644  27.7965355  24.1367228  11.4973693  16.0789750
  23.2747250  11.0322225  16.0252278  24.3940082  11.4341772  15.1142844
  23.2605101  23.8348480  16.3413618  23.7054756  24.1514942  15.4654544
  24.0276137  23.2146762  16.5610109  29.5559706   7.6120949  25.2073563
  29.0242248   6.7689129  25.1558683  29.4726914   7.7752166  26.1429436
  22.6492232  15.8069012  26.6798178  21.8121852  15.6876592  26.1536636
  22.7337294  16.7712489  26.5495982  24.9113361  21.5719678  16.3928401
  25.3071129  21.5841035  15.4895566  25.5612799  22.0619826  16.8619319
  13.6198365  17.4798755  38.0663581  13.1021853  18.0153088  37.5644059
  13.2723757  16.5639849  37.8586183  19.3330923  14.1540795  35.6878303
  18.4551649  14.4246981  35.2743117  19.6145242  14.9667721  36.0997516
  26.2274020   6.6815036  35.8669495  26.2336129   7.3290206  35.1083998
  25.9305830   5.8585368  35.4440740  31.0497065   7.0490142  31.0157609
  30.1695290   7.0224434  31.4728225  31.4113036   7.8615950  31.3801674
  28.1860837  11.4091271  34.6592004  27.9344558  12.1952721  35.2358899
  27.5696416  11.5664584  33.9254276  43.0066627  39.2220754  82.3497659
  42.5623093  39.4930965  83.1811571  43.9113419  39.6482336  82.5147887
  29.3555677  33.4161018  12.5126555  29.2284521  34.0578019  13.2210359
  29.2550682  32.5264255  12.9202454  39.9563682  12.5141623  14.2953531
  40.2493506  11.6330420  14.5856483  39.2624992  12.6435419  14.9346783
  23.6186805  15.9170162  19.1815930  23.5182350  14.9936299  18.7643497
  24.3316023  15.7452467  19.7663031  25.7934681  11.3494661  28.2784046
  25.1436451  11.4118696  27.5735087  25.1778348  11.1465589  29.0203367
  29.5322626  12.9203353  20.7754050  29.2079226  13.1788460  21.6196639
  30.4460389  12.6636641  20.9423138  42.6969374  39.6556677  78.2903543
  42.6930576  38.6828101  78.4955270  41.9898980  39.7074347  77.6636270
  20.8713945  14.6016268  16.9067059  21.6468520  14.8141732  16.2959822
  20.1423908  15.0502408  16.4284051  43.7705346   9.4541762  20.9131617
  43.9230787   8.6488557  20.3982384  42.8961360   9.3310622  21.3126198
  23.7831627  22.4947595  12.5507716  24.0486451  23.0519585  11.7958272
  24.0682997  23.0523973  13.2937273  33.6132780  22.3512746  26.7230462
  33.3250764  21.9400602  27.5855224  34.5336094  21.9586319  26.7518440
  63.0423739  49.9938885  66.9275222  63.4925312  50.7631511  66.5314457
  63.8835758  49.4774215  67.1766308  35.6528425  13.9795816  32.2896364
  35.5957136  14.8276504  31.7187974  34.6937208  13.7070736  32.2044296
  22.5660269  14.5334093  23.3113169  22.0910571  14.7630601  22.5202407
  22.3364862  13.6157355  23.4638314  17.8832405  26.2806629  15.4670474
  17.4594066  25.7056557  16.1198593  18.1119580  27.0738155  16.0332322
  30.4128199   9.3069839  23.1537400  29.8308605   9.0216216  23.8608791
  31.2298462   9.5076366  23.6152441  24.6562427  15.1901735  24.9520468
  23.9805422  14.9878519  24.2649478  24.0999860  15.5016082  25.6596834
  30.1952004   7.2478107  42.7712807  30.3145598   7.9136618  43.4507979
  30.5200116   7.7073293  41.9607838  28.7816777  20.7892226  12.2497110
  28.3587430  21.4771533  11.7112929  29.1892651  20.2315050  11.5555271
  31.1571030  18.5590891  19.5477661  31.2093971  18.2532091  20.4629527
  30.4525407  17.9951524  19.1664330  10.6655493  23.5647957  21.2651053
  10.3156960  24.1884452  20.6255131  11.1558986  22.9644830  20.6724726
  20.3562327  16.6726898  25.5791637  19.8840833  17.2552510  26.1991636
  19.7691699  15.9199395  25.4394565  32.7530254  19.9731757  28.0538824
  33.6113474  19.5654976  27.9203627  32.7889868  20.0891059  29.0433183
  29.8433693  24.8083720  22.6768772  29.5981078  25.5775651  23.1852207
  30.2571528  24.2414853  23.3735832  28.8448020  10.2037309  28.8221479
  28.7346756  10.5848304  27.9540938  28.8554825   9.2147675  28.5401295
  17.3915527   9.0671962  32.5259515  16.7135289   9.6297289  32.0504435
  16.8215877   8.5543196  33.0810021  18.8766733  14.4180040  24.8737198
  17.9504097  14.4539427  24.5476987  18.7237234  14.1737588  25.8054714
  19.5946419  22.5090250  48.7499139  19.7377715  21.6288193  48.4270041
  18.6691924  22.6434810  48.7520312  20.5170706  12.0521041  26.2074879
  19.8044314  12.5095036  26.6483134  20.7303022  12.6236328  25.4747540
  17.0315167  16.6057463  31.4600454  16.3770549  16.4682815  32.1669364
  17.4030079  15.7173796  31.3476784  18.7466160  13.5323093  27.8006485
  17.8429444  13.4795779  28.2005312  19.2738357  13.7133042  28.6196598
  15.0571764  15.3614132  32.9771955  14.5321577  15.9045109  33.6191268
  14.3368905  15.1360793  32.3522685  27.4087250  13.8994195  22.1886409
  27.9323025  14.6409010  22.3944807  26.9449223  14.2532369  21.4000306
  33.2764950   6.5281756  36.7442940  33.8000969   6.1109523  37.4885273
  33.6847045   6.0158512  35.9980427  19.4643364  13.2409013  18.7867914
  19.1926524  14.1119279  19.1081158  20.0969849  13.5616284  18.0711697
  22.4944767  12.4128941  20.5956504  21.8243470  13.0948846  20.5369984
  23.0804851  12.5914941  19.8596691  39.5093243  24.0600550  19.0109823
  39.1274630  24.5647357  19.7599216  38.7122632  23.5863042  18.6712950
  10.1461653  12.5009602  26.8910233   9.5450569  13.2350042  27.1462612
  10.5051699  12.2880161  27.7601478  20.9281151  14.7287236  21.0537852
  20.0334710  14.4739736  21.3116830  20.8006339  15.6097420  20.7161917
  39.6609008  14.7325280  26.5565001  40.3261661  14.1571515  26.9887399
  38.8460103  14.5034733  26.9795613  43.4605015  31.5516039  20.9609891
  43.5211635  32.4145012  20.5408074  42.4715196  31.4865461  21.0030107
  45.8121770  30.1990396  17.6695137  45.3999908  29.6062617  18.3426302
  44.9141913  30.3794322  17.2135270  32.2026122  11.5202514  33.4218341
  32.2894648  11.2332898  34.3572761  31.2544750  11.3596698  33.3197125
  43.0705684  48.5292033  76.5563840  43.8437170  48.1559799  77.0018103
  42.6222430  48.9485250  77.3498235  23.8397597   5.0411198  21.5850239
  24.7759118   4.8562376  21.5621923  23.7828462   5.9273862  21.1899779
  30.7384794  11.0510878  30.4166991  30.0690256  10.6297015  29.8064396
  30.0894163  11.0746697  31.2478314  29.7519387  27.6526105  16.6730798
  29.7023963  28.6050751  16.4331579  29.7052252  27.7577355  17.6927101
  25.8627715  10.0837322  18.1123169  25.3373701  10.5684764  17.4936455
  25.5170570  10.3906408  19.0043933  32.3275585  12.5775476  28.8285501
  31.7344590  11.8696777  29.1122076  31.7206130  13.3327598  28.9169373
  34.7796793  22.4436103   4.6305644  34.6320990  21.7461895   3.9323101
  35.1557753  21.9469627   5.3518271  17.7875456  21.4797754  20.2082404
  18.6329768  21.7795077  20.6520321  17.6999000  20.5928436  20.6867269
  25.9707060  14.7532502  15.5259674  25.9805446  13.7968354  15.3081239
  26.5838061  15.0824017  14.8294915  44.2106816   0.4305981  31.0943104
  43.8241172   0.2411293  31.9528235  44.9476215   0.9938932  31.3051511
  33.4607556  15.5983674  20.1987227  33.7654572  15.0928424  19.3979855
  34.0328798  15.1975810  20.8713058  31.2525501   8.2501703  36.6729342
  31.9553570   7.6041100  36.6825149  30.4955047   7.7846171  36.2861648
  37.3064028   8.6358405  21.1305712  37.9279359   9.3113676  21.4548908
  37.8481615   8.0056420  20.5769506  38.4428289  19.2646910  14.7155796
  39.2686129  19.4667136  15.2785644  38.6011212  19.8536413  13.9349222
  43.4697358  16.8523404  23.3530988  42.8420673  16.2239040  23.7725835
  43.2555769  16.8691467  22.4231329  39.3269606  14.4725145  30.4831768
  40.3192908  14.4995191  30.4695647  39.2387340  13.4785035  30.5551809
  27.9884519  11.8879197  23.8858951  28.0451562  12.6778298  23.2594015
  27.0089984  11.9248837  24.0298577  19.7043157   2.6971271  37.7728585
  20.0194820   3.4476481  37.2078588  18.8057021   2.6475222  37.4795589
  24.2673264  15.1910316  12.7994050  23.6671885  14.6692604  12.2226985
  25.0151239  15.2975710  12.1375239  54.3847544  22.6238163  20.1433574
  53.8458176  22.2994347  20.9261863  54.9789715  21.8953169  20.0284976
  32.8959940  16.5852062  13.0674567  33.8397485  16.8666796  13.1527333
  32.6426538  16.8225103  12.1809672  23.0439782  26.8201478  10.8501343
  23.3909376  26.5985738  11.7420830  23.8978431  26.8123611  10.3171327
   3.1680072  27.6896813  25.9783104   2.8104187  26.8665399  25.5475156
   3.1014221  27.4720322  26.9005842  26.8575064  19.3829376  18.7506231
  25.8770277  19.2977918  18.8808177  26.9383533  18.7981007  17.9386244
  31.7983231   0.9276885  23.8237272  31.4239511   1.8034253  23.9985707
  31.9355568   0.6206522  24.7407128  17.3875300   7.7428464  39.6923895
  18.3239229   8.0170283  39.4615339  17.3775928   7.9328336  40.6484933
  32.8697008  45.2486037  10.4943588  32.8010277  44.7601499  11.3559927
  31.9781635  44.8918552  10.2041312  34.1405573  20.4982175  19.8835577
  33.1312274  20.5443348  19.8875122  34.2895313  21.1038484  19.1415332
  37.4197810  28.5116005  21.0819746  37.5837912  29.3901413  21.4922293
  37.9373178  28.5734065  20.2663984  35.9494819  43.8437462  10.4618096
  35.9769443  43.3514799  11.2686082  35.9791990  43.1519856   9.8070223
  36.4134704  23.4970058  21.4295288  35.6890181  22.9173236  21.7117863
  36.4570522  23.3556020  20.4838709  31.6048135  36.2513451  13.0062741
  31.1006247  36.4850081  13.8095364  31.0397140  36.6113940  12.2687622
  31.8666032  17.6338014  25.3305710  32.8551693  17.7688850  25.4021091
  31.7444365  16.9991635  26.0483548  35.1091575  32.6268246  18.0020650
  35.3221498  33.3441413  17.3304585  34.8614308  31.9030229  17.3882911
  29.7766915  34.1938266  16.9486339  29.9022414  34.5769598  17.8558194
  28.7930726  34.1532037  16.8978870  28.5631350  23.9648201   8.9418312
  28.0710725  23.3791943   9.5758138  29.3536479  23.4013548   8.8041859
  33.7788090  37.4552895  19.0840996  34.4111143  36.7949859  19.3704077
  32.9540160  36.8637087  19.0454074  35.6850369  19.4176433  23.4345526
  36.3071245  20.0554348  23.8580183  34.9472837  20.0923127  23.2369434
  57.9990017  32.7921150  23.3856456  57.4301152  32.9916710  24.1916469
  58.7934923  33.2660422  23.7402575  58.1272831  50.3120220  29.9483433
  58.6496672  49.5451066  30.3782984  58.8301189  51.0362993  30.2021513
  57.6943312  45.3879385  18.3869672  58.2657777  44.8332042  17.7874612
  56.8929863  44.8176399  18.4495335  55.1489720  54.8135531  39.1705485
  54.6993455  55.6187652  38.7885728  55.0127930  54.1153238  38.4981453
  63.7882085  43.2892413  26.9643488  63.0541910  43.1298317  27.5496113
  64.5038954  42.7387673  27.4204223  32.4572074  22.4335105  73.4694199
  32.3839201  21.5079239  73.7661274  31.5157632  22.7281687  73.6977055
  64.8329753  49.1605664  37.9545403  65.2632772  48.6357910  38.6572812
  63.9896489  48.5727149  37.8928557  73.2428394  42.1131261  31.8667796
  73.6095946  42.4379039  30.9949187  73.1968196  41.1728380  31.7216539
  56.8114282  49.6681671  18.2532308  57.7082954  49.2926387  18.5317951
  56.5930473  49.0041273  17.5635504  51.1220110  35.3561648   9.5340636
  51.6343233  36.0987672   9.2579720  50.1742246  35.7497355   9.5101915
  58.3680699  36.3573517  23.2962954  58.2460184  36.7691414  22.4309575
  57.5491487  35.7349015  23.3663564  59.9565314  66.0187285  29.6057149
  59.3703293  66.3637570  30.3684090  59.3138870  65.2875262  29.3366261
  56.3186278  61.7411694  32.7016290  56.9844716  62.4833851  32.3574270
  56.4286596  61.1976590  31.8233657  63.8175816  60.5391958  31.8490769
  64.3122206  60.9445112  31.1148590  64.1367250  61.0852138  32.6107157
  59.4688345  59.9586162  15.7413165  60.2562863  59.8348226  15.2155727
  58.8396319  59.4069067  15.2314001  53.1832150  62.7651277  16.8013259
  53.5112835  61.8050304  16.9368127  52.2632198  62.5246881  16.5293331
  54.3216105  61.9163854  23.9471562  53.4615063  62.1774295  24.4575910
  54.2582859  62.7831532  23.4047543  52.0979635  59.5811193  11.0846252
  51.5798798  60.2124880  11.7088433  52.5266547  60.2428604  10.5038203
  60.5605888  56.9304035  30.4334352  60.3228225  57.0494926  31.4102754
  61.3642723  57.4190567  30.4868313  61.5955450  69.3976209  20.8411782
  61.8000307  70.3393291  21.2223793  62.5123373  69.2855502  20.4820455
  66.8257935  57.9661032  19.1963301  67.2256731  57.7981707  18.3124478
  66.1593479  58.6268196  18.9637347  54.2995782  57.9049091  20.4252238
  55.2700601  57.7776570  20.6732245  54.3207942  58.8907730  20.2155045
  63.6709904  62.2730519  20.8414769  63.4676192  61.3442001  20.5151853
  64.5142313  62.3517863  20.3280731  69.0370887  44.3058539  28.6016161
  69.7944537  43.9489652  29.1144420  69.1996816  43.9465124  27.7022311
  53.8947001  46.3769230  16.8399589  54.5576891  47.0901602  16.8726020
  53.0687821  46.9071899  16.9493130  63.4434687  63.9863171  34.8745044
  64.0745613  64.3700424  34.2078533  63.5991895  63.0198169  34.6642439
  61.7380694  62.6751163  31.9864085  61.5456678  61.6950209  31.9920993
  62.3773334  62.6960656  31.2439869  51.2989666  64.6487828  18.5281932
  51.1714049  65.0075785  17.6003450  50.5013026  64.1186538  18.5577572
  57.0178471  65.7811787  19.5939421  56.3875761  65.0130918  19.4670167
  57.0913602  65.5887926  20.5913708  59.6801078  57.6693792  32.8037309
  59.5953466  56.8444061  33.3991901  59.1262843  58.2647423  33.3742573
  61.0920188  49.9087337  27.6859460  61.0471390  50.6771386  27.0607299
  60.2161028  49.8178224  28.0117312  60.4512939  63.8245906  33.9796230
  60.7595503  63.2345344  33.3001261  61.3106295  64.2907704  34.1949667
  59.0969351  70.9522839  40.1252199  59.4311466  70.0946597  40.4749788
  58.9116920  71.4350549  40.9068825  64.7217397  66.6809951  35.4347526
  64.7767272  66.4313091  34.4850593  63.9255145  66.2028857  35.7286479
  58.4057375  63.6796545  37.1751199  57.4643359  63.3941701  37.3157713
  58.3003798  64.5425654  37.6769554  60.6009620  48.0293421  35.4261683
  60.5068633  47.4759000  34.6673309  61.3597563  48.5858169  35.1632259
  56.4255218  64.1163108  27.2185988  56.5055588  63.5489434  26.4370509
  55.4968768  64.2758172  27.2494414  59.0421334  61.2555240  28.5625599
  59.3103205  61.5197336  27.6632188  58.3625216  60.5564195  28.3885333
  19.1631460  -1.9695707  27.3290954  19.6074247  -2.5164565  26.6198471
  18.2802916  -1.7917289  26.9248728  56.6349594  60.2064344  30.4075249
  56.9151586  59.8616638  29.5548373  56.2724774  59.3505695  30.7841812
  73.1452880  56.7561926  31.7319274  73.6659117  56.9740471  32.5029212
  72.6150475  56.0076498  32.0373520  55.0393434  63.9369792  19.3199324
  54.4886987  64.2338511  20.0869952  54.3386878  63.9144859  18.6567713
  57.5215860  63.8741170  31.7120506  56.7919498  64.5431216  31.6280095
  57.7287168  63.7515946  30.7362537  61.0327386  72.2726559  34.3953371
  60.1539347  72.2275113  34.8305621  60.8950163  72.9698606  33.7141695
  52.5146676  52.9429024  32.3042122  53.1046179  53.5714461  31.8504323
  51.9778975  53.5929463  32.8429607  65.9278847  59.8840882  25.7790936
  66.7566033  60.0973102  26.3058093  65.4466591  59.3602273  26.4301127
  60.3736408  59.0085161  26.9804802  59.4260201  59.0961998  27.2715772
  60.8586511  59.1775573  27.7877045  57.3765040  51.1326540  33.0437130
  57.6514067  50.3240391  32.5642560  56.3769665  51.0119484  33.1225554
  57.3692599  39.5573360  27.5329748  56.7248052  40.0737481  28.0676305
  56.8684846  38.7520852  27.3344356  19.8574265  11.5885122  20.7193376
  18.9519633  11.1618616  20.7778373  19.7686710  12.1846872  19.9693214
  53.8374438  55.7662421  22.4107559  53.2137886  56.0105593  23.0746256
  53.8513948  56.5153096  21.8186278  67.3296584  62.7714513  25.9514741
  67.5537656  61.9827630  26.5304078  68.2513237  63.1698416  25.9068859
  69.9382101  54.8147002  25.2276115  70.5792022  54.4220839  25.9173714
  69.7406030  55.6496479  25.6419022  65.5623405  56.4871831  32.7714993
  66.5089653  56.1637460  32.6626132  65.1482834  55.6037629  32.8787234
  53.8374613  53.3760507  21.4938557  53.9352369  54.2674960  21.8629451
  53.5579284  53.5583401  20.5996930  63.0885230  48.2239714  21.6576502
  63.6586909  48.8502120  21.2000983  63.7167193  47.6794926  22.1247681
  67.3279095  61.5192119  15.6724212  67.1572727  60.6435380  15.2265664
  67.8943490  61.2579555  16.4369496  17.5406527  43.2244236  80.2962483
  17.1296650  43.8767392  80.9611891  17.8428244  42.5805962  80.9564089
  64.3929713  56.6944448  19.9866561  64.8564499  56.6064275  20.8918642
  65.0269508  57.2660015  19.5157722  65.8727410  71.6693014  30.5243213
  65.0333527  71.7495393  30.0253921  66.4844266  71.6353005  29.7329863
  57.6331168  57.0754843  24.2371568  57.6957984  57.8137168  24.8397803
  57.5837763  57.5509635  23.3618353  42.2566821  33.3851599  85.3415017
  41.9274323  32.4344046  85.4557103  42.7500148  33.2329616  84.5020167
  59.9398217  46.0181255  28.1427379  60.3294506  46.0805051  27.2694821
  60.6167907  45.4575185  28.6339552  64.7032832  58.7909554  27.8274315
  63.9556295  59.3179596  28.1854475  64.9477890  58.3570059  28.6955652
  55.4928896  52.3550370  23.2983506  56.0524116  53.2086816  23.2989323
  54.7436524  52.6202320  22.7757690  74.8681351  54.4829492  15.6776467
  74.5612126  55.3788697  15.8759279  74.0085720  54.1118278  15.3301668
  61.7714657  65.4389842  31.5946027  61.8200748  64.5017583  31.7822365
  61.4100248  65.4115108  30.6708230  64.6626723  55.6608652  27.0001306
  64.9939564  56.5437842  27.1200070  63.7025398  55.9547902  26.7886668
  69.7493406  71.6720418  43.7826924  69.0297294  72.2946232  43.8685057
  70.5132455  72.3510478  43.8196181  63.8526661  67.3420738  39.6985928
  64.7312263  67.1716251  40.1694754  64.1788810  67.8660408  38.9645779
  71.7380529  69.8511032  45.7108457  71.9109900  69.3183664  44.8869691
  71.7874536  70.7589766  45.3904100  68.1541511  68.1484121  29.9669282
  68.4614696  67.5313695  30.6672615  67.2384116  68.3016510  30.2475649
  64.5928131  53.5184300  45.6189843  64.3321946  52.6596938  45.1443205
  64.5713549  54.1190690  44.7927295  64.8886547  64.9121833  32.8864993
  64.4111269  65.3152594  32.1536525  65.8036177  64.8659395  32.4906243
  58.1486746  63.8255716  29.1721958  58.5708593  63.0071963  28.8369220
  57.5157342  63.9706875  28.4093043  52.9389931  68.2746326  24.9031286
  53.2034531  68.8833082  25.6169796  53.7755402  68.3590555  24.3382619
  57.9282833  69.3868681  26.0386314  58.9230321  69.3245710  26.2061162
  57.9002675  68.8574122  25.1940785  53.1410238  67.8830856  18.3291782
  52.8071307  68.7954961  18.3228090  52.9565301  67.6567506  17.4004563
  62.2251081  68.5112297  29.7014390  62.5806685  68.4275204  30.5713921
  61.5805158  67.7803518  29.7105644  53.4747006  83.6749733  31.7747651
  53.1966932  82.8811789  32.2472822  52.8456974  83.5074563  31.0197593
  51.1444597  56.9941225  11.2957877  50.4352613  56.8998211  11.9580232
  51.0331783  57.8916902  11.0141865  42.6342534  25.7958802  74.5886181
  41.6500956  25.8875185  74.3448255  42.5085179  25.3157827  75.4322030
  60.8605553  57.3302153  17.0292456  61.2484487  56.9844396  17.8517601
  60.4254479  56.5201410  16.6679114  56.8287709  54.7276900  23.2127580
  56.4849041  55.3937008  22.6149546  57.1450035  55.3451777  23.9473160
  76.5921777  50.9225881  32.8900603  76.3083674  51.8509895  32.7143786
  77.3981321  51.1372013  33.4505635  66.2353996  64.7901515  28.0556798
  67.1541935  64.9825360  28.3024424  66.3618299  64.0418366  27.4581407
  45.0593176  22.3032289  79.1307534  46.0006400  22.6555191  79.2030725
  44.7505549  22.7447259  78.3433529  62.5487177  50.5047722  18.9013835
  63.2900530  50.2196780  19.4345005  62.1114905  49.6546312  18.7371967
  63.0517244  51.0746456  29.5073911  62.2768164  50.7414521  28.9372241
  63.1067398  51.9560413  29.0631899  60.3168346  60.2001089  30.9577484
  59.7261233  60.6798721  30.3842125  59.7270745  59.5061661  31.3157755
  63.9118762  69.3697512  27.6365209  63.2193620  69.0804428  28.3292909
  64.7132919  69.0807380  28.1714988  60.6706009  63.0085278  15.4847015
  60.3665159  63.3003989  16.3633183  60.0668816  62.3883787  15.1800842
  61.2299584  56.8232430  50.8110785  60.9656754  56.2621372  50.0123589
  60.3584430  57.1980818  51.0648021  47.0146602  63.2623368  16.9579872
  47.2900110  63.8816873  16.2264216  46.0553375  63.4780223  16.9125708
  54.6577665  73.1789728  28.0658849  55.1150922  73.5124221  27.2813300
  53.8629624  72.8224428  27.7387886  43.8707449  70.7848351  35.5376982
  44.7809055  71.1461117  35.4378463  43.7930399  70.6954388  36.5197446
  61.9709353  60.4082259  24.4829228  62.5337070  59.9339061  23.7725847
  62.4827909  61.2655472  24.3893144  42.0264412  28.3969461  81.0856972
  42.9416461  28.1169591  81.1471552  41.6486899  27.9881900  80.3446676
  63.0889691  71.9715748  29.4054931  63.0474238  71.5747580  30.3232964
  62.1627887  71.7315446  29.1212896  37.3124754  35.9679114  81.9842285
  37.6412155  35.0950273  82.1706196  38.0533302  36.4339002  81.5293097
  56.5113453  47.4396977  16.6100751  57.3153204  47.7865604  16.1502164
  56.8876946  46.7792124  17.2242780  57.9129600  46.5189040  24.0232120
  58.0655219  45.7282570  24.6158395  57.7496387  46.1151876  23.1841058
  59.3543808  61.8382216  26.0287661  59.7071090  62.7424491  25.7947589
  58.4989604  61.9172380  25.4920962  53.2634374  33.0983116  81.0646531
  52.3316560  32.9732206  80.8464021  53.2931097  33.9137095  81.5539681
  62.8879315  54.0750680  24.6651272  62.9211015  54.9767173  25.0216181
  63.2182521  53.5561465  25.4308442  74.8820347  67.2611441  25.0503649
  74.6117449  66.3851659  25.3237447  75.4348455  67.5014576  25.8751561
  46.9559199  33.8845500  81.2932184  47.4922726  34.4781483  80.7782825
  46.3602030  34.4894558  81.7837829  59.9566603  63.1518470  22.8115176
  60.8293153  63.0715392  23.1831274  60.0804325  64.0156268  22.3621447
  52.2227521  62.4040108  19.8530368  52.3549373  63.0663266  19.1283276
  51.3958727  62.0504504  19.6251629  62.0076233  63.6253280  37.0059970
  62.6041473  63.6738124  36.2582784  61.6933367  64.6149422  36.9326814
  60.2061297  60.9053571  43.5957418  59.3878779  60.6556005  43.1785181
  60.3125202  61.8670996  43.2836348  58.3812291  56.9913606   9.6140966
  59.1278558  56.6665187   9.0505474  57.6273308  56.4606736   9.2108304
  68.2027178  56.3438342  28.3642167  68.2999129  57.0986844  28.9746003
  67.6329758  55.7370381  28.7320757  61.1900388  74.0094099  42.5158458
  61.2079214  73.0182910  42.5758417  62.0748854  74.2110976  42.9657275
  70.1281375  64.9449208  32.0764396  70.9088329  65.5458177  32.0420398
  70.5899231  64.1441786  31.6397669  63.4289859  62.9104679  29.6062007
  63.0937485  62.7956692  28.6930905  64.1041690  62.2361406  29.6962710
  58.0224942  54.5666686  20.3301992  57.2876298  55.0710283  20.0102338
  57.5511299  53.7675677  20.6287562  62.8664081  51.1233739  32.9020319
  62.8638938  50.3431319  33.4670723  62.8978542  50.6280968  32.0396035
  68.0823258  67.6523858  33.1226374  68.0387189  67.7839369  34.1205304
  69.0145603  67.9700223  32.9810787  56.2627023  64.8541692  41.4115180
  56.8681985  65.5993733  41.4747188  55.6167654  65.2915734  40.8050614
  56.0222630  57.8925361  31.3035553  55.2082867  57.4417652  30.9846829
  56.6487284  57.1724722  31.1150351  43.6012650  75.7496548  20.5069440
  44.0676618  76.4474530  20.8963481  42.7307403  76.1150182  20.4098666
  71.3262463  60.9236394  17.1355964  71.1893216  60.5972102  16.2465664
  70.3795671  60.7479697  17.4800257  74.8201050  66.1892523  22.1290083
  75.6170471  65.9071873  22.5939656  74.7394815  65.4440195  21.4473362
  52.6011876  45.3047252   8.0332057  52.3491173  46.2019092   7.9007119
  52.9377168  44.9857513   7.1966483  53.7988798  54.9957040  31.2374258
  54.7619338  55.0628176  31.4077638  53.6373408  55.8938843  30.8886679
  65.4024565  51.3015859  15.6197017  64.5127201  51.1834468  16.0094806
  65.1584087  51.1692213  14.6649127  72.0338472  63.7137636  28.8067672
  72.8901214  63.5107099  28.4199476  72.2647887  63.7144433  29.7258980
  67.3925470  57.5852824  36.6445175  67.7531600  58.1664968  35.9697242
  67.6268661  56.7030440  36.1298544  54.4720374  68.4918138  41.5212543
  54.5397022  69.3715070  41.1857559  54.3193186  68.7814174  42.5262121
  49.1752690  49.8833414   6.8756186  48.7214449  49.1336568   6.4355591
  50.0624573  49.8762670   6.4637611  70.6345743  52.7185776  29.4399258
  69.8511328  52.5061451  28.9157658  70.5312414  52.1063849  30.1963952
  61.1342304  51.6642284  22.7843970  61.2926839  51.0077259  23.4714204
  60.3309683  52.1623605  23.1966288  59.0402946  55.3366901  16.4219915
  59.4663665  55.1166912  15.5256017  58.3616865  54.5691737  16.3398690
  67.9138089  60.1865711  31.9558164  68.6704045  60.3111967  32.6087393
  67.9037462  61.0266669  31.5512319  61.8260605  38.1668175  24.8817334
  62.2708923  38.4327693  25.6945405  60.9615566  37.9376394  25.1711707
  63.5981931  52.2453794  26.7900136  62.6400940  52.3538865  26.6991339
  63.6960590  51.3099851  26.7789135   1.8601207  62.4429003  19.5032802
   1.4020814  63.0855997  20.1373548   2.3350373  61.9222853  20.1915985
  74.7132631  58.2952722  26.3700175  75.0068820  57.7364780  27.1145558
  74.9546988  57.7107278  25.6266073  58.3609478  60.9254327  22.7127658
  57.5984055  60.9623792  22.1218461  58.7969300  61.7821186  22.4502619
  63.4359281  69.0997589  42.4537246  64.4074602  69.0514981  42.4306885
  63.1587981  68.3311935  41.9258437  44.3639592  31.4792186  82.0601819
  43.7149565  31.2093540  81.4346487  44.2128957  30.9116082  82.8315028
   4.9076670  66.2381261  22.3015659   5.3474014  65.6908387  21.6202591
   4.5885245  66.9920212  21.7250116  37.7111225  31.3946329  76.9413433
  37.1795424  30.5945885  77.1813812  37.9647217  31.1649434  76.0150982
  64.6594067  65.7969258  26.1335997  64.5665769  66.6296825  26.6294917
  65.0542283  65.2613197  26.8606665  51.8364084  63.8083077  43.7543985
  51.7475465  63.2682496  42.9472654  52.6123678  64.2810997  43.6088610
  54.3326870  49.4119951  19.8734739  54.6269156  48.5988166  20.4097789
  55.1807972  49.6323039  19.4832598  22.6277659  27.2549940  71.1624945
  22.3885883  26.4520629  71.6478809  21.8334678  27.7834705  71.3608039
  62.1801886  34.4637254  21.3100678  61.3790565  34.4553762  20.7229763
  62.0570888  35.2703353  21.7372754  68.6969430  71.2795015  24.1262782
  69.0015528  70.9898179  23.2167913  69.2377792  70.6980494  24.6906357
  52.0235068  84.3806942  26.8809061  52.2033931  83.6650435  26.2883739
  51.6244824  85.0215058  26.1801958  65.5441927  70.6909220  22.5370674
  66.4547745  70.6984940  22.8994526  65.1207659  70.1296187  23.2176802
  21.3899178   1.1737406  29.5446246  20.9924880   1.8305571  30.1775697
  20.8468395   1.3762096  28.7902700  69.7601123  70.0646901  28.6719332
  69.4209539  69.3181268  29.2447023  70.7649823  69.9373582  28.8801437
  23.5837693   1.9867559  28.4913496  23.2161900   2.1968888  27.6339017
  22.8247778   1.5737426  28.9727516  72.4743754  66.1048429  34.0506298
  71.6575756  66.2463969  34.4886280  72.6218352  65.1310030  34.0762012
  70.9210399  67.5706871  20.6808822  71.2752196  67.1760457  21.4722027
  71.7598204  67.9890688  20.3360375  28.6221460  -3.1100562  42.2331476
  29.1617961  -3.1327566  43.0585160  29.0809573  -2.3349364  41.8567735
  66.7188152  71.8277376  25.7393640  67.1408656  71.6499837  26.6300870
  67.4713687  71.5707978  25.1534837  25.3707075  -2.2721680  39.6012563
  24.9762885  -1.4310240  39.9633672  26.3161438  -2.0963365  39.8248509
  25.0165490   7.8191680  26.9346045  25.2216023   8.7246109  27.3658279
  24.0979621   7.6924802  27.1692250  16.6644193  15.1005345  43.1234671
  17.5406320  14.6814685  43.0001060  16.2222649  14.4366006  43.7144971
  21.8604567  -3.6915417  33.4455182  21.8250227  -2.7643623  33.1025142
  22.7669660  -3.8816153  33.5276018  22.3253324   1.6812009  32.6459776
  22.5252951   2.2147136  33.4549621  22.6427887   2.2766356  31.9709487
   5.1408608  67.7556492  28.5632253   5.9656009  67.9208747  29.1359114
   5.5372834  67.0089759  28.0310627   9.3334897  16.7830214  32.3979647
   8.4835450  17.1759950  32.6232186   9.9290148  17.5378557  32.5048209
  39.0533329  36.6371382  74.6852540  39.4084204  36.5983496  75.6018945
  39.8633368  37.0550434  74.2606666  68.8890614  69.3772357  42.7931019
  69.6965400  68.8996878  42.6407948  69.2939511  70.2115823  43.1947433
  56.8329461  80.1754885  26.8237076  57.0505309  80.7099696  26.0745283
  56.8917180  80.8611285  27.5530133  74.3168161  63.3032674  20.8429652
  73.9601257  62.4692636  20.4108741  74.7618728  63.7269964  20.1135899
  40.6477670  33.0807129  76.3699081  40.6859296  33.2279092  77.3490844
  40.4614331  32.1104766  76.2872707  58.2263473  74.6128557  36.9001100
  57.6839921  75.2289255  36.3230864  57.9076141  73.7347223  36.5406299
  26.5205229  32.4117441  75.9412882  27.0668459  33.0211065  76.4069723
  25.8775126  32.0211384  76.5407205  67.5748327  65.1260812  32.0496097
  67.5030441  66.0852706  32.2204775  68.5623661  65.0526446  32.1309516
  54.0141440  82.1809906  40.6258540  54.7031391  82.3217619  39.9606047
  54.4546320  82.5714517  41.4530133  28.6047840  -0.4693704  37.0919897
  28.3789728  -0.6538545  38.0226519  29.3787782  -0.9872388  36.9475686
  53.3936550  76.5694066  19.3912707  53.5891267  77.4066092  19.7868352
  52.4451867  76.5647835  19.2490003  33.5206216  18.5513434  72.2090630
  33.8341680  18.9743151  71.3665134  34.1984319  17.9662365  72.4889399
  68.3858892  66.5083543  27.6347032  69.2895862  66.1609858  27.7734799
  68.1801586  66.9917736  28.4274601  27.4083304   5.8903736  25.3223342
  26.6909745   6.2902506  24.8345888  27.5105396   5.0097686  24.9076137
   0.7885796  62.1374892  27.6381754   1.5613000  61.9189735  28.2263516
   0.1875713  61.4361744  27.8980565  48.4202442  33.8524773  83.8928897
  48.4614137  32.8598355  83.7576190  48.4097284  34.1152667  82.9940231
  23.3795068   4.9901180  24.3851397  24.0235590   5.7785795  24.3535931
  23.3293684   4.8621863  23.4009788  77.2863222  65.1263429  26.0095442
  76.8811428  65.8733056  26.4792977  78.2233831  65.2494087  26.3031322
  76.2348130  67.9971099  29.9937379  76.9581274  67.6623081  30.6408894
  75.4888479  68.1700821  30.6211578  61.8874125  75.9151086  23.1414669
  61.5756431  75.7584711  24.0362130  61.1990187  75.6058308  22.5779993
  42.4467313  37.1590828  78.3094647  43.0454263  36.4152630  78.0285609
  42.5089274  37.0596996  79.2602960  15.0437476   2.0071803  25.0945267
  15.5569398   2.5857669  24.4731736  15.1958683   1.1523832  24.8312597
  40.7233016  40.4975060  81.0203695  40.4614974  40.8073873  81.9032568
  41.6095463  40.0807229  81.2560057  13.0429832   6.5370783  38.0281336
  13.7892788   5.9881739  38.4446259  12.2978660   6.1510626  38.5473031
   0.3797400  12.2683548  28.5242502  -0.2149325  13.0120713  28.3017459
   0.1568953  11.6425292  27.8337762  57.7959373  62.2349641  40.1401999
  57.3897820  62.9327881  40.7220968  57.4527670  62.5212247  39.2492934
  62.0020211  69.6230210  34.3214575  61.7243008  69.3567172  35.2419485
  61.5346853  70.4360455  34.1906605  18.9391490   1.1674442  28.3071753
  18.5646974   1.4872241  27.4510452  19.0695197   0.2311519  28.0269903
  64.2340030  69.2995620  20.2291939  64.6997063  69.8813324  20.8833401
  64.3331606  69.8174198  19.4096300  19.7839464  -0.0989036  36.0091278
  19.5961234   0.7352033  35.4872399  20.7396124   0.0261742  36.2156429
  61.5884805  76.4446010  34.4343012  60.8810190  76.7955697  34.9404473
  61.8532568  77.1834318  33.8097539  55.9273338  68.9812137  18.9629274
  55.0942230  68.5756317  18.7750372  56.2313714  69.2456076  18.0272138
  60.8552393  70.8399702  28.8304859  60.1971199  71.2325978  29.4203789
  61.2861006  70.1307788  29.3238110  76.8606420  58.4168109  40.7201199
  77.6143268  58.9131221  41.1590823  76.6253925  57.9080677  41.5407731
  64.1168829  71.9975457  26.1227051  64.0780326  71.2595378  26.7467512
  65.0745548  72.0302625  25.9385661  27.6479639  -0.7621366  39.7725652
  28.1487971  -0.8607775  40.5781394  27.6937950   0.2490612  39.7083581
  70.3271408  68.7469617  32.3619330  70.8655419  68.7100105  33.1925450
  70.3342358  69.7028194  32.2459453  58.4662148  71.9115755  30.1521787
  57.5890910  71.9353253  30.6446453  58.1191743  71.9301815  29.2400299
  52.8075770  65.2431505  20.6787741  52.1446809  65.0181583  19.9842061
  52.7029077  66.1726343  20.7303279  50.0492524  80.2517569  39.9346094
  49.1449741  80.4863215  39.6768716  50.5615410  81.0477010  39.6517590
  70.6150913  72.5800646  37.5134514  71.1170178  73.0767477  36.8551168
  71.3613628  72.2844007  38.0949562  55.4757975  72.0214363  17.3758592
  55.0910719  72.7996359  17.8720763  56.4074794  72.0615693  17.7519582
  20.7582732  -2.8727514  25.1589710  20.7975957  -2.6686691  24.2300874
  20.5889249  -3.8730327  25.0951817  74.3468065  67.2605255  32.4117441
  73.6495293  66.8417653  33.0113712  75.1269279  67.1598273  32.9336886
  15.9002198   5.2417901  26.3835639  15.6424069   4.9109451  27.2575674
  15.8894126   6.2362621  26.6333729  58.3138397  62.3572269  14.1100121
  58.8613300  61.8068171  13.4734621  57.8543428  62.9394177  13.4865232
  65.9678504  58.9712627  33.7383101  65.6719467  58.1026906  33.4873378
  66.5378597  59.2323798  33.0014882  65.8872806  69.2743542  32.6025445
  66.7030553  68.8001366  32.6094260  66.1579607  70.1729478  32.3008317
  56.0430310  73.0750432  23.6259851  56.1395757  72.9017510  22.6554582
  55.8602574  74.0053314  23.5714260  58.2709245  78.4765011  33.0408416
  58.8785388  78.1704785  32.3398030  57.4076175  78.0099142  32.7814085
  71.9989795  64.5322933  20.8967578  72.8254691  64.0506114  21.1189431
  71.9118701  64.1126173  19.9726590  24.7979905  -3.7299286  29.7397716
  24.3354473  -4.4680436  30.0469740  25.7118358  -4.0733664  29.7712118
  16.6656397   5.0752883  33.4787867  16.0910113   5.2966607  34.2566142
  16.1533537   5.4221759  32.7414076  60.6495636  65.7615682  22.1190859
  61.3370236  65.8963425  22.7643712  61.1419065  65.2898780  21.4143097
  72.0100501  66.9304382  23.0206877  72.8630040  66.5098683  22.8102842
  71.7340953  66.4165024  23.8428577  14.0013608   9.3582401  38.1332948
  13.3241918   8.6314486  38.2694353  14.7372680   8.8201804  37.7428944
  51.9716693  83.3847294  29.4813562  51.7295940  83.7959404  28.6553054
  52.5939299  82.6687825  29.1922396  68.2672526  62.7477075  39.3917939
  68.2311423  63.7214813  39.7078615  68.0541834  62.3179664  40.2624843
  18.8252600   5.4429027  28.7095071  18.1501085   4.7682002  28.4093332
  18.2115922   6.1445698  29.0887154  56.5027547  74.5337217  26.3800557
  56.8684974  73.8819456  25.7975992  56.0666082  75.1443351  25.7035280
  72.6286157  68.9064459  25.1061878  73.2226891  68.0868635  25.0637168
  72.1242572  68.7347456  24.2985307  61.8383227  71.3321728  24.6290203
  62.5725006  71.6992588  25.1556725  62.3329524  71.2898036  23.7160892
  73.2058238  60.9938396  19.4686734  72.7490697  60.9351165  18.6198065
  72.4821944  60.5442780  20.0610737  47.6170026  34.0276577  86.4907919
  47.8174810  33.8573345  85.5070559  48.1083913  33.1861741  86.7859762
  62.6187280  58.0316069  31.9031543  61.6881062  58.3501889  31.9903502
  63.1071047  58.8904549  31.9756310  64.1068489  74.5720156  29.5917006
  64.4831230  74.5772595  28.6894046  63.5850313  73.7502452  29.5775908
  65.6143511  70.8966957  36.2887470  66.3525723  71.4485837  35.8705619
  64.8117680  71.4552283  36.0044033  76.3298521  57.4290792  22.5113594
  75.4825991  57.3433487  22.1619122  76.9135992  57.2405415  21.7233190
  41.0749234  33.3080636  81.3703240  41.4288576  33.2302763  80.4446461
  41.9666579  33.6692767  81.7478800  13.6598570  12.2088463  42.6320856
  13.6330007  12.0100591  41.6790909  13.4970271  11.3066667  42.9959158
  62.2848322  71.7951526  21.6093327  62.9989629  72.4340449  21.7182800
  61.5387194  72.3542890  21.2643397  27.6079904   3.6471394  18.1316388
  27.2792852   4.2788340  17.4093312  28.2582652   3.1475042  17.5817127
  34.8827367   8.0981289  27.8047254  34.1765850   7.4582592  27.9375253
  35.5964071   7.6240280  27.3661632  58.4824688  77.4580088  43.0870834
  59.2531106  77.0724814  42.6554361  58.0439637  77.9590945  42.3897605
  40.2365167  36.2625183  81.8826058  40.4169683  35.9483442  82.8206342
  41.1747643  36.1856606  81.5568873   3.7158525   9.1522319  31.9779114
   2.7606355   9.4318287  31.8924940   3.5637937   8.2497339  32.3528748
  22.0400608  10.2909973  31.4139892  21.1530146  10.0506986  31.7349723
  22.5723348  10.2432751  32.2100258  23.0041413   1.1644704  21.8098437
  23.8957010   1.6538718  21.9058294  23.0417899   0.7688624  22.7409230
  47.4104601  77.6204801  34.8132897  47.0647541  76.8176685  35.2543294
  48.1426182  77.8263542  35.3860963  67.4324521  67.5591019  25.2371481
  68.1154507  68.2200693  25.0107990  67.8150460  67.0537215  25.9691125
  73.7747127  60.6682614  27.0113496  74.4108467  60.6614437  27.7877604
  73.8687751  59.7607330  26.6961426  14.3364487  15.0142361  41.6863972
  14.6378168  15.7203072  41.0812350  15.2133348  14.6686698  41.9773384
  52.7770446  40.0761137  75.9788372  51.8553454  40.0164387  75.7192570
  52.8835963  39.1910960  76.4528009  29.5530817   6.8072196  18.1926543
  30.2924482   7.1722944  17.6730012  28.9041527   7.5192358  17.9559619
  25.4905707   2.0964076  22.2588571  25.8470193   2.9172501  21.9173782
  25.5604201   2.2605906  23.2452337  38.2340517   1.2855628  27.6084515
  37.3136894   1.5908405  27.6777502  38.6965429   2.1322405  27.7757146
  24.3092501  -3.9325228  25.2513647  23.6304433  -3.8818205  25.9547127
  23.6775989  -4.3055460  24.5475637  32.2652060   7.5504701  25.4534660
  32.2151837   6.9275628  26.2523217  31.3233487   7.4304929  25.1615744
  35.6758609  10.9734536  12.3648725  35.8496129  10.3056170  13.0565917
  36.4360194  10.8941930  11.7889851  27.1654616  -5.5580718  29.8940123
  27.3719299  -5.5432961  30.8380673  27.9292722  -6.0672620  29.5643466
  15.8753853   7.9749361  26.6753681  16.2469030   8.8531105  26.6371620
  15.7341994   7.9465071  27.6583582  12.2167537  62.1979270  25.7808076
  12.5259130  62.2032599  24.8531784  12.4525865  63.1134102  26.0609295
  30.0203397   1.0156460  18.0155346  30.2734396   1.8927018  17.6502150
  30.7859234   0.4803759  17.7972089  36.7488073  -1.2891906  28.0231775
  37.0233535  -0.3666199  27.9020485  36.2036601  -1.1719547  28.8592516
   6.5038030  66.8487179  24.6574115   6.3786127  67.8128137  24.6261046
   6.0365452  66.5866244  23.7933352  35.4730108  -3.1582607  26.4919772
  35.0936192  -3.5063986  27.3227975  36.2350921  -2.6585555  26.8900513
  26.3735892  -5.9374077  27.1757702  26.5544676  -5.1836817  26.6449054
  26.6140944  -5.7139163  28.0634010  46.7650205  45.8242675  80.8534743
  46.7071627  45.0513916  80.2896480  45.8330856  45.9244088  81.1217658
  58.6331361  17.2168680  27.6855323  58.6585958  17.9524874  28.2782835
  57.8480215  17.4762723  27.1153983  57.1815953  57.4025914  67.0872576
  57.8964133  57.4366601  67.7794158  56.9883255  56.4129820  67.1560197
  37.8034616  14.1150868  20.9057489  38.3804159  14.1804591  21.6673837
  36.9359678  14.2897608  21.3808249  35.1542103   8.3058811  13.6003090
  34.2530148   8.6605055  13.4369363  35.2901388   7.7332179  12.8293301
  46.7812850  20.1891547   4.9060876  45.9590562  19.7842354   5.3137975
  47.0502034  20.8272648   5.6004133  38.7087652  18.8368952  24.0311520
  38.7276129  18.6982633  23.1201304  37.9885755  19.4903104  24.2214630
  69.1987840  49.5436996  64.3269938  69.1464147  50.0208398  63.4709799
  70.1543752  49.4721940  64.4116764  26.6136026  76.1297917  24.8212009
  25.8199858  76.5729958  25.1708279  27.0823755  76.8595689  24.3366400
  43.7744390  16.9327472   9.5216359  43.5323374  17.8062240   9.2286333
  42.9625178  16.4529873   9.3554732  16.7188472  69.7506085  19.6512863
  16.7517305  69.1717898  20.4673669  16.8026037  68.9684694  19.0045655
  50.9972113  20.4759161  23.5078732  50.8143624  20.5471690  24.4562383
  50.5415759  19.6091090  23.3355363  63.5855139  52.9985684  69.5943963
  63.9817905  53.8337224  69.9676022  62.6955502  53.0551783  70.0003452
  51.5363257   8.5870431  14.7664970  52.4779878   8.3263567  14.5619663
  51.4862417   9.4214550  14.3085262  58.6150859  48.6077984  73.9011043
  57.8559978  49.2389943  73.8723925  58.1986122  47.7648417  74.0602292
  54.1961019  61.6590472  61.6823166  54.7897437  62.2992106  61.1085661
  54.8676344  61.6388363  62.4548262  38.9805247  10.4797443  17.5121870
  38.4418571  11.0675579  18.1928974  39.8557128  10.8357115  17.6848369
  48.6804230  17.8289304  17.7595193  48.7504299  16.9962021  18.2647406
  48.5730597  17.4438717  16.8519688  35.2560636  18.1555416  19.7649457
  34.9818816  19.0752976  19.9228077  34.5242858  17.6474367  20.2136843
  24.9164531  29.1006941  19.4512195  24.6203568  29.1389920  18.4455110
  25.7766585  29.5450589  19.2584832  39.1678401   4.2166573  27.9114556
  39.4407520   3.8934068  28.7709245  40.0518102   4.5818454  27.6346162
  48.1516392   9.3944206  33.1553305  48.9174166   9.5087012  33.8111669
  47.6579353  10.1699683  33.4032682  49.5159108  14.1055889  14.5239980
  49.8346811  13.2587043  14.2502921  48.6875577  14.2124175  14.1319276
  47.6996594   5.8176884  25.8645856  47.3691064   4.8641868  25.8097975
  48.6402075   5.6472790  26.0437063  43.7475698  10.6846544  16.2250258
  43.6713339  10.9737591  15.3414851  43.5490028   9.7297462  16.1958742
  53.5525368   5.5529523  20.9712358  54.2220394   6.2574187  20.7825990
  53.6228236   4.9446851  20.1923694  34.7295590  18.0505388  25.3939692
  35.2713390  18.3824659  26.1580375  35.2112948  18.4358722  24.6304959
  58.9442832  56.8777819  69.0119753  58.9654253  55.8694780  68.9200195
  58.9121278  56.9589301  70.0017720  39.9149611   9.7239589  34.3547056
  39.8340839   9.7432755  35.3594494  39.0890868  10.1814034  34.1805359
  47.5368938  14.5583261   5.7908425  46.5977122  14.2936561   5.8830269
  47.4513278  14.9379582   4.8787730  37.3756367  10.0980497  27.7924257
  36.6059306   9.8871490  28.3367613  38.0095672   9.3549198  28.0252066
  28.2313509   8.9083049  17.4078531  28.6204957   9.4023447  18.1415865
  27.3112755   9.3235731  17.5592373  45.2871457   5.0712335  13.2471310
  45.9659718   4.3619159  13.1862084  45.2625482   5.2297846  14.2436287
  50.6229352  22.0144412   4.4522274  50.2280811  21.1959479   4.9235847
  50.9106777  22.5637986   5.1707501  50.6907946  32.4121824  80.0035078
  49.9180775  32.8229997  79.5534308  51.1877584  32.1301003  79.1354975
  50.7785998  48.3714987  77.8129656  50.0327819  48.3424220  77.2253727
  51.5493165  48.4917454  77.3058151  37.5694639   3.2231778  32.3294572
  36.8318447   2.7562244  32.7918256  37.0060754   4.0777115  32.1835713
  20.8984729  12.7513787  14.4050123  21.4633288  13.5515531  14.2200360
  21.1753030  12.5755129  15.3639895  42.9657745  12.4018933  21.7124722
  43.8368199  12.9074230  21.5200716  43.3673005  11.4771091  21.7601547
  58.8922891  59.5801373  66.5092195  59.1590005  59.8947345  67.4249503
  58.0689764  59.1837673  66.6643163  45.8258670  18.3496105  23.0433592
  45.7889880  19.3362940  23.2264490  44.8845966  18.1247335  23.1780228
  34.5954125  13.7142343  24.7568004  34.9205997  12.9029799  25.2204376
  35.1345799  14.3646150  25.3178781  40.4999821   2.6041614  24.3551694
  40.9788828   1.7877268  24.7666705  40.6560751   2.2892615  23.4061115
  39.6389989   6.0636184  10.3353177  39.7636335   6.4209152  11.2685264
  39.9361109   5.1523371  10.5116482  41.9986590  13.2528821  12.2880024
  41.9063032  12.8319152  11.4088515  41.1202320  13.0243883  12.6574916
  49.7272190  14.5483041   2.5750689  49.8974417  15.1295440   1.8048990
  48.9280645  15.0110793   2.9722951  41.8510662  17.2116726  15.1364198
  41.9394531  17.6609419  14.2438383  42.4814419  16.5038999  15.0405783
  45.6986524  10.7777439  10.7857503  44.9042645  10.2067162  10.9581047
  46.3694095  10.0196929  10.6601073   3.3923728  59.1276777  50.3038814
   3.2835697  59.1920744  49.3310083   3.2653336  60.1143339  50.5309368
  38.0498747  21.3649315  17.9757023  38.3673816  21.6943337  17.1012455
  38.1370230  20.3712733  17.7848170  49.7735378  13.7561594  17.7313238
  49.1213477  14.4297464  18.0506649  49.0748676  13.1666323  17.2754382
  52.8214219   5.2939283  11.5111910  53.3927244   6.0130938  11.8083558
  52.6816297   4.8112326  12.3664155  69.9210900  47.5976415  67.7645617
  69.9663662  47.9022351  68.7239344  70.0191442  48.5178337  67.3192575
  60.6481564  44.2480195  72.8737650  61.6638855  44.1593375  72.7460054
  60.5493708  45.2083710  72.9274372  61.4537546  56.8075912  67.3381715
  62.2903635  56.3575295  67.2252743  61.4643981  57.0179383  68.2839424
  70.2698258  40.0995286  73.3792252  71.0876204  40.5206300  72.9984476
  70.1316155  40.6157725  74.1922166  32.1997817  11.0484523  13.5777101
  32.4956446  11.8259329  13.0888909  31.9680214  10.4055255  12.8852608
  40.5715208   0.0496189  15.1159780  41.3972789  -0.0408321  15.6582465
  40.1368849   0.8436861  15.5026079  54.3675381  12.5478997  21.0419334
  54.8751131  13.2174378  20.5861944  54.7914271  12.5456218  21.9136326
  54.5162909  18.8761925  10.9589040  53.6785244  18.4195543  10.6888236
  55.0165537  18.1173806  11.2998077  45.5572254  17.2258475  11.4460057
  44.8904827  16.9990421  10.7565127  45.2562521  16.6580717  12.1807070
  34.0159004   2.9643409  21.6043006  34.1328229   3.6211064  20.9154114
  33.2857355   2.4358439  21.1840492  46.6725459  22.2934947  16.0268023
  45.6816166  22.2205877  15.9358193  46.9198153  21.4300292  16.3318273
  38.5685027  21.0383135  20.8052867  38.5933030  21.1824615  19.8452211
  38.0016759  20.2475855  20.8740364  53.6648013   3.8995917  23.2738523
  54.0296415   4.5538801  23.9210246  53.4394294   4.5024921  22.5339320
  46.9276388  13.3382561  12.9108103  46.5731414  13.6415829  12.0591182
  46.5095416  14.0022637  13.5366120  37.5187748  18.7103985  21.2083643
  37.0188439  18.7864310  22.1005797  36.7421157  18.4825760  20.6845808
  40.0513661  21.8852022   3.3039376  40.7555534  22.3267173   2.7089033
  39.7436556  21.2169560   2.6194216  43.9603290  17.8290674   2.7650358
  44.5239945  17.8609743   3.5476616  43.5903975  18.7816203   2.7622496
  52.0880904  49.4916715  75.6595448  52.3991342  50.4249650  75.5952654
  52.9822687  49.0233285  75.5270664  33.1666732   5.2789666  14.8969473
  33.4850017   5.3249444  15.8398370  32.7565619   4.3830645  14.9261199
  45.9109662  18.6666369  26.4699557  45.7418551  17.8699698  25.9679294
  45.0888926  19.1748103  26.2422166  35.3213345   1.4833819  27.4849597
  34.4416028   1.1033618  27.3351875  35.0617045   2.1244109  28.2030563
  35.3995961  17.7366935  13.5188846  35.3838886  18.4215123  14.2431338
  35.8903615  18.3516262  12.8562196  49.5744084  17.7779131  12.7374920
  49.4508908  17.0500024  12.0615590  48.7118342  18.2114994  12.6448596
  29.6103429   0.0399444  20.6752708  30.1173116   0.4111555  19.9342731
  29.1184949   0.8436936  20.9601608  29.4054094  11.9976489  17.1606240
  29.2575981  11.3711674  17.8755538  30.2622503  11.6611708  16.8028566
  33.9011681  12.9812447  12.3994529  34.5702506  13.6356721  12.1983089
  34.5023980  12.1631594  12.4007748  50.9586944  10.9429514  22.3626258
  50.1201608  10.4645560  22.5439838  50.7058435  11.4608380  21.5793747
  35.3991307  16.7682206  17.4846971  35.3906567  17.2366001  18.3243314
  34.4577454  16.7738405  17.1893923  40.0579731  21.8915151   9.8283419
  39.0880362  21.9135372  10.0188140  40.2894308  22.8391952   9.9639173
  41.8608617  17.9487032  12.2571667  41.4466638  18.4075618  11.5400590
  42.5981749  18.5613932  12.5362234  29.2183444  10.2356786  19.4889298
  30.1192716  10.1009815  19.8168578  28.6240093  10.1780384  20.2911869
  50.6315831   6.3130916  15.9300175  50.8878037   7.1856021  15.5353407
  51.5372296   6.0440461  16.2380707  64.1331562  41.5497875  66.2581843
  64.9369431  41.7411971  65.7387782  64.3433168  40.6362123  66.5801133
  53.8084975  14.9874439  25.3682225  53.4567947  14.6576375  24.5284857
  53.1326400  14.6562729  25.9799593  38.4632325  18.7046956  18.1475034
  38.1419160  18.9034978  19.0823781  38.6914264  17.7442945  18.3438617
  38.6251211  15.4772439  10.3819030  38.5951194  16.4056674  10.5638704
  38.8710019  15.1464150  11.3055308  32.5876451  11.4982931  25.7817754
  31.9725826  10.8643630  26.1834982  33.4526156  11.1053799  25.7594810
  31.5039481  14.1737380  12.6108067  32.3338461  13.6050790  12.6898962
  31.8653776  14.9995579  13.0273390  37.6256738  12.7799727  15.8318719
  36.6519786  12.8117526  15.6732284  37.6506457  13.6217347  16.3946202
  32.1932809  25.8834577  21.1126883  32.9829251  26.1024310  21.7576175
  31.7165516  25.2472287  21.6912720  39.1979552  -2.0913390  20.6411318
  38.3927174  -1.8413272  21.1839244  39.8005667  -2.2185756  21.4311526
  24.2000870   5.5507514  16.8843325  24.0199146   6.4055353  17.2748563
  24.6037320   5.8716454  16.0285035  45.2596420  15.0723742  32.3214872
  44.9652278  15.6678946  33.0123333  45.8935525  14.4978978  32.8768172
  68.4146407  52.7834281  67.3806046  68.9777198  53.3720692  66.8415150
  67.9790538  52.2626601  66.7070175  37.5015327  14.9969250  17.2176025
  38.1962851  15.3257215  17.8875832  36.8080799  15.6640223  17.4121389
  36.8759980   4.3388636  22.2471849  37.7204620   4.4470314  22.7117014
  36.6426840   3.3985594  22.4554678  37.5793054  24.4100079   9.2749854
  37.8347765  24.6673452   8.3700381  36.9690203  25.0924423   9.5179756
  39.0155265  14.2981246  12.6853503  39.0259507  14.9848830  13.4311387
  39.4605772  13.5446755  13.1241821  32.9665074  -0.5515736  31.0878680
  32.9213856   0.4443116  31.0603559  32.4242088  -0.7156739  30.2485900
  35.7070161   5.5006465  31.7549438  36.0145090   5.5570164  30.8348663
  34.8910669   6.0676323  31.7184905  43.7792186   4.9252563  10.8585745
  43.0943269   4.9534741  11.5691916  44.5737352   4.9912019  11.4400179
  39.8023606   5.3903644  23.2606540  40.1263800   4.5215494  23.6597195
  39.4171675   5.7548443  24.0940286  47.9912379  11.5880549  17.4234638
  47.0250363  11.6839561  17.3255643  48.2166772  10.8454759  16.8611010
  29.3928478  11.9959921  13.6510398  30.0328446  11.2712559  13.8378663
  29.9769552  12.7912512  13.5178331  51.8067734  24.5856171   6.1504531
  52.4299082  25.1163384   6.6781877  51.7922021  25.0695155   5.3144256
  49.2358741  22.1524649   0.1946691  48.5525973  21.6245899   0.6829883
  49.1003400  23.0460647   0.5251851  26.9906816  15.2536297  18.1136388
  26.6435933  15.2475141  17.1816706  27.0578840  14.2658307  18.2160519
  50.6552623  18.4581372  21.0091046  51.4946327  18.1250222  20.6157977
  50.4434439  19.1131487  20.3281681  47.8249594  24.1227271   9.6748267
  47.9768618  23.2225884  10.0787992  48.1514603  24.6705849  10.4058026
  32.8001550  17.0396071  17.0539660  32.0563026  17.2084383  17.6034743
  32.7582139  16.0868387  16.8857460  46.2115592  58.2864745  67.7579751
  46.9106358  57.9329278  68.2977089  46.4656061  58.0618760  66.8682829
  51.4605394  15.1367064  21.5835217  51.8449387  15.6255032  20.8045962
  52.2691519  15.0760470  22.1228075  19.0954012  24.6636258  13.7524016
  18.7818930  25.3431197  14.4050059  19.5989127  24.0570249  14.3093303
  43.4463688   5.5658679  35.3254202  43.4509417   6.4879661  34.8762034
  44.1502816   5.7927763  35.9640025  42.6491441  13.7026428  15.4094091
  41.9514003  14.0722033  16.0012699  42.0979678  13.2773943  14.6748980
  45.2909075  13.9823877  21.1079710  46.2180432  13.6778698  21.1559922
  45.4723912  14.9301200  21.3822447  45.7919063  17.0541586   5.4117636
  46.5795719  16.8150148   5.9267488  45.3253417  17.6312558   6.0047555
  25.3088808  11.1820188  24.0239585  24.6078639  11.4689217  24.6587261
  24.8865613  10.3106500  23.7492368  64.2743565  16.6192197  26.8699859
  63.6166912  16.0890334  27.3262616  64.8611973  15.9242321  26.5301287
  54.5850905   8.3898640  30.5945465  53.8501132   8.4724329  31.2391044
  55.3062388   8.0200119  31.1909987  49.2364171  12.5262425   6.0937402
  48.9396944  11.9433374   5.3317618  48.5774064  13.2534709   5.9351163
  39.3596287  -1.2606705  25.4278958  40.0828842  -0.6440260  25.6542931
  38.8322923  -0.6482823  24.8345122  44.1224568   7.4299380  19.1668453
  43.2818605   7.0668733  18.8104698  44.6411195   6.5925102  19.1613599
  59.3469570  37.2062694  78.9508631  58.9535335  36.6744333  78.2244200
  59.5036096  36.5373603  79.6238287  73.8798007  59.4640593  57.5616593
  74.0918456  60.1021655  58.2664378  72.9027678  59.4844776  57.6189751
  43.4977194  17.7467901  20.2284984  42.9844661  18.5225342  20.1019098
  43.0627699  17.1268181  19.6678071  47.2708816   0.8985329  35.4283826
  47.5794256   0.4645568  36.2551758  47.1588324   1.8461889  35.7046618
  54.5415656   7.4500323  23.9024753  55.3653447   7.1878318  23.5386240
  54.3043505   8.2232249  23.3354858  46.4792863   8.5793901  15.0627222
  46.4197809   9.4628785  14.6162652  47.2022042   8.7272547  15.7040302
  38.7286777  11.8877343  30.9603958  39.2712614  11.1083101  31.0479670
  37.9174419  11.5627172  31.4053395  48.7383072   7.8357459  18.7785492
  48.0242626   8.4833154  18.8816868  48.9980831   7.7128473  19.7069147
  41.5544172  11.3634255  17.9078717  41.4980141  12.3462597  17.9652603
  42.4662123  11.2746407  17.5290721  19.4114717  22.2942516  15.2624147
  18.8702754  22.5212612  16.0340697  20.2447331  22.1789682  15.6681240
  38.8981881   6.7921885  20.1503153  39.4225210   6.5730380  20.9868463
  38.3784786   5.9605711  20.1519450  37.2422159   0.8343232  17.2956341
  36.7837710   0.6792824  16.4084882  37.2078239   0.0021125  17.7128193
  32.7224999   4.7610228  20.0049551  31.9829868   4.1871578  19.7892531
  32.4446867   5.6100972  20.2081531  40.6031569  14.8389619  16.8734885
  39.8342890  15.0479547  16.3194206  40.6032706  15.6552737  17.4015420
  70.2579995  42.8858470  67.7115105  70.0136370  43.7141431  67.3037530
  69.4768933  42.6467158  68.1959287  60.6949687  47.3129218  72.4160010
  60.0794708  47.6825224  73.0881091  60.1718717  47.5243406  71.6001952
  47.6625662   9.1662873   8.1049234  46.8663214   8.7875251   8.5357858
  47.5023792   8.9087421   7.1563560  69.1076382  43.0428945  72.3365808
  69.0268367  42.4728509  71.6048320  69.2986067  42.4608740  73.0820700
  42.0707364   4.1833804  20.2213399  42.8477599   4.5488512  20.7594340
  41.6965685   3.6520726  20.9095418  48.6810273  21.7877735  11.0913737
  48.1805781  21.7402386  11.9689635  49.5533463  22.1243489  11.5650462
  49.0870522  14.1530907   8.4112325  48.9134091  13.2646109   8.0205549
  48.2177136  14.4718549   8.5852397  45.3948630  47.5953780  77.8617019
  45.0722338  47.8264696  78.7637648  46.2867232  47.9316520  77.9079986
  38.1060180  12.8065235  28.3923222  39.0499183  12.6043685  28.3787265
  37.7459387  11.9699480  28.1037226  44.4864615  24.4733619  13.6327167
  45.2874904  24.7752278  14.0677861  44.0922477  23.9706872  14.4071726
  40.1236898   9.3484499  26.3408848  40.0188489   9.2342749  27.2695767
  39.2568985   9.1438175  25.9720468  29.6947542  -3.0255924  32.6685186
  30.0589397  -2.9725991  33.5360693  29.7624214  -2.1324882  32.3400644
  60.6337100  30.9878210   6.2265465  59.8755113  31.1926112   5.6422062
  60.9909951  30.2005686   5.7584778  47.7409425  32.5846756  12.4973810
  47.2928021  33.2092271  11.8552192  48.6436981  32.9384309  12.4360952
  42.3913817  31.1943845  14.4276945  42.2594687  32.1462352  14.2181593
  42.6582698  30.8648817  13.5515569  60.5353924  22.2471866  19.0756094
  60.4770671  22.2947126  20.0459530  60.8681682  21.3516766  18.9288558
  34.2860547  23.5668448   9.1692231  34.1003199  22.7883735   9.7077040
  34.9062872  24.0200101   9.8993416  51.2727141  40.7067949   9.0300590
  51.5205502  41.2497676   9.8030764  51.6566004  41.1421789   8.2839903
  36.3792769  34.3635492   0.1515047  37.0755744  33.7376158  -0.0051395
  36.8532642  35.2105260  -0.0288642  63.6557398  31.1024665   7.7705901
  63.2204958  31.9555810   7.9201962  64.3887589  31.1514880   8.3913107
  47.3873571  33.6951069  24.4018802  46.8539914  33.6041179  23.5295137
  47.6329652  34.6041039  24.3550656  34.8867218  30.2777413  11.4081379
  35.1035516  29.8250399  10.5855191  35.7413994  30.5368882  11.7432834
  63.5842620  28.7049746   9.6422547  62.7167615  28.4022889   9.2356913
  64.1498958  27.9436342   9.4875536  60.7590659  30.8774179  13.0008670
  61.3283120  30.4823375  13.6908899  61.3610926  30.7943305  12.1896349
  55.1220782  21.5099294  11.6341959  54.8043509  20.5938714  11.4850404
  56.0382395  21.2596477  12.0064332  39.0622190  22.4858887  15.7062984
  39.6886310  21.8055680  15.6264254  39.5416409  23.2611240  15.3461431
  42.9051274  33.2866928  19.1242240  42.9069577  33.8800430  18.3637898
  42.3183767  33.7643294  19.7384659  56.3483358  20.6593241  29.4827665
  55.6813806  20.2309148  28.8847041  56.2682159  21.5768184  29.2913047
   5.5254866  53.6137105  62.2470705   6.2926012  53.2994536  61.7542820
   5.0667364  54.1166987  61.4899217  48.2206087  24.8207820  20.6588852
  48.1522209  24.3533984  19.7955363  48.0488460  24.1380364  21.2834395
  28.1870584  20.2538428  22.7902179  28.5609991  21.1417830  22.9564626
  28.9796676  19.7232039  23.1316416  57.1388876  23.0929061  18.0214067
  57.4442562  22.2858976  18.5113212  56.4923623  23.4756764  18.6211767
  38.3849136  17.9846744   6.2127954  39.2237972  17.9059701   6.6892934
  37.8794403  18.6370025   6.7476156  33.4400818  24.0118308  24.6344685
  32.9817575  23.5090488  23.9531523  33.4863219  23.4672407  25.3829787
  52.3126621  37.5902465   9.1165463  52.7425153  38.4240360   8.8703166
  52.3308472  37.6889388  10.1289260  51.8978702  25.3045657  33.9067369
  51.7012830  26.0842866  33.3922345  52.8736921  25.2486663  33.7802617
  45.7690873  26.7925053  15.4219590  45.7343467  26.3427348  16.2724333
  46.6305136  27.2107379  15.3872818  71.8828070  21.2593588  17.2466594
  72.4570437  21.3281000  16.4518416  71.1320302  20.8252986  16.8646953
  51.5571399  21.1883778  17.1744479  51.7431605  20.1838446  17.2853021
  52.3951034  21.3959274  16.7397415  58.3798363  20.7813848  15.6546580
  58.7779523  21.6649325  15.9355823  59.2035002  20.2382321  15.7326970
  48.7790147  27.7831903   1.9414544  48.3639331  28.6548483   2.1940285
  48.1586100  27.1596098   2.4106806  48.1621889  23.2184195  18.1942701
  49.0757366  23.0999385  17.9403888  47.7042056  22.7236123  17.4208948
  40.6304425  25.1858590  15.5467199  39.8980846  25.6083827  15.9930002
  41.2713832  25.0284221  16.2788665  46.1197256  16.6702239  20.9442948
  45.3841518  17.1489195  20.5483155  46.2926945  17.2752932  21.7055795
  37.2107951  31.5635625  11.9755130  38.0929401  31.2464293  11.7649735
  37.2437628  32.4345631  11.5011507  48.6149851  26.3851573  11.0802618
  49.5334385  26.2697943  10.7183807  48.2342772  27.1432888  10.5666486
  67.3493160  62.4109000  59.9865384  68.0664648  61.9959415  59.4539471
  67.7653751  63.1887959  60.3681086  38.3263248  25.9374675  20.7280024
  37.5356920  25.3988003  20.9158985  37.9733326  26.8305917  20.9746579
  56.4198847  34.1519726  11.3841830  55.6591877  34.7424099  11.7023229
  57.1754199  34.7384479  11.6104548  51.3749627  58.8035305  71.0815447
  52.0993875  58.3511645  71.5906728  51.1946640  58.0883829  70.4299686
  56.4730052  29.4801124  32.3493604  55.6473366  29.0724769  31.8638635
  57.1194495  28.9781769  31.7903790  40.1172523  23.4558650  12.7082037
  39.4069634  24.0365744  13.0855775  40.3861840  23.9847112  11.9294387
  60.5059221  12.2344764   8.2951340  61.3990528  12.0158639   7.9342530
  60.5186181  11.6425136   9.0835260  40.2604577  30.8517774   6.3010212
  40.2984624  29.8438170   6.3300045  41.1111718  31.0251049   6.8200409
  37.9218234  17.3557307  28.2652528  38.7457457  17.3018071  28.7345612
  37.3954211  16.5824602  28.6100795  35.2834974  34.5617721  16.4009940
  34.3099426  34.5882427  16.6022139  35.5120440  35.5257085  16.3897739
  40.3441303  39.5754055   8.4942805  40.1536214  39.9117716   9.3548643
  40.2766133  40.3411271   7.9277919  31.4043653  16.6236388  21.6573754
  31.9489388  16.5373059  20.8759650  31.6533997  15.8515085  22.1810851
  41.7717540  22.0033095  24.9095068  41.0063253  21.7955241  24.3127469
  41.7918644  22.9904068  24.8650501  45.3307439  25.2899968   9.3882071
  46.2972515  25.2374235   9.1273798  45.3016261  24.6248747  10.0882318
  51.4507560  28.0017284  23.2524119  51.3225855  28.6762961  24.0040233
  51.5515707  27.1663796  23.7869328  45.3276089  27.5004959  20.3143369
  44.9038996  26.8608659  20.9195729  44.6191400  28.1414455  20.2068469
  32.6225551  23.0469030  16.1198719  33.2476737  23.7229926  15.9446685
  33.1108403  22.2390484  15.9746439  50.2018959  22.9022817   7.4570119
  50.7529752  22.5597846   8.1739212  50.8532513  23.3493770   6.8522552
  59.7753239  12.2069978  16.4381903  60.5012001  12.5644387  16.9757466
  59.0251365  12.8081510  16.5400788  44.1927140  23.3742459  11.1776018
  44.4728047  23.7274051  12.0142411  43.2007164  23.5011002  11.2350540
  42.1307550  21.8692745  13.5870118  42.4438070  22.5109871  14.3093808
  41.4230344  22.4181532  13.2312561  52.3394881  35.7922953  21.6990723
  52.8770641  34.9957309  21.8445174  51.5212983  35.3869717  21.3007443
  38.3710454  25.4918574  12.9868555  37.9922214  26.1267927  12.3486478
  37.8301975  25.7147924  13.7656784  47.8026878  29.3928112  20.4604923
  48.4334063  28.6058743  20.4250033  46.9431941  28.9408961  20.5784583
  47.0861470  32.3974196   7.7091931  46.8200236  31.6094226   8.1823088
  47.9485234  32.6225198   8.0017981  33.9839263  23.0608969  18.5681128
  33.4632892  23.8362581  18.3587018  33.7161348  22.4523244  17.8189228
  46.9695764  29.2350727  23.7920279  47.2387909  28.3588275  23.4877639
  45.9857855  29.2014559  23.6442240  67.9276061  70.2006124  54.8228733
  68.1070682  70.8367354  54.1177595  68.3320858  69.4086161  54.3999162
  43.4744110  19.5568953  15.8881147  43.4169006  18.8418406  16.5923116
  44.4701955  19.4367986  15.7461747  50.2241538  29.9686353   9.2604370
  51.1357298  30.1176852   9.5881552  49.9998465  30.8882199   9.0165732
  59.5849988  36.1520524   2.4162967  59.9018285  35.8041259   1.5713570
  59.8034473  37.0984067   2.3083425  43.4512134  19.6586508  13.2650776
  43.1384270  20.5961957  13.1308508  43.2332990  19.5662208  14.2329547
  47.7301226  21.8706885   6.9444235  48.6090485  22.2467756   7.2081758
  47.7026590  21.1346740   7.5896251  41.3719947  32.8769456   9.5947536
  41.5410408  33.3604627   8.7443150  42.2869992  32.5210884   9.7355470
  54.0834535  27.5454826   5.2740648  53.8193939  26.7537494   4.7125139
  53.9964863  28.2356350   4.6093946  45.3144027   6.2010919  15.6710415
  45.1726217   6.0604137  16.6090463  45.8652918   7.0454199  15.7027989
  48.4587495  29.5227393   4.1956166  47.7183308  30.0372839   4.5385461
  49.2153968  30.0216033   4.6011462  46.3738377  19.6218562  15.5332293
  46.4367280  19.7134096  14.5958262  46.8566555  18.7709674  15.6352183
  37.2585730  21.8917768  10.5916682  36.4868243  21.2750129  10.3769683
  36.9562808  22.6734670  10.1154565  51.6869756  28.5001643  18.7491632
  52.2993309  27.7431454  18.5270884  51.0339929  28.0326506  19.3065665
  42.5795352  24.2374575   1.7109487  41.8274642  24.6585270   2.2196741
  43.1382919  24.1196913   2.4789856  41.6677577  33.7081297  13.2083892
  42.6267192  33.7576291  12.9950109  41.4203405  34.6322560  13.2053187
  39.8785031  34.7612571  15.3669753  40.2455013  35.1729110  14.5617689
  39.1072171  34.3009854  14.9447593  45.7427984  14.8707578  14.7252378
  44.8513401  15.1028059  14.3214318  45.3632293  14.4149515  15.4894439
  59.8405834  22.1683821  21.7684172  58.8459972  22.2691377  21.9047071
  60.1593931  22.9704772  22.0947985  44.5240072  20.7977193  18.6854450
  45.1036745  19.9578085  18.7118404  44.8462254  21.1373965  19.5687352
  53.1888153  21.9145413  22.7494936  52.3805233  21.3536578  22.8974791
  53.8702064  21.2300347  23.0495488  33.5204317  38.7742532   8.3115162
  33.5264925  39.5528668   7.6602172  34.0731915  39.2193281   9.0119735
  49.7596115  34.9195043  16.3928870  50.3289326  34.1468245  16.6449896
  49.7306629  35.3666256  17.2722653  66.7473581  61.8348702  63.4724126
  66.5566780  62.7401057  63.7293376  65.8971804  61.5422837  63.1045972
  40.2117340  31.2320107  18.2503898  40.5696724  30.7954370  17.4791588
  39.4074068  31.5940700  17.8800439  48.1954598  19.1091231  23.6698297
  47.2681135  18.6810014  23.7222875  48.6435995  18.2185635  23.4176524
  55.6411476  23.4967999  29.4791995  56.1062658  24.2658742  29.0658042
  54.8486417  23.4578024  28.9021789  49.5459548  18.4748209  26.7418739
  50.5277130  18.5070834  26.5853725  49.4077945  17.5000072  26.6845734
  49.9819356  25.1938749  23.2369596  49.6899271  24.2563156  23.1213282
  50.8920632  25.1755764  22.9613071  52.5069544  24.6049008  22.7615499
  53.2985516  24.7895641  23.3366050  52.7422226  23.6192052  22.5521106
  42.9452923  30.3505207   7.4778290  42.5916245  29.5870958   7.8906351
  43.4446212  30.7406044   8.2438007  44.3440912  28.6817517  23.9694536
  43.9558887  28.3283506  24.8508735  44.3981705  27.8951165  23.4699853
  44.5417244  27.7688409   9.9325406  44.9107908  26.9211443   9.6920333
  44.6036139  27.7410707  10.9003026  44.9931780  27.0448390  12.5680217
  45.4477834  27.0202304  13.4392158  44.4569561  26.3108528  12.5169626
  53.6984917  26.1171860  26.5864167  53.3985923  26.9965464  26.4100589
  53.0333397  25.8162502  27.2292932  58.4926411  38.9443104  22.8747838
  58.3255500  38.1391729  23.3838877  58.7175472  39.5714788  23.5986076
  35.9939956  18.9816902  27.7151564  36.4091444  19.7808643  27.5495822
  36.7417504  18.3550533  27.9257071  53.5389464  26.1175932  17.2312909
  54.0782570  25.6688205  17.9338894  52.6799952  25.7431652  17.4374406
  58.5613375  59.7736242  57.6035195  59.1487057  59.2340383  57.0718005
  59.1568121  60.0422546  58.3447182  59.9142872  33.6055836  25.1606466
  60.7220715  33.8641119  25.7418523  59.1984610  33.8925630  25.7742255
  26.8122787  25.6100911   7.6015157  26.7360339  25.3105535   6.6608850
  27.5378027  24.9755925   7.8949776  41.8562782  20.0534866  19.0435744
  41.5063071  20.7253626  19.6765568  42.7559466  20.3936829  18.8506097
  50.3514363  33.9114956  11.6261935  50.5360547  34.4896513  10.8778864
  51.1772004  33.3513040  11.6604569  48.3956564  25.8284705  13.9061970
  48.6062987  26.1103850  12.9947620  48.2209626  24.8980466  13.7311351
  46.0402652  30.3162941  11.9628799  46.5172606  31.2107120  11.9622046
  46.5260315  29.8986408  12.7001367  71.0873952  32.7953497  24.4014025
  70.7542249  31.9183787  24.1998659  71.4925913  32.5772322  25.2972210
  56.8342642  36.1865369  15.3073177  56.9996986  35.2054599  15.3269643
  55.9536872  36.2427964  15.7054302  48.0872756  30.2835722  16.5361959
  47.2248619  30.2081743  16.8845843  48.5931402  30.7212097  17.2508769
  49.1736015  23.7735610  -2.4636818  49.1284546  24.4149742  -1.7136157
  48.1871560  23.5548600  -2.4418588  41.6844217  19.7159923  10.1617644
  42.3903230  20.0330752  10.6769576  41.0833175  20.4496039  10.0366165
  47.6860816  33.7128770   4.6198274  48.3438035  34.0619230   5.2633315
  47.9497636  34.1575176   3.8063849  47.6068331  17.2667286   7.3058804
  47.2847999  16.7157945   8.0184725  47.7105510  18.1132943   7.8005319
  55.6922321  27.3162220  24.0029988  55.2088101  28.1080852  24.3675175
  56.6075074  27.6873928  24.0669047  39.4898220  33.2837237  11.4912135
  39.9862497  32.8101811  10.8194346  40.1166797  33.1947603  12.2566097
  54.9505965  31.6812080   3.6114096  55.6377878  31.0213387   3.8254852
  55.5673946  32.3585841   3.1119606  34.5939514  39.3774726  13.8343812
  34.0649125  40.1043481  13.4073707  34.3401797  38.6357126  13.2522570
  41.0327931  24.7064999  10.5369660  41.2737414  24.8375798   9.5932006
  40.7535839  25.6238554  10.7767528  31.3207564  20.3111127  25.5923513
  31.3890856  19.3802849  25.4868593  31.9184597  20.4125430  26.3729792
  63.8631877  55.8473352  67.8340176  64.1957941  55.6930190  68.7391919
  64.5548940  55.4460519  67.3189036  55.8017751  37.2382180   9.1689023
  55.4515930  37.7104131   9.8995434  55.4333308  36.3192913   9.3167450
  38.8303305  28.8249166  18.8767878  39.1267945  29.7806825  18.7631663
  38.9972711  28.4898452  17.9624339  59.1488759  23.9029697  28.0464421
  58.6389962  23.4967707  27.2939931  60.0027604  24.0858083  27.6260613
  43.6006908  19.8470965  25.1781128  44.0219291  20.3585690  24.4398667
  42.9129365  20.5368760  25.4633830  35.3601364  26.7377883   6.6072023
  34.9046787  27.5703683   7.0051564  35.1391989  26.9331069   5.6418662
  60.2061046  22.5313245   6.1257228  60.5370120  22.2965448   7.0389549
  59.7734619  23.4125702   6.3815571  44.2681923  23.2457081   3.5201699
  44.8055213  23.0481096   2.7241438  45.0315910  23.3322530   4.2177694
  54.3335645  36.1907433  16.1640676  53.7198191  35.8781145  15.5073329
  53.9015956  35.9783243  16.9855111  48.7136628  26.8886517  17.5915165
  48.4027044  27.6996311  18.1039242  47.8646244  26.4087415  17.6162318
  56.3757670  13.3163935  26.6469755  55.9779021  14.1975020  26.3013715
  56.0175397  13.3712504  27.5497256  43.2438308  25.1287906  -0.9248581
  42.3254487  24.8284397  -1.0648012  43.2628949  24.9544245   0.0834970
  48.0052525  23.0833959  13.4912756  47.3182086  22.7425106  14.0592480
  48.7601692  22.6228504  13.8773031  51.8646087  19.1948492   8.2689394
  51.7710288  18.6548224   9.0934621  51.2441680  18.7470806   7.6810671
  31.4313442  21.0762700  20.5518454  30.9054203  20.3340599  20.1991994
  31.1055757  21.8083749  19.9615999  43.7205223  29.2567140  19.5464065
  43.1988111  29.5923766  18.7428070  43.7348203  30.0301031  20.0792494
  64.1860972  30.7073638  15.6161104  63.9775568  31.2037829  16.4248161
  63.3364513  30.4444208  15.2586821  40.7461135  31.1341903  20.9044218
  40.4449887  31.1113920  20.0104111  39.9444877  31.0217298  21.4193333
  41.0716500   4.8714424  15.2836380  41.2241213   5.2934281  16.1255555
  40.2133007   4.4445714  15.4123990  55.0486987  15.9241903  13.4022570
  55.4088923  14.9691350  13.3912803  54.1400873  15.7283996  13.0930038
  53.9422040  27.8143855   9.4881531  54.0769997  26.8593596   9.7847796
  53.6743947  28.2080441  10.3201882  53.1514912  28.9112133   3.2845833
  52.5999475  28.5989838   2.4983253  53.8635649  29.3785529   2.7934747
  43.1753940  31.0564716  17.5117502  42.8855881  31.6038107  16.7820927
  42.8342939  31.5939048  18.2771545  64.6676026  37.3023777   0.5817009
  65.4561611  37.0022049   1.1538141  65.1532406  37.4762318  -0.2765093
  50.2324394  30.5362535   5.8135913  50.9622368  31.1587419   5.4735196
  50.6394062  30.2139251   6.5972603  42.0466926  27.6488486   8.2789513
  41.3919438  27.4770920   8.9501161  42.8762728  27.4390591   8.7772029
  56.0542177  35.2710267  23.0975435  55.7232976  34.7217686  23.8798351
  55.2614937  35.0428524  22.5179452  32.7605368  29.7663677  20.4242147
  32.1656855  29.1997185  19.8833771  33.4076181  29.0420319  20.7319587
  55.2006323  32.7208842  18.7260327  54.5090971  33.3531928  18.5261495
  54.7242332  32.0635820  19.2903874  54.9574532  30.0591231  28.0756566
  55.6348443  30.7567883  28.1416793  55.2702950  29.4004303  28.7394757
  44.4497644  23.9902934   6.8302771  44.7116401  24.3499621   7.7005968
  45.3175189  23.7477220   6.4561558  41.0759217  17.4600334  17.8791373
  40.9182564  18.4005781  17.9857792  41.2165103  17.4021613  16.9335940
  43.3080301  26.1498881  21.5213367  43.3563884  25.2522583  21.2001367
  42.5114435  26.5056867  21.1393423  57.6980541  31.1396023  18.5579837
  57.7738729  31.1851821  19.5262503  56.8187169  31.4941699  18.3881785
  60.3481900  26.0466608  24.9908831  60.2142297  26.8212605  25.5510488
  60.6626127  26.4530176  24.1328690  55.0318144  25.0911951  19.2190374
  54.7710192  24.1466219  19.4153248  54.7642319  25.5359959  20.0309909
  32.3509130  19.9591233  11.2456165  32.3913051  19.0223760  11.0542750
  31.5040388  20.2195110  10.9001274  46.2476829  25.4794281  17.7610083
  45.7695982  25.5284776  18.6207636  46.6907918  24.6130816  17.8882747
  30.8394778  25.8825264   8.7578661  29.9525326  25.4913049   8.5766300
  30.9916042  25.6523588   9.7029488  29.4780827  73.6964488  15.5921869
  28.8602625  72.9301739  15.5696029  29.6922978  73.8481253  14.6523677
  49.9998571  32.9718235   8.4355180  50.5221263  33.7306434   8.7029295
  49.9492331  33.1977899   7.4493189  55.9514512  29.4568382  21.3176102
  56.1415890  28.5650328  20.9702399  55.0132620  29.5326071  21.0734965
  50.1928243  27.4127372  15.3503752  49.5024226  27.0808029  14.7088504
  49.7905741  27.0242568  16.1534841  55.7624528  38.8180540   6.9828286
  55.9217580  38.1486830   7.7114702  55.8343423  39.6454327   7.6235939
  52.7075504  28.9655969  11.5543252  53.4312388  29.4633353  11.9976168
  51.9760298  29.2460530  12.2004132  63.6253465  15.0907910  17.3479867
  64.2035462  14.9417231  16.5954000  64.3499781  15.4837180  17.8918386
  69.7204795  60.2757015  61.3819510  69.3751115  59.4631491  61.7075918
  69.7547887  60.8147604  62.1156462  63.7086520  24.3683862  26.3123954
  63.8025726  24.6808166  27.2255792  64.1080826  23.4697013  26.2969604
  56.0989705  20.0366187  14.3863171  56.7825787  20.4667958  14.9670299
  56.5204852  20.2433218  13.4970412  50.9130480  25.8465177  19.0405098
  50.1387494  26.1740126  18.5510493  51.0183419  24.9468108  18.6397185
  62.3675823  24.1663371  13.9912814  61.6524962  23.6418078  13.5734794
  62.2410847  23.9338778  14.9449204  52.7443976  27.2338714  29.3070905
  52.2206596  27.6877484  28.5377399  52.6483893  26.3487895  29.0012628
  39.7009563  14.7897474   6.4559367  38.8439477  15.1461631   6.1145272
  39.4533106  13.8074575   6.4319581  41.4204354  25.0909387   7.8900195
  41.3860999  24.8132308   6.9606051  41.8705496  25.9559603   7.8718830
  34.5384099  32.2062084   7.6310095  34.5044840  32.2778127   8.5883342
  33.9940649  32.9787448   7.3652532  41.8035892  11.0960046  23.6732780
  42.2091940  11.6008122  22.9630553  42.0689305  11.6568202  24.4634824
  45.5920852  13.6857610  10.3112289  44.6343848  13.8559496  10.2091608
  45.5522278  12.6991626  10.2046054  41.0240959  21.8689530   7.1323189
  40.2211834  21.6967625   6.5027232  40.5270515  22.2302044   7.8945385
  39.4289452  16.0783750  14.5403143  40.3176735  16.5460603  14.6871084
  38.8466784  16.8354136  14.4185454  49.3986303  15.5167318  10.9396182
  48.6359964  15.6624531  10.3363131  49.8857345  14.8170259  10.5050375
  55.5508785  13.2199191   8.8348761  54.9801784  13.9828049   8.9421786
  56.3224636  13.5448196   9.3793726  40.3379781  36.3409529  13.2432821
  40.3489068  37.3026428  13.3552425  39.9803454  36.3405831  12.3407132
  42.9028243  27.5811115  15.4208846  43.1755004  27.3351870  16.3429461
  43.6428795  27.1679256  14.9220380  40.8865560  26.8134718  20.0547650
  40.5979325  27.7650885  19.9647866  40.0136481  26.4078394  20.3213172
  52.1672896  21.8230567   9.1997326  51.6181574  21.9397747   9.9689678
  51.9721786  20.8941610   8.9338035  55.4510323  12.3638176   6.1600187
  56.1491054  12.0894727   5.5930168  55.7414256  12.1920416   7.0580501
  57.5050492  17.4894453   9.9247539  57.8983994  17.5769453  10.8545724
  58.0699311  18.0726173   9.4143952  44.5547631  31.3793524  23.4240236
  43.9661543  31.4412000  22.6231340  44.4734751  30.4028367  23.5173937
  49.5992770  40.0102205   5.0220921  49.4151714  39.0877634   5.3194083
  48.7303771  40.3516643   4.8326233  54.3147214  25.1420098   9.8202282
  54.5983570  24.9686958   8.8957193  55.2975674  25.0384689  10.2010645
  54.0222122  24.4667853   1.8673343  54.9236682  24.1578110   1.7423096
  53.5842311  23.6608857   2.1591046  52.3443538  18.6850222  17.2305091
  51.8816402  17.8628464  17.2408168  53.0115537  18.4758350  16.5108221
  59.1332597  25.0252919   6.1863204  58.8072644  24.9593622   5.2256721
  58.3968703  25.5007869   6.5539932  44.2846591  19.5740402   6.2234375
  43.2994007  19.4276454   6.1118936  44.2657083  20.2966739   6.8185215
  40.2115238  21.3219479  22.9917927  39.8446897  21.2147792  22.0469273
  39.4174208  20.9947020  23.4652544  46.8946730  15.7081348   9.4385007
  46.5685052  14.8271010   9.7757478  46.4552707  16.2822476  10.1316840
  49.2302534  31.1310494  14.3975102  48.8053565  30.7239300  15.2030783
  48.5483111  31.3483259  13.8119562  42.9875957  13.0076282   9.4901077
  43.1754911  12.8483023   8.4894703  42.5964225  13.9085100   9.4288262
  56.6549251  38.0491038  19.5778689  55.7276688  37.9787481  19.8884396
  56.4967695  38.2673661  18.6426277  44.5594380  51.3870345   7.3371486
  43.8819066  52.0442145   7.0924367  45.3297980  51.9612811   7.2705327
  60.3626546  46.6700401  33.1670372  61.1190799  46.1657297  32.7945335
  59.8725728  45.8958310  33.4964051  61.4543694  43.8568874  11.2075568
  62.1396324  43.1160250  11.1071902  60.8909019  43.7400885  10.4582741
  48.7624200  50.1552153  14.7500645  47.8679431  50.4944353  14.9396540
  48.5617759  49.7744558  13.8570852  53.6754874  35.0162738  11.6971830
  53.0248574  34.2965923  11.6266070  53.8609735  35.1902528  10.7432702
  60.3561779  47.0677003  21.4848993  61.2724529  47.2245884  21.2111745
  59.9649744  48.0478748  21.2781154  47.1312126  34.1011866  -6.8512775
  46.2041884  34.4445023  -6.7540582  47.5936905  34.9583818  -6.9380275
  78.0172383  36.2710811  12.9163144  77.9764150  35.7576848  12.0611908
  77.1839094  36.6921374  12.8768527  63.3410785  43.7895343   4.4006017
  62.8204933  43.4344035   3.7071057  62.6955718  44.3511348   4.8590125
  66.8175527  41.3330850   8.8634134  66.2724004  41.3141056   9.6893611
  66.3775871  40.5728742   8.3575564  48.8420888  36.5177986   9.4967237
  48.6482723  37.3145261   9.0236468  48.6347608  36.8469865  10.3884740
  58.7763836  51.7946657  13.2198831  59.3848529  51.1055514  12.7980303
  59.0685580  52.4949713  12.5151963  59.7145581  21.3145467  32.5357662
  59.6147726  21.3484452  31.5876812  60.1548779  20.4643132  32.6485687
  53.1906856  38.9696753   3.4575800  53.3372327  38.5450865   4.3158971
  54.1005818  39.0627286   3.1553225  55.9498216  41.6925901  11.8518398
  55.8327985  41.9179220  12.7815211  55.4845458  40.8331692  11.8119403
  61.3810367  36.7632465  22.6384962  60.6864386  36.1667665  22.9014875
  61.8070633  36.8618289  23.5014370  67.2424730  24.8411532  18.8191785
  67.5991922  25.0367541  17.8989203  67.1929268  25.7557618  19.1321816
  49.3245589  53.5943391   6.2883211  50.0789310  53.2245267   6.8217048
  49.2779432  52.9586711   5.5889833  59.3609027  39.6008219  17.8107457
  60.3353244  39.7319585  17.9392572  59.2808707  38.6179184  17.8611271
  60.8728828  38.6093229  20.9862930  61.1553090  37.9206125  21.6001668
  59.9153152  38.6822921  21.1660078  51.8578670  46.6507000  13.7600572
  51.3575963  46.1219730  13.0741353  52.7156074  46.2076122  13.6851143
  53.9507279  38.3118548  20.3673063  53.5906093  37.9911227  19.4837965
  53.4487709  37.6694623  20.9404676  61.0542829  44.0975306  29.7081320
  60.9925462  43.1987693  29.3834464  61.5690406  44.0316797  30.5338256
  55.3469946  49.3120288  11.8598255  55.5767756  50.0107759  12.5013242
  56.2197981  48.8248327  11.8901824  64.0800657  26.3478755  16.2765772
  64.0400265  27.0420420  17.0200060  63.0572201  26.2436785  16.1165670
  64.3763364  35.3272227   9.0353433  64.9646417  35.9725538   9.4336886
  64.8809973  34.5000415   9.2718169  55.7547780  38.5532321  17.0446767
  55.7250461  39.1485397  16.2927280  55.3199207  37.8218035  16.7058667
  59.5600245  41.4392390  15.6384132  60.1447019  41.0435926  14.9919295
  59.5888266  40.7479291  16.3729081  61.7713208  40.1010535  14.7148712
  62.2375401  39.2803458  15.0283804  62.4731004  40.7875858  14.9425321
  57.5164166  48.0035400  12.4397461  57.2546235  47.0805955  12.6786859
  58.0493156  48.2198153  13.2692423  47.9549010  41.4513327  16.6851265
  47.1738566  41.0490142  16.9994571  48.4023268  40.7583925  16.1383104
  59.5486893  38.7313073  11.8624626  59.4454313  37.9385911  11.2453134
  59.5229539  38.3228911  12.7246039  43.1377615  41.2993154  10.3938135
  43.4622531  41.3363647  11.3175236  42.1984455  41.0231239  10.5041343
  42.9943941  20.6898084  73.5015600  42.6063733  21.4389330  73.0972945
  42.5051190  20.5439671  74.3378724  55.7358776  42.7096309  14.4463254
  56.5999904  43.1948413  14.4850686  55.2094689  43.2537652  15.0334624
  49.7627990  40.4557242  14.6625624  50.4283426  41.1269075  15.0316646
  49.2593331  41.0445970  14.0112914  46.7741223  34.3534951  10.1335880
  46.2024916  35.0922535   9.8870747  47.4637641  34.4610717   9.4319953
   1.9350622  37.3521791  19.4464169   2.3902805  37.9349049  18.8861506
   1.2879575  36.9210619  18.8435487  58.4931693  43.5405278  14.0798838
  59.4229696  43.8804469  14.1406416  58.7316312  42.6332947  14.5039356
  32.7526903  57.9890138  -0.1392064  31.7451425  57.9729682  -0.2257032
  32.8943461  57.0119396  -0.0587109  54.6453495  33.8759257  27.4980783
  53.8569332  33.2822009  27.5610890  54.2328804  34.7815149  27.6876674
  56.4033554  51.9763934  20.7005337  56.7280777  51.3231958  21.3586589
  55.6813902  52.4384256  21.1190463  65.2562930  45.1154260  25.5901065
  64.7086751  44.4386815  26.0868796  65.7071232  45.5650007  26.3486514
  55.3073094  47.3412386  21.0725466  54.9097367  46.4844125  21.3056001
  56.2732223  47.0198615  21.0486206  62.8310051  23.9850522  19.2991361
  63.4704289  23.7081404  18.6797902  61.9951938  23.6772696  18.9406240
  63.1544549  35.4649070   6.6704255  63.5010350  35.5596199   7.5990388
  63.9637749  35.9114491   6.2465376  54.9241630  39.3096119  12.1154793
  53.9671991  39.1156025  12.0859221  55.2406445  38.3609833  12.1125921
  57.6756353  42.1232844  25.9325050  57.6747777  41.2159190  26.2133111
  56.9017911  42.1831234  25.3473545  56.7715036  27.3005175  19.2455175
  56.1102274  26.6202272  18.9891226  57.0558322  27.6679057  18.3937130
  58.5755833  44.3498609  10.3400916  59.2955185  44.2628258   9.6714217
  58.6514885  43.4862292  10.7964967  62.7404528  39.0253822   1.0146363
  62.3972304  39.2915360   0.1323058  63.5033605  38.4973130   0.7919052
  64.3688953  46.8253657   9.1858627  65.3569836  46.6667949   9.0270074
  64.3914303  46.7639285  10.1937555  71.8445104  53.6139697  18.0133572
  71.4085466  54.1123007  17.2866577  71.1959186  53.7407964  18.7290029
  50.9249749  37.7936805  -0.9234736  50.1497811  38.0178368  -0.3785644
  51.5654925  38.4790965  -0.6489599  61.3587176  42.2172056  20.1774785
  61.6235995  42.5126063  21.0565268  60.4612889  41.8274441  20.3512677
  41.6619490  41.2067263   2.2391784  42.1548042  40.4155141   1.9978876
  42.4288946  41.8209797   2.4387729  50.4382339  36.0166846  13.7340889
  50.9503546  35.7821571  14.4741133  50.5538188  35.2753808  13.1186836
  46.3701022  41.4043438  -0.2264513  47.0352080  41.4920273   0.4964775
  46.7321363  40.6136573  -0.6743368  52.6180768  42.1475691  11.1080275
  53.3973246  42.6435239  11.3310007  52.1211747  42.7927837  10.6221713
  65.4577079  32.9589865  13.4616200  64.5697343  33.3058014  13.4899203
  65.3735716  32.0122017  13.5349157  66.8636974  38.3023663   5.9390117
  66.5232352  38.8158718   6.7012118  67.7146571  38.7700032   5.8187941
  57.5658694  33.1674397  15.6077015  58.0006998  32.4242339  15.1605776
  56.6230154  32.9523837  15.4951216  58.8215466  47.9315591  14.9533087
  59.3796397  47.1303447  14.9932522  59.4071085  48.5868245  15.3979067
  73.8083974  31.0841962  18.9027597  74.1557116  30.6024126  18.1044510
  72.9635129  31.3558484  18.5631222  64.0617632  45.1048734   7.1847506
  64.1446162  44.2026024   7.4749277  64.1217319  45.5966338   8.0257787
  43.9773818  31.4370294   9.7020096  43.7140746  30.9682097  10.5121288
  44.9004363  31.1354005   9.5116926  56.2570571  32.4373031   9.4492920
  56.1341283  33.1649163  10.1580187  56.9769182  31.9671122   9.9128903
  52.1066273  33.9732068   4.0556712  53.1016517  34.1353989   3.8890542
  52.1183196  32.9933395   4.1584937  40.8472988  16.4776092  62.5847551
  41.7346810  16.8099713  62.2221172  41.1606763  15.4678922  62.6574584
  58.5968500  19.7259960   8.4451029  58.5268090  19.3477844   7.5110887
  58.1631465  20.6190024   8.1435365  59.9447411  45.6225474  15.5263959
  60.6551803  45.2024303  14.9337930  60.3948408  45.5655090  16.3481607
  54.9417535  32.2707244  15.8040034  54.9137187  32.2005201  16.8047860
  54.1481619  31.6721460  15.6474690  68.5244656  28.6489316   7.3075761
  68.1490267  27.7851417   7.3095283  67.8144881  29.1892042   6.9780645
  58.6365341  36.5248740  20.7494710  58.2520900  35.6126697  20.5828220
  57.8703062  37.0667324  20.4060751  69.8477873  42.1865460  15.1608000
  69.0471294  42.0219560  15.6829836  70.5426300  41.9780978  15.8367138
  47.0782174  47.1036539   3.5902935  46.4760927  46.3216403   3.7145342
  47.2176937  47.2937688   4.6107156  56.5982166  40.3293356  21.5558932
  56.7411310  39.5175035  22.0885997  55.8599464  39.9876888  21.0187004
  65.4302434  39.3234812   7.8160417  64.4520852  39.3946040   8.0441850
  65.6657381  38.5060977   8.3289808  47.3551749  34.4763242  15.1155107
  48.1679025  34.9268997  15.4478041  47.7089089  34.1044152  14.3034575
  51.8733238  32.4931545  14.4407681  51.0393559  31.9229393  14.2378734
  51.6085402  32.7279489  15.3542520  63.6805747  34.4682436  15.4524378
  63.5849390  34.9703034  16.2558635  63.4944943  35.1384670  14.7853917
  54.8967332  31.1445495  23.4642432  54.8886689  30.5847018  22.6648681
  54.6244358  30.5238299  24.1463590  42.5408558  12.1460080  70.5718149
  42.6300414  11.6184563  69.7331299  43.0509215  12.9251770  70.2926037
  52.4965170  39.5650966  16.5755455  52.1744249  40.4396361  16.3182912
  52.9023824  39.2831781  15.7577988  62.5684986  33.1470661  12.3045616
  62.0889043  33.7527379  11.6862039  62.6187160  32.3599636  11.7433816
  34.8139893  11.8862229  64.4978073  34.6627212  11.2750649  63.8271283
  34.0387802  12.4877775  64.4869585  42.0650924   5.6849048  68.9895967
  41.1934295   6.0261323  69.0934239  42.2552163   5.3447899  69.8790869
  50.8301265  33.0260512  21.3685441  50.0853362  32.4532430  21.5948303
  50.3773330  33.5729394  20.6684967  34.6443147   3.5665597  58.3123410
  34.3868469   3.4100221  57.3790002  33.8699749   3.9994564  58.6769326
  58.0169352  43.8580949  22.3884743  57.2156982  43.3748694  22.7219283
  58.3343148  43.2612760  21.6769670  65.7140071  47.1398724  19.6236688
  65.5519568  46.1633901  19.3975657  66.4074783  47.3286134  18.9520460
  58.0181868  28.9394066  23.9456127  58.2550780  29.7859527  24.2660858
  58.2274319  28.9460917  22.9835243  48.7450120  43.6222554   3.6752188
  48.4190354  42.8701045   4.2003102  48.2679211  44.3801918   4.0302998
  52.6114215  32.7286020  11.1810801  53.2073478  32.2075558  11.7069780
  52.6337492  32.1033575  10.3632964  53.7721795  44.2423099  15.2814033
  53.8341315  44.4610153  14.3283692  53.8418654  45.1141988  15.7411797
  47.3926273  44.0065152  17.6427148  46.7390864  44.1348544  16.9447929
  47.4932499  43.0141812  17.5028562  52.1399026  37.1768972  18.4636996
  52.0930138  37.9817258  17.9062097  51.1883520  37.0709286  18.5681740
  67.5237018  34.3587697   3.4347940  66.6176266  34.0306003   3.5732956
  67.7353928  33.9901649   2.5595707  53.6354106  44.4362044   5.1791406
  53.6916469  43.4977390   5.0721256  52.6360993  44.5281387   5.0624077
  60.2117472  25.9547818  10.4635320  60.0031284  25.0631866  10.1485628
  59.5382093  26.4895281   9.9765643  68.2951030  44.5489951  13.3227965
  68.1383723  45.4157332  13.7937625  69.2507523  44.5205309  13.2387441
  56.1207560  42.2076377  23.6741132  55.1502666  42.4327940  23.8447497
  56.0040405  41.5407041  22.9548871  54.2317961  45.3988354  13.0972315
  55.2386482  45.3795876  13.0151634  54.0711612  45.5891127  12.1620568
  59.9025705  25.3710359   0.9705668  60.8233255  25.4806648   0.5649610
  59.4701950  25.1253411   0.0629932  60.0553847  37.0868441  14.3299866
  60.8656580  37.4420140  14.6906017  59.4160945  37.1663622  15.0472185
  65.7023795  46.9720305  11.5596099  65.9844291  47.8549673  11.7576366
  65.1625930  46.6867162  12.3176985  61.6170963  26.9342781  22.8548631
  62.0497718  26.7300461  22.0096010  61.8367489  27.8767760  22.9542217
  65.4041051  44.7389949  18.5677481  65.4716530  43.7241771  18.5791540
  64.6982593  44.8184394  19.2964129  60.3567629  43.6167246   8.6180832
  60.9582583  43.3204583   7.9244159  59.4896302  43.5559456   8.1152703
  62.4753320  53.1322411  19.0943859  61.5452464  53.2792119  18.8276337
  62.5397128  52.1526514  19.0582352  60.8883273  41.6090725  28.7606591
  60.2065829  41.1016253  28.2150793  61.6421026  40.9521183  28.6688197
  57.8221175  46.5770848  20.7728851  58.7866838  46.5967932  20.9246770
  57.8042993  45.8233468  20.0669563  56.9805333  57.1958349  12.0102883
  57.6318708  57.2592973  11.2548576  56.1503567  56.9434742  11.4975756
  63.2906228  37.3354980  32.8578796  62.6751265  36.6429766  33.3813367
  64.0637903  36.7304703  32.7593504  64.2119287  49.5923342  25.3848692
  64.5572405  48.9271166  24.7860572  64.6134278  49.3731785  26.2370606
  45.7564596  32.9279768   2.7642820  46.6864614  33.2251474   2.7400128
  45.2961539  33.4912925   3.3521850  54.7174086  54.0123500  15.5453287
  55.6990880  53.8821641  15.7437831  54.8194464  53.9895928  14.5104273
  53.4277121  34.6422336  18.3604234  53.0937343  35.4757841  18.6914101
  52.6140053  34.1488906  18.1623775  59.7542659  49.7848270  20.5058086
  59.0073608  50.0028822  21.1448569  60.4735420  50.3703017  20.7537499
  50.9074928  24.8661459  26.1406709  49.9411602  24.9918930  26.2222861
  51.0355343  24.6362636  25.2103136  59.2897033  32.9916412  12.0041802
  58.8848117  32.3734198  11.3925765  59.8209152  32.3410823  12.5413137
  21.6348503  74.3009865  64.4480135  20.9633103  74.9818636  64.2152448
  21.6567546  73.8069004  63.5960873  58.3552492  27.1773265   8.7961251
  57.8579974  27.9737342   8.9765749  57.7838322  26.6113356   8.3877921
  60.8881830  52.2157107  26.2954609  60.3256598  52.9681238  26.6443583
  60.5592478  52.2379107  25.3548765  55.1540336  40.0500423  14.7481377
  54.9149644  39.8154433  13.8154132  55.4416614  40.9896360  14.6353552
  64.2966191  32.4889605  21.3424645  65.1527976  32.8656197  21.0691239
  63.7600412  33.3241913  21.1556994  59.7838191  34.2948398  16.5195841
  60.4794786  33.8416391  16.0039641  58.9804720  33.7477778  16.1905549
  62.9377074  39.2267620   8.5370382  62.1651598  39.6705172   8.8939106
  62.5823273  38.5529820   7.9734165  49.7807305  42.2839411   6.7774268
  49.5376863  42.2287449   7.7149746  49.7715331  41.3709910   6.5046788
  62.0976710  33.2753207   5.3700333  62.4768459  33.9519673   5.9472061
  61.6874408  32.6599141   5.9465001  58.6620447  41.2301709  10.9985482
  59.0335907  40.3961620  11.4470287  57.8372083  41.2306943  11.4974018
  63.3363351  41.8135949  10.5276635  64.2154723  41.8420328  11.0128963
  62.9462705  41.0135060  11.0125665  57.1307205  41.1717977  18.0693875
  56.3349057  40.6616229  18.0548562  57.7750687  40.4888966  17.7771059
  63.3089807  20.5251290   8.5394147  62.8290584  19.6712726   8.3456834
  64.0277126  20.2089930   9.0984912  65.8712244  42.9033840  15.0694347
  66.5759768  42.4938472  15.7175408  66.2526913  42.5572750  14.2403436
  34.9883675  22.0037559  67.7784716  35.4318728  22.5964689  68.3918538
  34.1454132  22.4098657  67.6854339  38.5045413  19.8645164  64.5513623
  38.6980562  20.3089981  63.7128684  38.0056331  20.6161143  65.0317757
  53.8278486  46.5732016  23.8045523  54.2691896  45.8852138  23.2264643
  52.8833652  46.1952685  23.6721323  59.7316537  40.8963859   6.6733566
  59.1073416  41.6473540   6.8619968  60.1467029  40.8132652   7.5582557
  52.3478967  49.6266971  14.2512954  51.9686054  49.1370891  13.5419848
  53.2303793  49.2119467  14.3116207  51.7195501  52.1337347  15.0748567
  52.2296187  51.3302825  14.8250128  51.3587990  52.3770228  14.1885889
  71.6037226  53.9960165  27.0506225  72.1981105  54.6685089  27.3943254
  71.3085664  53.5711694  27.8864754  67.7183426  22.4342907  16.2313197
  68.6212881  22.5238580  16.4915460  67.6226602  21.4965355  16.5342696
  44.7023621  34.4792658  -0.3142432  44.3464113  34.5551346  -1.2177907
  45.6400076  34.1779389  -0.5781284  57.0939323  24.3714836  22.1413657
  57.1798368  25.1854999  21.6744050  57.1243016  24.7239685  23.0665189
  43.3117395  29.9592415  12.0600285  43.2327610  28.9803128  12.2244476
  44.2663873  30.0898892  11.9259206  64.8942123  49.7087903  20.2451147
  65.2068358  48.8284428  19.8757736  65.5502166  49.8474863  20.9840847
  66.5446795  36.3465307  11.7895243  65.9553929  37.1165698  12.0114195
  67.1534407  36.4269120  12.4988293  65.5830950  44.8281129  37.1462057
  64.7205713  44.5277262  36.8173918  65.7224768  44.4162962  37.9891839
  52.2477930  40.2346568  13.1267041  52.1921546  40.7396211  12.3204137
  51.5401027  40.5738707  13.7008849  61.3738227  40.9816632  25.7257699
  60.7667021  41.6522921  25.6040310  61.0054271  40.3358896  26.3804789
  21.4460651   8.2901722  55.2686961  22.0526217   8.6723898  54.6218500
  21.7642530   8.6148036  56.0958432  62.0556592  17.9001854   8.5445714
  61.1306106  17.8496067   8.1240570  62.4214125  17.0997768   8.0972444
  68.0304669  38.9686533  15.2727328  67.0411218  38.8423552  15.4445548
  68.1275924  38.1554608  14.6792557  62.8780082  37.7744559  15.4430634
  63.0130133  37.1183991  14.6607830  63.1465255  37.2146647  16.1948008
  73.3306446  37.3185816  24.5772895  72.7600537  37.0409079  23.8485883
  72.7653904  37.9390061  25.0648904  61.4635517  43.9205507  14.0580049
  61.4580547  43.6650439  13.1288391  62.1026991  43.3014751  14.4488622
  10.0365499  66.4796224  58.0993414   9.2551296  65.9807255  58.2094897
   9.8084359  67.0067547  57.2673141  56.3548473  36.8660444  12.5286619
  57.2321198  36.4813409  12.4040443  56.3029681  36.6396813  13.5211900
  61.4153378  46.7473002  11.7867164  61.4668214  45.7904631  11.9181324
  62.1002197  47.0894918  12.3744101  73.1476330  25.4738864  22.1410734
  73.3019072  25.4990016  23.1096164  72.2966603  25.9502683  22.0500179
  59.9130765  30.1876006  17.5760422  60.3652428  29.8584667  18.3965845
  59.0573766  30.4211357  17.9976784   3.5624877  39.2927262  25.9329797
   4.2240434  39.3077525  25.2046415   2.7015327  39.1275401  25.4316104
  76.0793313  37.3325363   9.7436121  76.3246801  36.4653090   9.4941388
  75.7333186  37.2125310  10.6472279  59.7025407  29.5392138  36.7792391
  59.2455535  30.1296789  36.0919796  60.2867415  30.2364012  37.1669778
  56.3354490  33.3085736   2.2857280  56.1880858  34.3102435   2.3839117
  57.3245513  33.3736268   2.2806955  44.4945234  30.6450952   2.1436962
  45.0261676  31.4041562   2.4906904  44.2541382  30.2697877   3.0141134
  54.1037251  44.8320840  21.1045292  53.4266317  44.0974507  21.1718457
  54.3971534  44.6859321  20.1612407  19.3824951  59.7036337  67.8076917
  19.8167132  60.1573079  68.5839479  18.4482124  59.6377461  68.1025911
  63.1751352  39.2128321  22.5809715  62.4494597  39.8105297  22.1703215
  62.5720028  38.7083036  23.1737461  57.8111666  34.9421210  26.5956815
  57.7757484  34.8071684  27.5814011  57.0371766  34.4226256  26.3130619
  61.4168309  36.2455103   0.2272139  62.1328026  35.9902634   0.8038154
  61.8337939  36.2747831  -0.6756868  48.0128035  37.6341687  11.7896197
  48.3738957  37.6792239  12.7131476  47.1634629  38.1047774  11.8702135
  52.9222145  34.9389700  14.3164236  53.4272947  35.0100457  13.4603578
  52.6757149  33.9912121  14.3173726  67.8148345  23.2685887  13.1356169
  68.0664074  23.0015244  12.2021105  67.3214520  24.1093023  12.9202399
  55.1105582  31.6435548  -0.0940902  55.8167809  31.9658506  -0.6741191
  55.6235925  31.1394552   0.5952093  65.8974499  29.9844116  13.8349229
  65.2428935  29.3994677  13.3139218  65.3757226  30.1066825  14.6828941
  54.1235317  21.9122058  -2.1597473  53.2752758  21.8509926  -1.6735494
  53.8715726  21.5690552  -3.0245800  61.3209646  36.5394293  19.3349574
  61.0228122  37.3746883  19.7916699  60.4458249  36.0530051  19.4450841
  41.4667232   3.9924969  63.1317016  41.9465931   4.8315251  63.3416126
  41.8614284   3.8340205  62.2330826  57.7927062  50.3428488  22.3505694
  56.9239844  49.9700553  22.6282472  58.3049660  49.9511455  23.1525288
  17.0535248  66.4089579  68.6566447  16.3936877  65.7028040  68.3762403
  16.4946739  66.9746092  69.1877827  74.3411331  36.3048367   7.3288945
  74.5868671  35.6316721   6.6405977  75.0352090  36.1744813   8.0241783
  50.1486351  46.7766188   4.4471038  49.4104373  46.9953950   5.0474804
  50.5160893  46.0017112   4.9142590  44.3535803   4.5366120  65.2682691
  43.6281651   4.8312783  64.6970837  45.1029142   4.7704235  64.6616780
  71.0915546  45.7463885   8.6674706  70.9979401  46.2772684   9.5018578
  70.8158855  44.8998156   8.9982839  71.6276294  46.8820642  22.0864346
  72.3616129  46.4368935  21.6364422  70.8681209  46.3611366  21.7286895
  49.4571147  38.8306952   8.0579456  50.1615594  38.3668482   7.5424834
  50.0009703  39.4882005   8.5572631  44.0474163  43.7219626  11.9323922
  43.2115543  43.7498817  11.5049561  43.9517625  44.4412938  12.6040336
   2.7716182  52.7604500  62.4648601   2.8753992  52.3295412  61.6100923
   3.5976632  53.1948680  62.5786172  53.4354016  16.5912005  71.7467249
  52.5718099  17.0166520  71.6993951  54.0243266  17.3831694  71.7953102
  63.9840190  56.6566438  11.9861450  63.7331138  56.5502314  12.8910055
  64.1395583  55.7326481  11.7084758  73.9638687  57.1784079  16.2039627
  73.1024686  57.1229574  16.6772007  74.5482916  57.4333094  16.9915462
  73.0564067  58.4862171  29.7661724  72.9105752  57.8624487  30.5266715
  74.0228453  58.1867946  29.6270182  60.1823944  55.7533800  21.7800707
  60.8826300  55.6870299  21.1283206  59.4251644  55.2718587  21.4258657
  70.2307300  55.0452175  31.7284107  69.7235274  54.2354613  31.7946027
  69.5245838  55.7274394  31.8351480  59.4411769  48.7385044  18.0925320
  59.7222528  49.0761690  18.9233103  60.2840578  48.3290741  17.7403446
  66.5132691  49.6129971  13.0109340  67.2855471  49.5691257  12.4704801
  66.8424841  49.3727857  13.8835048   3.5279260  32.6532280  15.0421458
   4.2835495  32.4454696  15.6329481   4.0154297  32.9140904  14.2472044
  59.9770005  53.6398004  18.4631431  59.7802170  54.2573125  17.6943119
  59.4852425  54.1752849  19.1287300  67.4499267  55.3044991  19.8256654
  67.1787113  56.1387694  19.3917042  66.6029848  54.8891489  20.0057539
  66.5382795  64.7439225  21.3325524  67.1779221  65.2444638  21.8242070
  65.8943644  64.4576399  22.0390715  56.6500976  57.8086552  21.4659253
  56.2311147  58.6116731  21.8157563  57.3062742  58.1857869  20.7762893
  54.0085584   7.7925639  64.7721408  53.5710854   8.1280287  63.9579662
  53.3196517   7.1992800  65.1523771  59.0703161  51.1837152  16.4750096
  59.6525916  51.5441177  17.1708125  58.7823705  50.3563111  16.9195443
  68.1163989  52.4817310  27.9185759  67.4984556  52.8946587  27.2476842
  68.5393261  51.8408086  27.3567208   2.7514457  43.7711339  10.6082527
   2.8612409  43.0086792  11.1418350   3.7016056  43.8524080  10.1922978
  62.2271312  64.6047965  20.3798582  62.7214925  63.7107068  20.3544457
  62.9874793  65.2285056  20.2381215  76.6888914  62.7190410  22.9379143
  77.1170577  61.9620016  22.5797471  77.0802482  62.7005346  23.8737873
  62.9501183  47.2801077  27.4724362  62.7476774  48.2299396  27.6216138
  62.3876574  47.0061963  26.7417364  67.5932439  49.7519104  15.7906094
  66.7605277  50.3266843  15.9549381  68.2022927  50.4131087  15.4987755
  69.9714727  50.3938231  24.8239925  70.7222227  50.8365522  25.2601327
  69.3516432  51.1907856  24.8539073  68.3178748  64.0312686  19.0591235
  68.2066110  64.7208631  18.3436652  67.4883718  64.1341484  19.5993046
  75.5771250  59.5395415  20.4277923  75.1792930  60.1187680  21.1026016
  76.0793713  60.2100756  19.9059722  70.8764593  38.4474495  12.7112540
  70.5124936  37.7867150  12.1315943  71.2769746  37.8167501  13.3578547
  68.7040971  49.0889572  11.0101994  69.1259503  50.0179158  10.8631479
  68.3460131  49.0337506  10.0900509  42.1081014  28.2824851  78.0347702
  41.3924921  27.6643693  77.9620206  42.8884328  27.6365397  78.0577748
  64.8819467  47.2479339  23.9139520  65.8400471  47.2325647  23.9126005
  64.7030072  46.4229806  24.4254875   5.9702238  59.8754058  19.7010599
   5.7025554  58.9514349  19.8603920   5.7119942  60.2573302  20.5867984
  60.9133977  49.9298792  14.7801165  60.8285743  49.9543714  13.7945340
  60.1419593  50.3905859  15.0778121  65.7176997  64.0841472  24.0895359
  66.1717519  63.4659057  24.7527901  65.4647245  64.7917809  24.7807404
  66.6795530  52.3754598  19.2012689  66.6685614  52.5084982  20.2019799
  65.7665561  52.6611948  18.9984414  71.2786585  43.8202817  12.5857481
  71.8285443  43.8619600  13.4039120  71.0285953  42.8583268  12.6546170
  40.1678996  21.4529202  74.1050539  40.2149378  20.5868521  73.7444436
  39.4154287  21.8641480  73.6790850  65.2511697  49.1525606  27.9284703
  65.4664626  48.5453995  28.6798321  66.1778266  49.4412471  27.7747512
  58.6852124  44.5896815  31.0200303  58.9822605  44.3382965  31.9059091
  59.4991898  44.4620866  30.5268948  18.1140995   1.6544013  25.6302920
  17.7969385   0.8759759  25.0768463  17.5801020   2.3469120  25.2245039
  37.5203077  18.0428440  71.9548367  37.5916606  18.9192874  71.5303965
  38.2265985  18.1556680  72.6374590  69.8807967  63.5051035  25.6543090
  70.3524762  64.1841832  25.1129486  70.6976138  63.0134521  25.9428953
  45.1357127  28.4050807  80.8191583  44.8330434  27.7707013  81.4982168
  45.4785162  27.7343993  80.1941659  64.3263647  41.4137539  21.7335906
  63.9416980  40.5039322  21.8302925  64.3727503  41.6471939  22.7205145
  33.6071668  24.7166627  66.4785867  32.6257765  24.4900174  66.4094860
  33.5405262  25.0336324  67.4357002  36.7666000  12.5528336  67.1708513
  36.0748277  11.8830910  67.0662016  37.5318624  11.8653334  67.2487555
  76.9688082  47.7422341  15.6421855  77.8554326  47.4195053  15.3422111
  77.1003917  48.6669216  15.3787532  39.6811920  26.8932461  79.2283218
  39.8767061  25.9942142  79.5414426  38.7532841  26.8554921  79.0542633
  49.7742436  26.5096797  76.4158171  49.2226741  26.0011927  77.0277816
  49.1622594  27.2318100  76.1940518  74.9189944  48.1738773  17.3993220
  75.5197177  48.0023041  16.6322942  74.5994630  49.0677673  17.1241308
  70.4447130  60.3435599  24.0251505  69.5669360  60.7492937  24.0779870
  70.9517054  60.9055575  24.6172991  69.1269437  40.4911771  19.6495773
  69.8078850  40.7200176  19.0514627  68.5896594  41.3180431  19.6940112
  58.1651593  49.4414608   9.3946648  58.0051463  49.4067201  10.3629186
  58.8636940  48.6843495   9.3294008   0.6477059  51.6919736  25.5648407
   0.2271114  51.0897306  26.2208855   0.2624661  52.5621055  25.9198601
  71.8180529  38.1079913   9.8329138  72.2955118  37.2367813   9.9774212
  72.3367464  38.6593428  10.4832685  41.1116315  52.7043682  13.3925977
  41.0916714  52.0631665  14.1131485  41.5504449  53.4676593  13.7777867
  73.6338488  40.7561538  15.8909665  73.0604116  41.3956750  16.3253528
  74.5182250  40.9523680  16.2894791  57.2894531  45.4843479   8.0951948
  57.3765547  46.4058422   7.8092136  57.5709613  45.5398047   9.0315308
  68.4213844  57.9899499  21.5171513  69.0913338  57.2759548  21.6203577
  67.7183733  57.6288006  20.9947929  60.4958359  49.6463985  12.2621066
  60.5863200  48.7119419  12.0137353  61.0712963  50.0867914  11.5415680
  61.0502842  55.7545267  11.4481517  60.8168705  56.3847156  10.7130513
  62.0013708  55.9872101  11.4827714  57.9925109  40.0981772  79.1630480
  58.1142924  39.1520619  79.0440306  57.4080835  40.2661035  78.3602200
  56.8387446  51.2722075   8.0305256  55.9645653  50.8655832   8.1417583
  57.3952775  50.7300265   8.6605253  63.4382980  45.1879017  20.4833094
  63.2571340  46.0952619  20.7945359  63.1825676  44.7004283  21.3037117
  60.4322530  44.7125804  23.2069259  59.5171259  44.4879699  23.0945283
  60.3963748  45.6184351  22.6982464  48.7993510  13.2878690  70.6131781
  48.0735086  13.3375964  69.9331629  48.3476928  12.6563912  71.2456533
  64.7256028  54.3932068  18.4343771  63.8323115  54.0340997  18.6178866
  64.5517647  55.3317190  18.3725075  71.1128330  60.4990138  29.7594638
  71.6790259  59.8072367  30.1341069  71.3799848  60.4097516  28.8244704
  70.3372973  54.0270534  15.8861405  69.5693842  53.4826339  16.1107302
  70.0443856  54.9334146  16.0001337  72.3824991  48.4232660  12.6253724
  71.7508188  48.7428481  13.2796499  73.1254323  48.1145291  13.2512448
  48.1515824  25.5554237  68.7999986  48.5014543  24.6950834  69.0200167
  47.2006087  25.4261474  68.6499415  70.8974292  45.1570225  17.8596141
  70.8268845  46.0143158  17.4438990  69.9724356  44.8641660  17.7466250
  69.3364612  51.3935442  14.2088227  70.1627466  51.6593297  14.6355512
  69.0657846  52.1879028  13.6452418  77.0822978  54.6274883  22.9236331
  78.0557496  54.8008877  23.0238443  76.7311140  55.4310896  23.3462135
  54.0889248  20.1421363  79.1106284  54.4871520  20.0727008  80.0157602
  54.2018801  21.1192604  79.0013304  68.8422684  60.4703189  20.6018661
  68.6653153  61.1355071  21.2869470  68.5207499  59.6752266  21.0480009
  68.7709412  42.8685211  23.5971724  69.1676387  43.2407148  24.3898376
  67.8860936  43.3064688  23.6286599  63.5513619  36.0668396  17.7170856
  62.7719195  36.2099282  18.4011925  64.2436455  36.3193497  18.3200067
  11.5846840  13.0383797  19.6853240  10.6477240  12.9288941  19.7880797
  11.8533597  13.2685232  20.6094167  74.3215354  50.9824537  13.7812958
  73.7526663  51.7671253  13.9312707  74.0662672  50.4683274  14.5704291
  46.9950507  30.1252351  80.4754246  46.1803151  29.4869859  80.5315032
  47.0361951  30.4050323  81.3772563  43.9237069  23.8237182  77.1244449
  44.2037699  23.6828179  76.1575286  42.9544889  23.9858437  76.8695257
  68.7544205  60.5318145  17.8924841  68.7557505  59.5601934  17.8833407
  68.6095629  60.6564712  18.8688198  78.1209472  38.9459550  12.7747425
  77.5144922  38.8037269  13.5036698  78.3075147  38.0317694  12.4577614
  67.7691144  48.1351472  17.8447886  67.7612422  48.6336218  17.0613689
  68.0587856  48.8305870  18.5035062  67.4382575  53.9391017  30.0422625
  66.6395808  53.3799533  30.1734722  67.7707445  53.4203498  29.2263531
  48.8435095  66.9473477  18.3388563  48.2965241  66.3259901  18.8924810
  49.6871853  66.3587369  18.2839796  49.6516264  47.1907539  15.3222916
  50.4747297  47.0312501  14.7623233  49.9643859  46.9643688  16.2434770
  41.5963096  39.9077281  84.7045648  41.3119071  40.8214815  84.8725757
  41.0395336  39.4092746  85.3723279  61.4165486  48.7827977  23.7501065
  61.9877980  48.5648465  22.9551317  62.1481238  48.8954710  24.4481797
  63.5630170  48.8266474  31.2162916  63.4211742  49.3503112  30.4232675
  63.5569689  47.9236804  31.0106691  68.1782572  67.8025809  20.9725699
  67.8257393  67.8718238  20.0786859  69.1008799  67.7727440  20.8284727
  64.6129381  59.0276944  15.8245055  65.5202848  58.8706191  15.5166919
  64.3272652  59.7569488  15.2459059  59.3222926  43.3522046  17.6275372
  58.6001356  42.7671697  17.9133736  59.7587534  42.9028063  16.9130188
  63.2067678  59.1435752  22.3422229  64.0639097  59.5638794  22.5106188
  62.8821065  59.5050400  21.5137438  58.0379614  53.8391933  32.2371760
  57.8939067  52.9613659  32.6455711  58.0235326  53.6297183  31.2738434
  29.5962732  10.6849268  62.6620068  29.1482764  10.7123636  63.4867243
  29.1058057  11.4026755  62.1647851  63.1196975  53.6143546  13.9473204
  63.2106336  53.0698830  14.7848649  63.4279494  52.9107043  13.3372826
  68.9674505  53.6245159  12.7530040  69.1907154  54.3819350  12.1742018
  68.1230895  53.9117741  13.1258866  65.2703889  43.0622192  31.0575491
  65.6557425  43.8768215  30.6686452  65.7826694  42.9694707  31.8874420
  60.6351060  54.2274840  14.4762744  61.6224006  54.1082718  14.3156930
  60.3811339  53.5281741  13.8213794  47.6743187  28.3413912  75.1069812
  47.0055373  27.6553521  75.1988679  47.4196503  28.5914246  74.1735731
  69.6619540  35.7340211  11.5131915  70.0825818  35.4063136  10.6838372
  69.4461071  34.8607602  11.9283106  65.4556129  39.0647861  15.6375408
  64.5655895  39.4211751  15.4701969  65.4303369  39.1332204  16.6241769
  65.6018181  60.0511029  23.0780150  65.6475202  59.8504563  24.0515891
  66.4997883  60.3613475  22.9627245  67.4974612  49.0160274   8.6108668
  68.0779934  49.0021530   7.7829557  67.0221545  49.8580658   8.3825003
  74.9796855  45.2614681  20.9902221  74.3801412  44.8562621  20.3501429
  75.8387465  44.8439450  20.7222561  68.0834538  45.2458282  17.7399876
  67.9357870  46.2231310  17.6673433  67.1708570  44.9802985  17.9882693
  75.9538454  52.2081223  16.4866948  75.2114028  52.2430421  17.1570802
  75.7888709  53.0660600  16.0910617  51.2983632  52.2041456   7.7050007
  51.7009773  51.7784988   8.5252127  52.1405793  52.3761896   7.2091926
  56.0835630  56.2102848   8.6780085  56.1443151  56.9791765   8.0439643
  55.6447779  55.5656644   8.1132693  35.8764112  23.9045526  74.9723890
  34.9313603  24.0699512  74.9112995  36.0919322  24.7588831  75.4608439
  56.8939716  53.2485579  27.7456679  56.6934034  52.6177246  27.0033289
  57.6477445  53.7407367  27.4152129  18.1754695  51.4915410  23.0194565
  18.5362216  51.4356893  23.9419035  18.8185618  52.1453032  22.6643273
  75.4694839  53.3712984  32.2727625  74.7393379  53.4766753  31.6689357
  75.0733127  53.8175098  33.1139134  61.6192871  50.8595097  10.0696312
  61.0940061  50.9139180   9.2622779  62.5424230  50.6902160   9.8224003
  67.4841667  56.8236111  24.5710433  66.9920403  57.6471617  24.4625772
  68.1597909  57.0927042  25.2226476   0.7521347  54.7425679  24.1007474
   1.1688831  55.3900261  24.7158571   0.2288694  54.2164173  24.7519121
  77.7645174  56.9023694  20.2848371  77.2910101  56.1650891  19.8204980
  78.6837506  56.5686783  20.1625491  62.3485199  53.5389085  10.3022162
  62.1696201  52.6187278  10.0808022  61.4479746  53.9122902  10.3545929
  68.4010267  52.5801382  24.7536459  67.5636290  52.9511747  25.1258845
  69.0247481  53.3286865  24.8173295  62.1105781  39.8745140  11.9759823
  61.3251487  39.4042626  11.7313621  61.9812525  40.0100121  12.9672451
  75.2673949  44.9240865  27.3717008  75.4089961  44.4810194  26.5418407
  74.4575155  45.4463418  27.1557418  73.8342840  39.0634321   6.6025924
  74.3771977  39.3583899   7.3678326  73.8740675  38.1252302   6.8358549
  70.3873216  56.9215145  15.1623698  70.6364336  57.7790853  14.7122746
  69.5194307  56.7825915  14.7385053  73.3783595  50.2700267  16.2245261
  72.4101733  50.0962051  16.3704353  73.4800161  50.9329954  16.9480300
  66.4940789  45.7071337  29.0510866  67.1346941  45.7322165  28.3101532
  67.0636226  45.3283508  29.7400959   1.2382394  44.0003894  23.1104342
   0.7527358  43.1322677  23.2970202   2.0634669  43.6337748  22.6775919
   1.5809024  48.2262463  25.3115856   1.6786649  48.3663219  26.2791672
   1.7983935  47.2685747  25.2577541  60.2167389  55.7661897  24.7981000
  60.4698673  55.7266791  23.8277355  59.3004594  56.1793612  24.6339224
  58.3215878  41.8423987  20.3975543  57.7152814  41.6201700  19.6419752
  57.9081510  41.2039245  21.0535273  61.9099943  56.0466761  19.5695065
  62.0515390  55.1412196  19.9505123  62.7550716  56.4474520  19.9162743
  44.6296163   5.4643190  67.6895829  43.6935637   5.4744628  68.0970247
  44.3730930   5.1060218  66.8313697  60.8378265  51.1041790   7.3635547
  61.3125374  51.9871888   7.2569431  60.6839103  50.8368639   6.4489142
  63.0011373  49.2919864  35.1630555  63.8717559  49.6417743  34.9619288
  62.8831471  49.5145353  36.0536439  57.3132970  53.1548895  16.0143517
  58.0562877  52.5623602  15.8569028  56.8673732  52.7025708  16.7827499
  75.0376710  43.4591123   9.1699027  74.6727355  42.7138124   9.6722740
  74.5980505  44.2266955   9.6664141  67.5434610  33.9575497  15.1603644
  68.0605266  33.1391124  14.9758795  66.6833979  33.7740911  14.7475224
  62.3638930  47.6819659  17.6675124  63.2898447  47.2629005  17.6089642
  61.9563598  46.7836181  17.9505711  54.7806191  51.8668407  10.7193344
  54.6799985  52.3508422  11.5712981  55.1248035  51.0051353  10.9902872
  56.6963365  61.9565331  25.2049708  55.9182104  62.1271870  24.5783821
  56.6467153  60.9864790  25.1884390  58.7253735  48.9882120  24.4996202
  59.6688832  49.1376411  24.5382448  58.7067316  48.0468499  24.1332652
  31.1870369  75.4648390  64.9623610  30.2421442  75.5532139  65.2506555
  31.0147632  75.6233345  63.9986101  65.9038646  31.5254166   9.7579077
  65.7691629  32.3915158  10.2222885  66.4798572  31.8167534   9.0399809
  55.5148165  60.1838876  22.3992059  55.0659888  60.5135631  21.5671843
  55.1083875  60.8042078  23.0618469  62.2753655  62.0491488  27.0519941
  62.0729834  61.3949510  26.3690692  61.9150557  62.8887853  26.6630071
  59.1139015  52.5918288  24.2514967  58.5180947  52.0718747  24.8112940
  58.5766157  53.3651825  24.0693729  39.3807981  29.5713266  80.4115893
  40.3415097  29.5122739  80.3761898  39.0789685  28.6683787  80.5631435
  53.6322788  41.8201903   2.5417549  52.6616092  41.7356720   2.4678940
  53.7837854  41.3829387   3.3836143  52.4824743  65.5133335  24.9099990
  52.9756025  66.3737215  24.9450055  52.8246616  65.1307814  25.7351488
  49.7152736  15.5789180  69.3647358  49.4065421  14.9048129  70.0325177
  48.9782400  15.5924251  68.7222887  62.6538389  54.4359366  36.8298547
  61.9606363  53.7927342  36.5166573  63.3662415  54.1773415  36.2269826
  78.4278970  59.9047296  28.5260880  78.5788704  59.3758323  27.7542672
  78.4360634  59.2570478  29.2457904  56.5340548  37.8977446  75.0962141
  56.6981534  36.9476237  75.0589487  55.8511856  38.0125870  74.3886009
  69.4306688  50.3568188  22.0925454  69.7779320  50.7644574  22.9295954
  70.2363049  49.6651394  22.1015308  53.1198699  32.9327902  85.0275659
  52.5558805  33.6782125  85.2432969  53.0593032  32.4076927  85.8467234
  24.4985571  -0.3528278  24.1112286  25.3826888  -0.3178545  24.4650803
  23.9506519  -0.5147864  24.9092260  69.7023374  63.8283407  22.5764001
  70.4579776  64.2011367  22.0414848  69.1820600  64.6759588  22.6620152
  54.3779662  38.6884074  79.0094893  54.9820499  39.2527374  78.4153383
  53.9862495  38.1282053  78.2589760  26.6554042   3.0489694  32.3516403
  26.1582536   3.2562692  31.4643977  27.0716326   2.1809359  32.1122435
  34.9531784  37.5616068  82.9760885  35.3245987  38.4234623  83.3057660
  35.7886036  37.0784718  82.8604356  44.0832831  35.4734732  77.0758157
  44.5689476  35.5631761  76.2451551  44.8206944  35.3968088  77.7190097
  75.2320517  53.1728313  24.2396451  74.6150756  52.7347552  23.5760797
  75.9160917  53.4707434  23.5658574  62.5726987  65.8224854  24.4555366
  62.8677764  66.3449262  23.6848979  63.3448376  65.9082466  25.0553014
  51.4336045  31.4086345  77.2421579  50.6418994  31.0518681  76.8997541
  51.9111366  31.6511863  76.4361307   4.7329070  63.9510771  25.8323228
   3.8185669  64.1459964  25.4885494   4.7491091  63.0383669  25.6041197
  28.5427565  -2.7231956  23.1033215  28.0417359  -2.0515925  22.6687544
  29.3930627  -2.3790079  23.1612282  26.9581885  -3.1824431  25.7915881
  27.4183716  -2.6628740  25.1562674  26.0921904  -3.3591375  25.4875720
  54.2971492  36.1875239  80.7126126  54.4867197  37.0272231  80.1636082
  54.7346712  36.5171382  81.5409782  74.5008963  56.9898213  34.1714982
  74.3433890  57.9184186  34.4155233  74.5452332  56.5951045  35.0601624
  43.4493166  15.7338449  13.1287504  42.9218222  16.4332534  12.6958729
  43.0486406  14.9250602  12.7987356  48.8429970  10.3534583  12.2166372
  48.0141884  10.4921916  12.7521366  48.5780301   9.5252200  11.6814342
  46.0823290   2.3461082  13.3653471  45.8193989   1.8993907  14.1914970
  46.9328489   1.9610828  13.1581351   6.3924256  46.5498134  66.3942312
   6.8078275  46.0673848  65.6982603   7.0337406  47.2574313  66.5641832
  60.3601496  13.8669031  12.7535584  59.7051883  13.2176856  13.1352221
  61.1949024  13.3365359  12.8448917  19.1167812  67.5458816  13.4977073
  19.2788311  68.0206916  12.6427031  19.4553791  66.6355573  13.2539347
  43.7610312  20.5354378   2.5397408  43.3529186  21.0377783   3.2817398
  44.4678056  21.1513645   2.3205254  40.4301018  11.7788831  10.1978780
  41.2822392  11.5632867   9.7482972  39.8548311  11.5818788   9.4082304
  47.7465018  20.8058782   2.3213158  47.4052346  20.4733533   3.2102695
  47.1576656  20.3060296   1.7358802  24.4922493  73.2880031  15.9921108
  24.6797413  72.3903292  16.2584840  24.1279707  73.2076450  15.1033150
  47.3448234  16.0324808   3.3702038  47.3809842  16.3791872   2.4435493
  46.7712620  16.7419587   3.7299992  73.0661357  44.9228034  69.9679551
  72.9851535  44.1222106  69.4087997  73.3063098  45.6518365  69.4004030
  72.7202944  33.8922571  72.0224233  72.5225096  33.0962784  72.4802443
  73.2069836  34.3901481  72.7060283  74.0473617  40.6058975  70.3015873
  74.0886815  39.6018093  70.4470186  75.0711841  40.7336537  70.2790234
  28.7111352  72.7665907  21.6103755  28.1622040  73.2250016  20.9652012
  29.1651934  72.1102191  21.0414728  52.2984793  11.5933492  19.2969566
  52.7260503  11.7066178  18.4150208  53.0398428  11.9927973  19.8453020
  57.4075225  15.6721593   6.7976105  57.9013821  14.8783473   6.8870198
  57.0901674  15.7030031   5.8672947  72.9596694  23.9057779  13.3947012
  72.1165044  24.3984311  13.3145250  72.8810942  23.2515145  12.7224177
  50.3994457  17.0524532   6.6479096  49.4573399  16.7774582   6.7774421
  50.8383360  16.3136768   7.1157838  58.9177070  20.1468143   5.2982557
  59.4326078  20.8926623   5.6690766  58.0969143  20.6494027   5.0399473
  16.9965355  50.8205117  65.7332942  16.9304394  51.6125781  66.2939277
  16.3676988  51.0321569  65.0159115  10.0986812  53.5514224  69.9581008
   9.5714583  54.3438789  69.7473865   9.3486661  53.0058450  70.3783395
   6.2565677  60.0255695  50.8416780   6.2399262  59.2191154  51.4040796
   7.0532669  59.8573636  50.3254741   8.0809804  47.2849892  62.9508558
   8.1215844  48.2291512  63.2724188   8.9743929  47.1370978  62.6794557
  56.1877602  26.4725273  -1.4823359  56.2181243  25.7162816  -0.9526893
  56.6145785  26.1447941  -2.2930802  59.3868775  12.3471184  21.0894222
  59.2948998  11.5633579  20.5642613  60.3524190  12.1807659  21.4240837
  56.5896225  18.2805214  17.1246507  56.2744401  19.1503476  17.4115111
  57.5358467  18.4093015  17.3641455  64.1936871  28.5740684  12.4272544
  63.3574634  28.1648644  12.6766919  64.0815182  28.7083976  11.4808167
  76.8486384  38.1365502  67.8324342  77.2092613  38.6646804  68.5984730
  76.9684918  38.9113309  67.1619382  14.8447369  54.9973688  61.1524072
  15.7123756  54.6332950  60.8643567  14.9276533  54.8225572  62.1209035
  19.5927882  52.3423942  65.0896057  19.3305131  53.1167959  64.5443329
  18.8045617  51.7792096  65.1653394  68.8883548  18.2956146  13.8654736
  68.2143378  18.9690111  14.1574611  68.7253124  17.6179083  14.5207120
   9.8911506  50.9569821  57.1434133   9.0850845  50.4178635  57.0544104
  10.5243734  50.3120441  57.5288528  51.3955163  25.1405553  -3.0909232
  50.6445993  24.5085850  -2.8666223  51.6842508  25.2260131  -2.0864174
  61.2802529  10.9558083  14.5322097  60.3638425  10.6400333  14.1976376
  60.8548941  11.3389351  15.3887978  63.8798892  30.3859030   5.2880572
  63.0426005  29.8764615   5.2342691  63.8737589  30.7527955   6.1821844
   7.7209070  43.5286644  71.7453754   6.9123392  44.0531491  71.7358065
   8.3617270  44.2203824  71.6485898  68.9185812  58.9631257  64.2042330
  69.5970145  58.3547561  64.6306877  69.0836637  59.7791384  64.7089178
  29.3521935  66.2400655   9.0323548  28.6269779  66.5605540   8.4899356
  29.1203825  65.2804378   9.0665245  46.2295703  25.0744101   0.6888794
  45.4651511  25.6583863   0.3870723  46.3865632  25.5196672   1.5820131
   7.4546538  46.0984691  69.1489509   7.9334414  46.4643636  69.9001422
   7.2970350  46.9094241  68.6194081  45.5217008  22.4488825   1.2860288
  45.9659635  21.8998860   0.5916846  45.6131539  23.3227117   0.8849795
  59.0818938  15.8372767  22.9296283  59.5851158  16.5624759  23.4433230
  58.7067431  15.3680874  23.7250127  52.8517115  28.2430414  15.3694600
  51.9362900  27.9102377  15.4514480  53.2553240  27.5332878  15.9762594
  57.2471012  37.6006313   4.7562801  56.4998555  37.5902746   5.4248295
  58.0119300  37.6123108   5.3721080  62.6676864  12.4180572  11.6782689
  63.4194895  11.8225879  11.5929802  62.5928736  12.8075161  10.7838818
  52.3360973  25.2987339  -0.4185080  53.1596210  24.9944659   0.0844984
  51.8568300  25.6947240   0.3122935  60.8653403  16.7014708  13.3667791
  61.1803093  16.5386200  14.2327674  60.7197273  15.9250341  12.8736841
  62.2934766   8.9063543  12.0697611  62.0329771   8.1422512  11.5469984
  63.1975488   9.0989637  11.6214989  61.4352083  26.3496905   6.3849959
  62.1309531  25.6199171   6.3359634  60.6477779  25.8102247   6.2892318
   5.0638106  62.7504527  60.5702163   4.3937563  62.0371829  60.2947244
   4.9811790  63.2911330  59.7304736   3.3403208  47.2858924  65.1891127
   3.4458139  46.8553384  64.2534379   2.5989005  47.8999570  64.9077262
  55.7267786  17.7001371   1.8152814  56.1845407  16.8827222   2.1204593
  54.7791791  17.4439143   1.8203345  68.4539315  26.7835794  13.7300897
  67.6591042  26.4268255  13.2726118  68.2039359  26.8155665  14.6424686
  58.9668502  23.6965282   9.3299442  59.8346575  23.2335129   9.1374178
  58.3927131  23.0051499   8.9781812  54.8067730  22.2025965   9.0404479
  55.0436212  22.2140839  10.0188989  53.8452352  22.3323688   9.1334720
  69.1755799  39.4112788   5.4722865  69.5982507  38.5441781   5.2707082
  69.8466438  39.7803233   6.0540043  52.2850098  25.7674925   3.6730479
  52.9758719  25.3532277   3.1306263  51.8672234  26.3252056   3.0245530
  57.9683066  13.0091052  13.7947617  57.0538696  13.3199313  13.6474713
  58.2564095  13.7040324  14.4336794  55.4411175  28.8808337  15.5551357
  55.7618810  29.4328819  14.8126235  54.4519661  28.9060041  15.3328756
  73.5779364  15.5805476  20.6955434  72.8345080  15.2696294  20.1035832
  73.2916303  15.1020201  21.5157232   6.6949942  39.5844678  66.6053956
   6.0797855  40.2211934  66.0861770   6.0682611  39.3340622  67.3110735
  53.2307128  20.4852552   6.3177520  53.9841897  20.4234516   6.9004707
  52.4747268  20.2415756   6.9624653  16.9636312  46.6697736  65.7949848
  16.2607886  46.3807820  65.1368403  17.4258020  47.3052835  65.2313119
  76.5712923  41.2217368  70.4880660  76.9953730  41.6768047  69.7623942
  76.6446126  41.9165395  71.2034655  57.8442596  33.8982281  20.2288956
  57.8662642  33.1911470  20.9012455  56.9360900  33.8360549  19.9020797
  53.7292631  26.8753006  -4.9348107  53.6226087  25.8930916  -4.7869198
  53.9237489  26.8425011  -5.8882881  58.1267272  27.7486148   3.8774210
  58.9478840  28.2506336   3.5781506  58.4813899  26.8522244   3.9310353
  59.3775472  27.0907450  12.9877971  60.0699471  27.7707576  13.0908167
  59.6211398  26.6656090  12.1548069  61.6120221  23.6234894   4.2859962
  61.1700207  23.0789028   5.0267976  60.7631737  24.0734989   3.9509941
  58.3658268  10.3876732  14.0123529  58.1878004  11.3556944  13.9069714
  58.4860192  10.1788113  13.0852082  50.7703337  23.7542441  17.4662268
  50.9693852  23.9555963  16.5130852  51.1230404  22.8134733  17.4582688
  65.5197633  34.0002574  -0.2485960  64.9916215  34.7829690  -0.0208808
  65.1853968  33.7762811  -1.1467682  52.6466017  37.6610012  11.6857569
  52.0235566  38.1170123  12.3229161  52.9174289  36.9229859  12.2574496
  56.4220133   6.9275062  15.6279417  55.6492898   7.1467343  15.0400790
  56.0606047   7.1299411  16.5162148  66.6218631  25.4313933  12.2534599
  65.6857678  25.0421185  12.2748429  66.6097725  25.4792712  11.2531783
  56.3200718  20.5543371  20.1161243  56.7530650  20.8346329  20.9176338
  56.0571689  19.6606550  20.3105855  12.6970084  54.3224489  70.6038023
  12.8595198  55.1186685  70.0555593  11.9139943  53.9681892  70.1719403
   9.8966417  57.7570172  67.6657448   9.3662789  57.4339427  66.8859333
   9.5924261  58.6758444  67.7050962  13.0254256  47.2324931  71.2976303
  12.7089027  46.5066690  70.6607840  13.9533585  47.2646227  71.0324390
  56.4064993  23.1169522   1.7664677  55.9664305  22.2847355   1.9914079
  57.2863815  22.7130239   1.4086081  22.3095833  57.3204206  61.1942645
  22.1179798  58.2070797  60.8780512  23.1978437  57.1388448  60.9995415
   4.6528536  49.0743272  66.5740283   5.2200187  49.4585417  65.8673000
   4.1629712  48.4062838  66.0062908  55.9229987  10.5571843  26.8090531
  56.4586713  10.4085894  27.6371318  56.0676517  11.5236509  26.6901774
  20.6052276  42.7961733  65.7859522  20.5900682  43.7343306  66.0078137
  20.5548026  42.3750945  66.6677105  57.4319950  20.3040567  12.0199272
  58.2478746  20.7225608  11.7010164  57.7606943  19.3798736  12.1195678
  57.8841130  31.3509709  21.3933247  57.1978804  30.7130976  21.4823601
  57.9510630  31.8366122  22.2335302  64.0570633  21.6584435   5.9830774
  63.7845683  21.4337752   6.8916692  63.3514291  21.2397532   5.4639811
  53.3185210  15.3061202   6.9042039  54.1316960  15.6937175   7.3620626
  52.7232709  15.2257202   7.7128862  45.0872268  21.1620059   9.7846710
  44.4162126  21.2075508   9.0729516  44.7131013  21.8123107  10.4093657
  51.2912642  25.6123784  10.2441029  51.9347424  25.0200737  10.6458231
  51.6528219  26.4687177  10.5800958  48.4569124  28.6049804  -0.6853646
  49.0838012  29.3521288  -0.4029773  48.3295343  28.1747211   0.2459389
  55.4774124  16.4356769   8.4509210  56.1060469  16.1071771   7.7514940
  56.1578495  16.7428304   9.0760954  13.1493934  53.3002563  66.4593086
  12.3717499  53.8813360  66.7199841  13.7271903  53.9985708  66.1236454
  15.1412368  54.7659147  74.0677058  15.9065953  54.8179501  73.4189396
  15.3438499  55.5817026  74.6107316  69.6539490  15.0938309  20.3824762
  69.1473424  15.0395905  19.5381681  70.5428199  14.8280196  20.0759952
  54.7825434  24.0961678   7.3072243  54.5330380  23.5983962   6.4765113
  54.7344623  23.3791621   7.9642155  30.4145128  45.4200081  53.0206351
  29.9880940  46.2242802  53.4143522  30.6783616  44.9390806  53.8462185
  58.8040615  14.7351348  15.7071670  59.3761919  15.1949267  16.3249448
  58.3383881  15.4511387  15.2344156  64.3568836  24.7413937   6.2864010
  64.4894526  23.8031473   6.3817344  64.3224641  25.0688795   7.2315600
  62.1386973  12.9096928  17.5365135  62.4962997  13.7795474  17.5749854
  62.3898269  12.6030646  18.4820996  56.1499570  14.4499108  20.3883687
  55.8656095  14.8520613  19.5711355  57.1067436  14.3074123  20.1572577
  56.6793740  24.7094102  11.0163264  57.0787919  24.2229014  11.7684613
  57.4441308  24.8598229  10.4788467  56.2213657  23.6444241  15.2597289
  55.6691332  24.4504172  15.3400707  56.1915308  23.2570810  16.1771215
  52.2032432  14.3432318   3.3745764  52.0810285  15.2491405   3.6017571
  51.2790565  14.1281945   3.0950627  52.0324411  17.6807641  10.7705422
  52.0272102  16.7426702  10.5697754  51.2304683  17.7350468  11.2928527
  48.2606546  31.7149250  -3.0975967  47.3740418  31.6118589  -3.4439928
  48.6855258  32.0865426  -3.9163868  53.0795987  10.3542406   3.2724458
  53.9642271  10.0429894   3.3632478  53.1176203  10.7917612   2.4000208
  10.8668813  54.2921255  67.4067787  10.4853123  54.1101532  68.3107356
  10.2073017  54.9736790  67.0969147  52.7904068  30.7339998  17.1119311
  52.4605860  30.1676972  17.8623708  52.8456751  30.0247859  16.4288654
  54.0384757  35.0239754  -1.9858865  54.4802883  34.1592543  -2.0264994
  54.4344177  35.3980654  -1.1638527  48.1841992   2.5405150  16.3601129
  48.3498790   3.4883202  16.5558626  48.7171018   2.1402908  17.0548117
  48.6171612  25.1560674  -0.1601444  48.9202776  26.0147063   0.1524680
  47.6656268  25.1274981   0.0153508  59.4663809  37.8553071  -0.9390888
  59.9867014  37.2753551  -0.4075940  58.7444693  37.2834931  -1.2675149
  62.6285084  31.1538412  10.5938745  61.9925134  30.9363965   9.9037884
  63.2573462  30.4247713  10.4414265  67.4913209  30.3712564   5.2574742
  66.9550256  31.1943288   5.2841368  66.8965779  29.8055552   5.7788925
  56.5663630  30.1587342   1.6584562  56.3660546  29.7469463   2.5810566
  57.5476037  30.3004589   1.8679642  60.7882264  29.9197636  -1.7069407
  59.9399922  29.9221000  -1.0859951  60.4338183  29.2168560  -2.3130806
  16.0438958  69.2420600  63.0502515  16.8999224  69.0810968  62.5635998
  15.6367158  68.3082102  62.9881796  68.3405398  37.5035922  18.4576660
  67.8691089  36.6530911  18.2848914  67.8971695  37.8631328  19.2500543
  61.1249976  28.2230863   8.5202755  61.4179491  28.0066725   7.6063738
  60.3702329  27.5824108   8.5972051  55.4621154  30.9422537   7.5491671
  55.8974102  31.6147732   8.1771780  55.1011402  31.6271284   6.9168856
  59.0696198  37.0606593  16.9778535  58.2117221  36.8125980  16.6038926
  59.5295473  36.1512480  16.8538459  62.9015920  23.8133107  10.0289105
  63.3788911  23.5048076  10.8655222  63.4076144  24.6397941   9.8484745
  21.8840787  60.6824538  73.6510631  22.7511171  60.8191691  74.1280239
  21.5622904  61.5940598  73.7411834  24.9933819  69.5141369  72.7113623
  25.7850009  69.7259378  72.2815152  24.9764698  68.5529908  72.7647557
  20.9382738  64.6606847  71.1085422  20.3319580  64.1106044  71.7243097
  20.3246292  65.4063314  70.9898699   8.0152550  33.1010395  14.6998863
   7.4658555  33.8456092  14.3678454   8.0271247  32.5328652  13.8685767
  14.1493548  67.0204944  63.6120346  15.0545310  66.6191264  63.5079167
  14.1931822  67.3162374  64.5499025  65.5026271  28.4718451   3.3924904
  65.1071881  27.7444636   2.8854038  64.8730829  28.6701408   4.1198549
  73.2648198  31.3965537   9.1475273  72.4556497  31.7738399   8.6586011
  73.6695008  32.2170909   9.4980682  50.1550403  12.0602578  73.5779799
  50.2849130  11.1061742  73.6224344  49.1890865  12.0932955  73.3054560
   7.4159455  52.7416671  60.5959111   7.8404648  53.6061369  60.4505302
   8.2042602  52.1467086  60.6183388  62.8916395  39.0329419   3.6514793
  63.0899031  38.7580975   2.7315305  63.4654727  39.8537213   3.6909682
  58.4505033  17.7039163   4.2742416  59.3135199  17.6997690   3.8883291
  58.2706386  18.5860417   4.5905621   0.8153688  16.9818829  20.2575882
   1.0542943  17.8015901  19.7550841   0.6183410  16.3561467  19.5572752
  50.9916625  22.2390938  11.7922785  51.5469014  23.0743956  11.8717900
  51.8093153  21.6227821  11.9100244  65.3883356  19.8331801   9.9497813
  65.8664282  19.9774466  10.7498075  66.0440729  19.9060426   9.2763654
  12.4201232  57.8797104  66.6029206  11.6175897  57.5949203  67.0411839
  12.7639208  58.5614813  67.2394941  74.6965517  35.9103746  26.4791411
  74.3446449  35.0413539  26.5368162  73.9392481  36.2937920  25.9524310
  49.4507078   9.1335424  61.2590787  49.6612367   9.6986012  60.5081089
  48.7178598   8.6162101  60.9323951  42.7732293   8.3732560  70.4846540
  42.7285711   7.3562713  70.3532230  43.1177181   8.3252935  71.4081962
  62.0134972  37.8042577   5.9949458  62.2401724  36.8611089   5.8637334
  62.4146727  38.2057980   5.2038926  17.5286239  71.9911872  64.6647085
  17.1235499  72.7779817  64.3259515  16.7407708  71.4690935  64.9241048
  61.1394428  33.3962179   0.7843383  61.5716539  34.2549398   0.9665942
  61.7778301  32.7999498   1.1003616  72.3668019  33.4579851   5.5124095
  73.0165842  32.7427985   5.1886431  72.2738764  33.9563417   4.6792709
  24.8699722  58.0659180  60.4041183  25.0329423  58.9601305  59.9623904
  25.2032025  58.1934284  61.2753772  35.2599300   5.1811792  63.9909094
  34.9655231   4.9526270  64.9138649  34.9958702   4.3506841  63.5553837
  40.0878409   6.6316423  65.3266586  39.4535707   5.9064773  65.3728362
  39.8436941   7.1801626  66.1165427   4.9445480  64.4642161  55.4689800
   4.3145907  63.7379903  55.2279460   5.2163447  64.7597190  54.5559450
  60.9386309  27.7660809   2.6963886  60.4569951  27.1005581   2.1636963
  61.8534425  27.6070458   2.2852440  17.1762854  61.8139027  66.7239917
  17.0762349  60.9321064  67.0359731  17.4910175  62.3092134  67.4710751
   5.2316287  36.0401131  19.2041613   4.9786349  36.0287296  20.1167930
   5.7491297  35.2640079  19.0976937  61.1221207  22.2441018   8.6022721
  61.7489066  22.8734681   9.0730532  61.4548750  21.3779310   8.9586382
  39.8147244  11.4624662  69.9632397  40.7733696  11.6411516  70.0101560
  39.7999193  10.5233408  70.2368901  64.4473387  42.5656520   7.9161384
  63.8497570  42.2831655   8.6012324  65.3021985  42.5139499   8.2566046
  63.8211138  37.4841990  20.3896950  62.9525504  37.1624620  20.0417034
  63.4851192  37.9820131  21.1455873  32.1241466   4.0809831  60.6833323
  31.5150571   3.9214641  61.5132327  32.6853766   4.7981388  61.0872666
  76.3104532  31.1901342  12.2818766  75.8227933  31.4468105  13.1345130
  77.1745763  31.6698616  12.4426863  54.4014981  34.9071230   9.2352750
  54.9551689  34.2397272   8.7669482  53.6472168  34.9474514   8.6206170
  70.5278043  34.0742400   9.7212638  70.4875874  33.6666092   8.8182429
  70.1399757  33.2967735  10.2590340  57.3193956  21.8548523   7.6967312
  57.1366348  21.7653888   6.7405331  56.4055495  21.9122792   8.0260793
  65.7259824  29.0086518   6.9593055  64.9249185  29.3549343   6.5468445
  65.3850330  28.5016785   7.7032212  70.8872029  47.5709828  10.5833301
  71.5926982  47.6340826  11.2925677  70.3068863  48.2920277  10.9383331
  60.0175165  40.8616715   4.0943068  59.0602677  41.1737057   4.2942470
  60.3299031  40.8642811   4.9768306  66.3659735  37.3402984   9.3447881
  67.3131900  37.6474819   9.3103642  66.4591969  36.9379832  10.2782581
  69.1136156  27.5846078  10.8349867  69.4913603  27.8097782  11.7221449
  68.7128203  28.4565619  10.6233164  55.2185799  35.8776313   0.5270557
  55.7365819  36.0146019   1.3737730  54.3929494  36.3031096   0.8798031
  30.5548391   3.9259410  62.8890063  29.8092273   3.2682353  63.0610026
  30.6937386   4.2352672  63.7793617  68.2317555  31.2792496  14.1472594
  67.5118155  30.7617697  13.7126551  68.2612962  30.9165255  15.0572273
  15.6153652  54.3800624  63.6416242  16.6022465  54.5549318  63.6926648
  15.3630257  54.6563639  64.5202393  53.0734083  31.9108173  20.4606706
  53.0316071  30.9835233  20.6614141  52.1807965  32.1966810  20.5953637
   6.4131239  43.0894696  25.6732460   7.2651746  43.5637607  25.7716489
   6.3150188  42.6595198  26.5321735  10.7872874  66.9075194  63.7669382
   9.8814985  66.9604637  63.5693727  11.2018837  66.7984360  62.8640215
  18.8367015  61.0084266  74.3547806  19.3578624  61.7682002  74.2351275
  19.5433605  60.2760935  74.2791353  21.8234699  65.5056612  64.9123785
  22.5367267  65.6801608  64.2421182  21.7290882  66.3896535  65.2954801
  56.3714745  28.8823320   9.2152842  56.1700215  29.4409261   8.4750389
  55.5020194  28.5115408   9.4333070  20.9846691  59.0465006  71.8359227
  20.8022459  59.6053764  71.0191125  21.1795597  59.7583560  72.4960284
  51.4463999  15.1906055   8.8713166  51.7045936  14.3179939   9.3995905
  50.5660253  14.8610852   8.6313346  17.3865650  55.4790828  56.2930970
  17.3897043  54.8488791  55.5305103  17.2410743  56.3333359  55.8851407
  58.7576475  24.5146123   3.2893408  58.9031959  24.8630700   2.3838383
  57.8106748  24.3583919   3.2578043  50.8362772  44.1694255   5.2440154
  50.1923788  43.9985258   4.5320793  50.4800216  43.5183651   5.9205789
  47.1381149  11.8193569  65.3410357  47.0809521  11.5367291  66.3085669
  47.6533240  11.0294310  65.0342707  65.9629978  42.1531088  11.1716842
  66.5685120  41.9831986  11.9741257  66.3902714  42.9455853  10.8439010
  58.1070257  39.5824461   0.9541561  58.4994060  39.2523862   0.1158034
  58.8133120  39.3728686   1.6123371  56.9332456  36.0011942   2.6508913
  57.8606252  35.8502993   2.4729408  57.0074018  36.6113444   3.4373330
  14.9372059  57.9885142  72.0418289  14.5479946  58.7751869  72.3468635
  15.7655572  57.9274640  72.4707733   8.2386456  47.1356470  23.3824406
   8.3550058  47.0687223  22.4328424   7.9818931  46.2487654  23.6663175
   6.1732427  39.8773267  12.3862862   6.2994854  40.5342821  11.6730988
   5.2407756  39.6234203  12.1478617  70.2360732  38.4473283  16.5368406
  69.4542207  38.7691147  15.9917378  69.7098303  38.1849217  17.3182944
  64.5660413  23.7137224  12.6134182  64.8487169  23.2290737  13.4234827
  63.7343147  24.1105134  12.9850375  70.4619802  32.8771914   7.4445304
  70.5053594  31.8942292   7.4782064  71.2078037  33.1343849   6.8897977
  23.7923366  63.1680240  60.2560038  24.6066810  63.5042675  59.8999500
  23.1892822  63.9344615  60.1465946   3.0215155  30.4135051  18.1645462
   3.7150675  29.7613034  18.3764287   3.1118394  31.0209534  18.9347990
  61.7523563  28.7629387   5.1522184  61.4415257  28.6524455   4.2611846
  61.6056276  27.9330943   5.5704436  15.2924591  70.4106931  65.3660281
  15.5484907  69.8184949  64.6142916  14.3689790  70.6342675  65.0201058
  70.4130296  23.4361693  15.7520983  70.1856586  23.7975823  14.8469410
  70.3054939  22.4727397  15.5345891  65.0064265  33.0524123   3.7685030
  64.6777399  32.2718761   4.2695878  65.0668460  32.6882462   2.8687439
  69.6739884  33.2605518  12.6438872  70.2442123  32.7090434  12.0509360
  69.1069919  32.4915628  12.9430365  13.9806425  59.3668926  68.6652964
  13.3827656  59.3944867  69.4196378  14.1043428  60.3330622  68.4629789
  67.7137907  41.9734788  13.0309809  68.0547050  42.9338771  13.0973714
  68.6091052  41.5391895  12.8456069  65.3374984  40.6728403   3.6339164
  66.1066470  40.1465408   3.6368090  65.6754988  41.5450808   4.0732812
  44.0041049   1.6071946  66.1223796  43.9102891   2.5901140  66.1715629
  44.5069764   1.4487967  66.9541727  67.4659921  39.0620189   3.2029252
  67.5813808  39.8516050   2.6816638  67.9821542  39.2315311   4.0393623
  60.3688528  33.7702837  19.3369019  59.4576863  33.6481355  19.6655507
  60.1126626  33.9470590  18.3743433  75.6764320  20.7805313  22.7511580
  75.3958252  20.6188072  21.8076887  76.5380362  21.1851421  22.6074604
   9.2848692  69.4102714  61.5489166  10.2407256  69.3537412  61.7890546
   8.9111363  68.7534316  62.1793574  67.4490779  20.7797120  13.6326203
  66.4877090  20.6566032  13.5856567  67.4932783  21.7283582  13.7889164
  24.6110662  58.5829699  75.7418954  24.3929683  59.5157768  75.5863527
  25.3710766  58.4746547  75.1642534  50.2895522   9.4747352  74.2820189
  49.7299972   8.6936283  74.1938583  50.3198244   9.5821962  75.2681486
   4.4386902  33.5440510  12.4326676   4.9808714  34.2905012  12.8206153
   4.2487641  33.9270826  11.5578282  77.9110904  34.9772978  15.3676142
  77.1962075  35.4138454  15.8427628  78.0511537  35.5285738  14.6346019
   0.6615207  42.5197121  20.0313668   1.6155032  42.4007074  19.7734977
   0.2884406  41.7428878  19.6881591   6.1199851  46.0775244  12.8904538
   6.9728049  46.3817263  12.5085343   6.0411639  45.1849406  12.4487736
  42.8170551  18.5090219  72.1185504  42.6082091  18.8111006  71.2046271
  43.2492665  19.3514285  72.4909196  46.2153731   8.5181457  68.8143930
  46.6527020   7.6981983  68.6673944  45.3143943   8.2887894  68.4512606
  45.7600359   1.3794859  68.2060087  45.4907244   0.4717950  68.5735107
  46.0597791   1.7542605  69.0393198  68.9132481  42.4869731   7.2766744
  68.3586682  41.7212915   7.5906679  69.2904065  42.7611342   8.1250689
  39.7570286  10.8244582  64.7732685  39.1551455  10.8812652  65.5530543
  39.4149339  11.5707896  64.2266219  45.0139978  12.4919334  63.9508665
  45.9033189  12.0705818  63.8903020  44.9954694  12.7626441  64.9140635
  68.1460669  36.5649310  14.0455861  67.8085994  35.7634403  14.4913432
  69.1078824  36.4544308  14.1874738   8.3815804  44.3803778  15.9237835
   8.9660028  44.3687579  15.1280702   7.9650565  45.2422854  15.8119568
  74.0235979  51.9208446  18.2497281  73.6937206  51.5586884  19.1375265
  73.4305068  52.6819620  18.2447724  39.4993444   7.6999145  67.6850036
  38.6008314   7.3444529  67.8180380  39.7823652   7.8929591  68.6020663
  76.8322484  47.1249204  12.6527009  76.9253846  48.0717766  12.3780491
  77.7354723  46.8967276  12.8179885  63.0452184  34.8659931   2.2705897
  63.5764233  35.6158453   2.5829576  63.6838618  34.1504703   2.4217771
   8.8296727  53.7076725  53.2335992   8.3723151  54.0583517  54.0273845
   8.2708043  53.0092172  52.9145527   1.5770809  65.9881574  48.6041885
   0.9957921  65.6043434  49.3088653   1.0082304  65.8647721  47.8269880
  15.4446159  67.8464451  52.1848427  14.6119732  67.8137024  52.6427594
  16.0188784  67.3536834  52.7956605  58.9339404  34.1061539  -0.5474484
  59.8753408  33.8048288  -0.2484540  59.2522534  34.5206948  -1.3839001
  11.6888577  58.5826142  46.9108817  12.5663301  58.5245636  47.4272866
  11.1422001  57.9956722  47.4964182   0.0319951  63.9265086  43.0097935
   1.0340661  63.8854583  43.0283893  -0.0894707  64.4117500  43.8553433
  31.7444871   2.7934243  48.0625126  30.9894174   3.3446380  47.8536974
  31.4249717   2.2168751  48.8049769   5.1193240  62.7602793  48.2545711
   5.0901185  63.6904235  47.9687945   5.8119987  62.4637480  47.5456734
   2.5583651  63.3055720  44.0452802   2.4775228  64.2570701  44.4517297
   3.4157418  63.1249726  44.5098295   2.3834723  61.6677216  41.7834570
   3.1499586  61.3345032  41.2914178   2.7521032  61.9775512  42.6287257
   6.3507627  48.7956744  44.6171572   7.0502564  48.1229338  44.8036522
   6.6001769  49.1065446  43.6860936  17.8088222  63.3645322  54.8512232
  18.7148418  63.1350724  54.4999957  18.1261530  63.7777519  55.6704134
  74.9279822  54.5191554  51.5739405  74.7354827  54.3358551  52.5420366
  74.0335114  54.2904352  51.1895415  16.4921075  67.5321371  49.7750378
  15.9788838  67.8422445  50.5147528  15.8474100  66.8672217  49.3751141
  35.1795086   2.6915447  63.0458810  34.4814540   2.0070260  63.1775241
  35.6472936   2.3196463  62.2839664   9.4507398  62.8873661  63.7257384
  10.1977784  63.3953997  64.0316035   9.4500017  63.2175594  62.7725516
  70.3900208  30.1371604   8.4050931  71.0785494  29.7479538   7.8797653
  69.5513177  29.8551818   7.9484991   7.7219987  57.4322058  41.2305462
   8.0129595  56.5866326  40.8273036   7.1255298  57.0836500  41.9445712
  43.0429907   0.0428815  45.2843370  43.2123220   0.7258769  45.9586782
  43.9514747  -0.1959283  45.0390509  33.4353860   3.7840549  45.3634698
  34.2246249   3.8437602  45.9237277  33.5950220   4.4018952  44.6438082
  13.4643667  62.8372659  51.1829987  13.4670407  62.9693404  50.2211249
  13.9212385  62.0092566  51.3224432   7.0011751  64.5465720  43.6616495
   6.5817425  65.0824225  42.9356951   7.2669592  63.7738606  43.0776469
  29.8300338  -0.9217835  58.6641270  30.1246460  -1.8178923  58.8705407
  29.7060336  -0.5411494  59.5476140  26.3316645  -6.1004837  50.9917886
  27.0031950  -5.4076960  50.9056359  26.6786783  -6.7383135  50.3259422
  13.1043544  68.5795631  48.5092634  12.4711255  68.7978537  49.2602104
  12.4924127  68.4517327  47.7623083  34.1677959   7.4610439  45.3844111
  34.8152650   6.8705566  44.8936316  34.7637515   8.2024409  45.5585119
   1.4241516  65.8763456  45.1415237   0.6886520  65.8945474  45.7843672
   1.4487727  66.8316084  44.8616731  33.3903375   9.0647220  48.6230213
  32.9826102   9.1017596  49.5594991  34.3022113   8.9719285  48.8779088
  35.7425977   7.2017664  50.6647833  34.8298582   6.7786269  50.4450283
  35.5415209   7.4191991  51.5724345  24.8774624  63.8487184  43.5514050
  24.1420263  64.4234872  43.2391367  24.4183197  63.0993478  43.8542418
  16.9734576  60.8944330  58.2891079  16.0904146  60.6270868  58.5338831
  17.3190059  61.1491432  59.1522967   2.4732980  35.2279913  32.3100145
   2.9282350  36.0304975  32.7241383   2.7914225  35.4027003  31.3703962
   4.5245657  38.2612014  49.4165337   5.1569735  37.9873314  50.1723288
   5.2016242  38.2346232  48.7085782   1.0344468  40.0944813  51.6096476
   1.2022932  39.5820647  50.7536643   0.1010965  40.2970984  51.5262906
  76.1101221  31.3367232  44.6735631  76.6069737  32.1616726  44.7672313
  75.3906751  31.4770047  45.2990764  13.4055935  42.9422326  37.0602337
  12.5275855  42.7464768  36.7091471  13.7651245  43.5308693  36.3733214
  77.8109935  50.3934697  42.8644050  77.7765016  51.2879261  43.2535175
  78.5944050  50.0176431  43.3668368  14.9578529  55.6182570  52.0207324
  14.4932221  54.8665349  52.5184351  14.2979072  55.7133320  51.2963979
   4.8824761  46.7504559  35.5279179   4.9207164  46.4669686  34.5778378
   4.2845548  46.0298975  35.8967131   2.9125462  31.8083114  49.6138062
   2.0009573  31.6742491  49.9944669   3.3062768  32.3084719  50.4248110
   2.2369046  36.5896635  49.4858964   3.0065889  37.2033224  49.5533340
   2.6111552  35.8786629  48.9404939   7.6300992  39.1027753  45.2666016
   6.7537903  39.5766239  45.4327938   7.5796830  38.9705958  44.3138290
   7.1916602  21.5038437  42.6231998   6.7472690  20.6400005  42.6720060
   7.0942894  21.7384585  41.6737420  16.0992452  53.6984388  31.5580596
  16.3207970  54.1741704  30.7198473  16.9852400  53.2421650  31.6289458
   3.1741241  44.8040556  49.1951476   3.1102504  44.5116945  48.2590663
   2.9986107  43.9233570  49.5861538   2.0810459  41.7397121  40.1668517
   1.5337821  42.3207232  40.6898104   1.4969518  41.4875421  39.4312554
  10.3439404  64.6272029  34.7324488  10.1870885  64.9872998  35.6200572
   9.4092833  64.3448515  34.5122360  73.0464111  47.4306284  39.7770750
  73.8298196  47.3411083  39.1784161  73.0393672  46.5327599  40.1744889
   0.8643332  52.9735833  45.1996524   0.9675095  53.2156714  44.2230002
   1.7805704  52.6305107  45.3817631   6.9877454  58.6273098  37.5436864
   6.3587876  59.0281988  36.8854085   6.3943433  58.6638389  38.3588732
  23.9401131  62.4533320  39.6678877  23.3859593  63.0827228  39.1348358
  24.6844972  63.0912046  39.8794074  20.4746125  54.1170138  47.3383813
  20.0194853  54.1131615  48.2065463  20.4396747  53.1304300  47.1635362
   2.8230283  61.7589822  32.0268273   3.6905672  62.1309784  32.3202992
   2.1819755  62.3750885  32.3374450   2.1224818  63.5027574  39.9609119
   1.8896909  62.7431324  40.4951095   2.4755944  64.1171742  40.6297901
  78.7820102  48.6870718  34.3388694  77.8140735  48.5758427  34.4967573
  78.8822742  49.6681741  34.4040067   7.8024846  41.9152784  40.4518711
   6.9808848  42.4343785  40.4498188   7.8561614  41.6976603  41.4089926
  16.4733284  45.9568956  32.9075198  16.0937834  45.2326789  33.4389848
  16.8960804  45.4283499  32.2044325  17.0925138  54.8699469  24.9651023
  17.5314320  55.6874144  25.2998157  17.0795708  55.1229844  24.0215746
  76.4725122  59.5923219  37.2811297  77.0536625  58.8363515  37.0218499
  75.8919666  59.1442161  37.8921071   9.5264623  41.5498829  32.2563000
  10.1285196  41.0933491  32.9115412   8.8884325  41.9382552  32.9336213
  73.5329285  53.4954844  54.1935354  73.5239927  52.5939990  54.5276938
  73.0560140  53.4303571  53.3656332   1.2112715  47.3419311  42.1592883
   0.7418723  47.6330787  41.3398868   1.6484064  46.5177713  41.7596564
   5.9395526  53.1901635  45.2827516   6.3975533  53.0888006  46.1617650
   6.6711568  53.5171738  44.7546347  16.3418215  50.9578722  47.5965406
  15.6533369  51.2321324  48.1350373  16.6677553  51.7375601  47.0761667
  12.1432067  49.9912222  31.5061447  12.5929974  50.8004744  31.1919093
  11.2058750  50.1145317  31.3169051  10.8584191  44.9530780  44.7054390
  10.5483951  44.8471468  45.6213445  11.8036592  44.6173129  44.8428906
  18.2846446  54.7135503  37.8250596  17.7331073  54.8606714  38.6053034
  17.5657671  54.5193695  37.1697747  10.4693733  48.3988125  40.7828406
  10.1974746  49.0770160  40.1400758  10.2945303  48.8348522  41.5735533
  11.6086548  71.0783690  52.1031390  11.0258754  71.8064538  51.8320431
  12.4422272  71.3886318  51.7285364  73.9844286  55.8049748  36.6355022
  73.2084595  55.4808451  37.1565554  74.2600419  56.5529433  37.2054939
  14.2707017  54.9710291  56.1659869  14.3192675  54.1318535  56.6131749
  15.2051830  55.1036890  56.0201781  28.1065191  -5.3185138  32.5582234
  28.0045010  -5.4708533  33.5229840  28.6939795  -4.4937016  32.6065697
  16.2410365  59.6828890  35.7541983  16.2074321  58.7173819  35.5080244
  17.0187684  59.6675054  36.3671074  77.6240001  66.4399900  34.7968980
  77.0951634  65.7623386  35.3471244  77.4119003  67.2261040  35.3371724
   0.0676989  33.2939469  51.6158555   0.1589221  33.5973173  50.7230406
   0.0994694  32.3015955  51.4340094  15.0037582  71.5195670  54.5224458
  15.0189349  71.2380249  55.5050972  14.2858900  70.8729250  54.2341049
   6.0899003  63.2672802  37.1788382   6.7553048  63.9501019  37.2198610
   5.5091611  63.4492369  36.4226717   5.8497886  57.0677277  59.1617116
   5.3128585  57.8928838  59.1759512   6.7103521  57.4760156  58.8612328
   9.1448897  33.5874955  38.3405822   8.2235664  33.2409397  38.2704016
   8.9905512  34.4238375  38.7988836   3.4854598  48.9079809  42.5595444
   3.9663506  49.0443151  41.6754527   2.8042450  48.2639344  42.2002078
  17.9568231  49.6918310  37.1971670  17.7195217  50.6212944  37.2992146
  18.5696326  49.6113062  37.9722273  10.0340466  45.8345250  39.7420885
   9.7118556  46.5825103  40.2343099  10.1163405  45.1515830  40.4525881
   7.2644986  36.9642979  41.6635303   7.5196496  36.4822622  42.5029171
   7.4773581  37.8397752  41.9478972  14.4019703  49.0032460  29.6809104
  14.8958292  49.5967528  30.3388705  14.9571359  48.2442909  29.6652483
  77.2625605  65.3775821  23.1497103  77.3255542  65.1008291  24.0745971
  77.1860226  64.5259474  22.6844962  10.9727116  56.1576399  39.6042189
  10.5074907  56.8884587  40.0462411  10.3172878  55.4706080  39.6199318
   6.6728947  61.6499076  46.4650611   7.6852193  61.6065805  46.5455669
   6.5930085  60.7110264  46.1193192  16.1600684  49.8269565  31.5644149
  16.7584646  50.5706688  31.7142974  16.2185001  49.3119786  32.4048032
   1.9388741  35.0552789  35.6215886   1.7939358  34.8985507  34.6528340
   0.9715246  35.1287013  35.9341217  15.6950474  48.5675136  34.0806779
  15.8659910  47.7108951  33.6538431  15.7454392  48.3945145  35.0237593
   9.0321125  58.0207152  30.2426204   8.8044169  57.1867132  29.7767122
   8.3711050  58.6284782  29.8516349   7.9778935  40.9714565  35.5106950
   7.7980035  41.8581783  35.1323570   7.9322732  41.1984406  36.4419796
  12.7334091  56.6834111  28.0168299  12.3912831  57.1005535  28.8174741
  13.2411338  55.9577563  28.3763090  10.5477671  52.4836766  36.9743397
  11.3193357  53.0355758  36.5938124  10.0358227  52.4252429  36.1536915
   7.4390006  62.8803419  27.4291783   6.8840679  62.2904335  26.9121768
   8.0958573  63.1617203  26.7297841  10.5013282  51.2077204  51.6432387
  10.6776314  52.1006925  51.8589421  10.0672321  50.8001238  52.4083707
  14.8020375  58.2771662  28.2652909  14.1043048  57.5423799  28.1621308
  14.1443583  59.0084435  28.4985808   5.7694998  46.2007392  41.2225115
   5.7760064  46.9198422  41.8734448   6.0834221  46.6965291  40.4026120
   9.5173860  55.1780674  26.0496974   9.4553143  55.5128539  25.1538572
  10.4533695  54.8395030  26.1024832   9.3764028  61.5994279  14.7803705
   9.1393232  61.4708794  13.8253210  10.2835418  61.9013463  14.5584142
  12.4248760  52.5505757  33.3008988  12.5665492  51.6659354  33.6839005
  13.0400081  52.4905570  32.5557880  41.6487129   4.1544993  37.0095923
  41.1401116   4.8135314  36.5684512  42.5884114   4.3773722  36.8083281
  18.8122057  38.2240737  47.1039091  19.0038489  39.0127450  46.5270280
  18.2549318  37.7381274  46.4307265   9.7056155  44.3388368  49.1243026
   9.9116251  44.8791314  48.3245841   9.4408618  45.0453784  49.7643543
  10.1989796  56.6678541  48.4972245  11.0412163  56.1819353  48.3117292
   9.5869277  56.1994603  47.8681566  78.6321620  46.9124466  46.7650758
  79.3218552  46.6476107  46.1006926  77.9019509  47.0771990  46.1329940
   7.5725740  50.3610506  49.6509433   8.3475823  50.1509456  49.0886716
   7.9308051  51.0548884  50.2433372  16.7501404  53.2228717  40.6345038
  16.1665702  53.9557621  41.0166165  17.4280258  53.2088018  41.3236766
   9.5950810  41.6570082  48.7240989   9.6611705  42.5949708  49.0418672
   9.7246068  41.1875090  49.6058701  32.8081758  -2.3139772  43.1403857
  32.2963091  -1.5869506  43.5914360  32.1759615  -2.6642990  42.4734337
   7.7148379  61.3649918  35.4578170   6.8720665  61.2066990  35.8097720
   8.2920865  61.0083299  36.1233199  16.0690310  54.6118386  22.2001412
  15.3703307  54.9308120  21.6192152  15.5697137  53.8178037  22.5913933
   1.6753786  47.0445290  48.9730027   2.1717474  46.3290380  49.3056698
   2.2219083  47.4142628  48.2649324  21.5739756  57.1620104  51.3849827
  21.9060012  56.3610019  50.8389778  20.8383306  56.7521419  51.8161301
  16.5349349  52.2340998  50.3447468  15.6606131  52.0495750  50.5506197
  17.0223531  51.6675476  50.9955108   1.6019631  53.7862309  35.9305201
   1.7449143  52.8971070  36.3536685   2.4391146  54.2315704  36.1699760
   4.6605022  67.2336120  33.3486809   3.7153284  67.2454474  33.3079353
   4.8493254  67.1760297  34.2825831   5.1965217  39.8271853  45.7230161
   4.7521249  39.9014768  46.6005369   4.3843085  39.6858092  45.1315416
  21.0794186  50.4205006  35.5050268  20.9155850  49.5630225  35.8834881
  20.4778766  50.4150070  34.6713417   3.2367328  58.8290923  45.6513934
   3.0798016  58.1793266  46.3905124   2.9916954  59.6692804  46.1717039
  12.1153389  51.5044100  39.5988830  11.5358941  51.6961760  38.8205567
  12.0839710  50.5506690  39.6415776   7.3349999  56.3166070  35.1349849
   6.3788655  56.5339790  35.1355306   7.5607646  56.7142256  34.2601330
  12.6873319  62.9752306  48.5765651  11.8302724  62.8998052  48.9763241
  12.5796381  63.4080465  47.7186823  33.7449888   0.7016163  35.9690495
  33.0881642   0.3164084  35.3231851  34.5340778   0.2504068  35.4957118
  15.5550891  49.2754320  43.4678376  14.9548392  49.4394444  44.2423079
  16.1515963  48.6106494  43.8408214  36.4278487  -1.7225569  37.3417886
  35.7509675  -1.2148023  37.8200350  36.9719864  -2.0314822  38.0829311
  13.3729768  62.4513240  23.3453962  13.5083421  63.4211186  23.4299914
  13.0873210  62.4400963  22.4253333   3.4426741  52.0718449  45.8760437
   4.3532316  52.2755929  45.6805383   3.4237586  51.2055427  45.4304790
   7.1425455  60.0714376  43.9040092   7.2425847  59.3662455  44.5790902
   7.9619428  60.1058032  43.4266920  14.1277975  60.6667434  54.8303594
  13.9511834  59.8815747  54.3207109  15.0883363  60.5648123  55.0180137
   5.3363889  60.1185110  35.8654161   4.9133983  59.6229405  35.1311072
   4.5402397  60.4812846  36.3220124  18.2121275  53.5986008  33.8936617
  17.5073300  53.6161692  34.6128736  17.8499694  53.0016992  33.2886612
   3.4123230  54.6411002  47.3812107   3.9255814  54.2172393  48.0876452
   3.3963739  53.9111605  46.7276844   4.8918786  67.2675839  49.4401464
   4.6317160  68.0792653  49.9396470   4.0049340  66.8876441  49.3326182
   1.6919340  34.3072584  40.8027750   1.2195122  34.0378192  41.6571684
   2.6055833  33.9129249  40.9663307  16.2607495  45.5033850  46.4153096
  16.7204102  45.4885605  47.2317035  16.3575356  44.5796044  46.0612521
   7.7162530  38.7862760  33.4338986   8.0883004  39.5568940  33.8358720
   8.0811345  38.0788126  34.0476153  76.9741910  45.5500832  36.2920479
  77.8786860  45.6008382  35.9625909  76.7437516  44.6061462  36.1078774
   2.2054645  38.8859380  31.9327727   2.0068711  39.2273879  32.8457432
   2.9361424  38.2751393  32.2790815  13.7633290  69.6311801  39.7151287
  13.2010907  69.9082904  40.4293209  14.4138367  69.0503693  40.1892990
   3.0386372  45.6193428  41.2530944   2.9532052  44.9373489  40.5771720
   3.9890671  45.7941302  41.2845372   9.8273901  34.3026228  35.7562240
   9.5928504  33.4766384  35.3040724   9.5275041  34.0764149  36.6726037
   9.4846897  67.3108993  46.3581334   9.1246248  67.9483507  47.0472029
   9.5553781  66.5131326  46.9072059  10.9213060  64.7834413  37.8911991
  11.8432740  65.1874052  37.9570552  10.4982375  65.2502387  38.6261350
  20.1429701  55.8729312  22.5078036  19.4043124  56.4015086  22.1476575
  19.9290774  54.9970463  22.1424915   8.2831328  68.2182616  41.0448924
   7.5505679  67.5719011  40.9833532   8.7445564  67.8735912  41.8268798
   2.6605229  66.7653796  29.1975944   3.4195778  67.1995328  28.7383648
   2.2028989  66.3367392  28.5005852  11.6773755  65.0309616  54.2721857
  12.1411445  64.2203956  54.5999886  12.2483302  65.7191078  54.5634024
   9.2440549  62.1832866  59.2031325   9.9790569  62.0486310  58.5474030
   8.7579146  61.3542618  59.1455048  23.5357525  47.0436228  50.6913844
  24.2758786  46.9090126  51.3245182  22.8659184  46.5202977  51.2058812
   8.4036988  47.2999344  44.9456024   9.1435657  46.6251435  45.0087432
   8.8898943  48.1081797  45.1145039   3.1135601  57.0138153  53.9403783
   2.7687948  57.9623300  53.7976411   3.4731063  56.9018285  53.0257407
  14.5180367  57.5792992  56.9870265  14.5690743  57.3311046  57.9834096
  14.3388487  56.6286535  56.6991509  19.8738121  54.6571672  44.7849400
  19.2542656  55.4323862  44.8871355  20.2781506  54.7050068  45.7293140
  14.8849946  54.6271656  46.5534033  15.5645235  53.9167362  46.5399593
  14.7917333  54.7964594  45.5913646  77.2500885  48.1763163  37.4089533
  76.3323799  48.4017976  37.3323881  77.2556331  47.2335792  37.2144639
   9.9496272  53.4567467  41.9105838  10.9088939  53.5389938  41.6494589
   9.4784854  53.8776168  41.1551386  28.5001003  -5.3234730  23.7678136
  28.5068585  -4.3414338  23.6983398  27.5297322  -5.4146884  23.4784703
  22.8121532  47.8846487  44.5541109  22.9591247  48.1586816  43.6366300
  22.5309408  47.0274147  44.4909378  23.9027377   0.1688690  39.8555348
  24.3238359   0.5246366  39.0274626  22.9829540   0.2258290  39.5923763
   9.7145588  58.8268638  20.3298864   9.6120921  57.8320708  20.1122237
  10.6935110  58.9293191  20.1584525  15.6903712  65.6933815  38.5505881
  16.1213314  65.0521275  38.0027545  16.1570021  65.6732124  39.4218266
   8.4997496  56.1762928  37.5396082   8.2270120  57.0869300  37.5764334
   8.3845740  55.8802219  36.5726020  25.3806380  49.6245115  45.0673267
  24.8033343  48.8255223  44.9736215  25.4998222  49.8754755  44.1584320
  22.8629119  62.1107114  44.3063772  22.2087420  62.2876528  43.5892387
  22.7264932  61.1597630  44.4268442  13.3343038  43.7769726  45.0355528
  13.0524740  42.9908182  45.5294721  13.5310301  43.4777830  44.1649856
  13.3204147  48.9865617  36.7308423  12.5752176  48.4745615  37.0236255
  13.0251661  49.3694804  35.9078746   3.3892407  54.0812210  29.9326532
   2.4615888  54.2536509  29.6123629   3.7670658  54.9208947  29.6526335
   1.4053281  42.9000157  29.7137040   0.9138940  42.1540806  30.1157330
   0.7153567  43.5902679  29.7739217  19.7160935  49.9888817  32.7963741
  20.2873499  49.7321164  32.0212637  19.4007542  49.0929777  33.0889676
   7.2763506  52.8915171  47.5584363   7.8944559  52.1160372  47.7209434
   7.2310566  53.2845557  48.4385200  64.5115473  42.3669609  35.6130437
  64.7428132  42.2635962  34.6786522  65.3477466  42.0950436  36.0325240
  12.3243387  52.5022168  49.0865011  12.4768679  51.7765342  48.4079887
  12.9187887  52.2179924  49.8109568   7.1384160  53.6611497  35.5745755
   7.4606825  53.4378036  34.6836213   7.1431885  54.6378962  35.5308090
  21.1786509  49.8030708  30.5457788  20.5838827  49.1597535  30.0391239
  21.8866974  49.9248399  29.8742342  29.5337558  -4.6244491  40.0661940
  28.9828093  -4.1322404  40.7581370  30.4005821  -4.2791322  40.4854539
  10.2273324  49.0254170  48.1308312   9.7779371  48.8686741  47.2801498
  10.1255208  49.9941676  48.1633979   6.1751185  56.9429216  43.2384155
   5.2926357  57.4090976  43.0450122   5.8773752  56.4871771  44.0767980
  18.8312249  69.9048907  40.8448193  18.7422958  68.9521012  40.8124438
  18.3828744  70.1563091  40.0193004  20.4287527  56.9460079  40.1078050
  21.1193045  56.7833615  40.7342891  20.6675397  56.3885711  39.3409806
  19.3271055  51.3540732  28.5545786  20.1745721  51.8862874  28.7828925
  18.7617297  52.1394878  28.2730651  11.4127273  59.4245058  55.1943927
  12.0608433  60.0792580  55.4986533  11.9085150  58.9702648  54.4688415
   5.3117908  64.1943881  34.6514646   5.0559840  63.9271352  33.7673166
   4.4848075  64.5886960  34.9920759  10.2541275  63.2513594  43.0568496
   9.3050866  62.9139298  42.9269467  10.3134852  63.8238540  42.2149633
  39.1676655   8.8448503  46.1226173  38.9573425   8.4100135  46.9802575
  39.5646391   8.0476878  45.6625642  20.4028754  62.2522676  40.2081911
  19.4822815  62.0471074  39.9188820  20.7076230  62.8276007  39.4760849
  22.2216491  71.0626546  35.2068782  21.5772617  70.2880080  35.3521319
  22.4587255  71.2027471  36.1059029  33.1834115  -4.5303358  57.8769808
  33.3545333  -3.5682704  58.1623906  33.9754865  -4.9262563  58.2434125
  40.8534613   1.1943904  37.3742667  41.0531725   0.7207606  36.5491412
  40.9740487   2.1063444  37.0564874  12.6277631  59.7020858  37.8632996
  12.9922659  59.1094141  37.2383707  12.2762231  60.3845708  37.2393507
  27.3302499  76.8019115  28.3546364  26.9357410  77.5303347  28.8339223
  26.5822892  76.1838298  28.3853830  16.7193985  55.6999124  41.9548544
  17.4133634  56.1035124  42.5642544  16.5589916  56.4216015  41.3487261
  15.2366768  68.4903063  41.5628218  14.7573611  68.4845683  42.4355844
  15.8374314  67.7299395  41.6562712  23.0480917  62.3639417  32.5305923
  22.3704654  63.0699790  32.7022729  23.3407600  62.4795855  31.6395263
  24.8321459  69.3921580  44.5649857  25.5889751  68.8565929  44.9360867
  24.0681556  68.8863702  44.9950798  13.2665897  64.6349404  26.3559444
  13.6797889  65.5065746  26.3726189  12.3157675  64.8626180  26.1740174
  31.8231791  -3.5962306  40.9851344  32.5664269  -4.1886944  41.1427455
  32.2335276  -3.0999416  40.2202318  21.2302446  63.4475889  37.9104979
  20.3031416  63.6498942  37.5757636  21.5440067  64.3575083  38.1376407
  22.1136476  66.7758291  27.0138084  22.3541529  67.7134105  26.7985257
  21.1491678  66.9961323  27.3101630  33.6067726  -0.7072436  48.5005010
  34.4142019  -0.2571989  48.6690038  33.6404918  -0.8800442  47.5222181
  21.4085759  72.5707045  51.7607398  21.3409581  72.6825129  52.6935021
  20.4200364  72.5328055  51.5131096  10.8872382  60.2787353  51.6372171
  11.8049108  59.9511368  51.7101232  10.9346257  61.1854680  51.3443087
  25.2790883  62.8325754  49.9562921  25.2882755  63.7098555  50.5188456
  26.0896312  63.0226779  49.4806119   8.2758538  68.1730819  38.2877569
   8.3987361  68.2389249  39.2402981   9.1739842  68.6222893  38.0268920
  22.6796448  61.6727068  49.1355903  21.8190177  61.5735313  49.6131642
  23.0670321  62.4352951  49.5661011  29.9098631  -5.3320895  51.0243602
  30.4583922  -4.5117184  51.1566760  29.0577839  -4.8538744  50.8098526
   8.7348344  56.4265096  44.1840761   7.8963514  56.7585468  43.8702134
   9.3688893  57.1288794  44.1063226  51.2567875   3.5940689  36.2678593
  50.5375356   4.3087308  36.2439749  51.6337146   3.6712007  35.4005302
  20.3678726  61.1450802  50.7467925  19.4767994  60.8888706  51.1402114
  20.1214038  61.9749339  50.3336509  24.8498031  60.7559584  51.6284445
  23.8613166  60.5462955  51.6002635  24.8053170  61.5542550  51.0286421
   8.3545187  55.5887475  46.8943221   8.3896203  55.6748416  45.8940698
   8.0778143  54.6706945  46.9624022  16.7262746  65.3260274  45.9358353
  17.5449884  65.9253507  45.7224533  17.1630192  64.4630567  45.8688963
  14.0784372  71.7270121  38.1253564  13.3577305  72.2865613  38.5188305
  13.9797026  70.9486551  38.6804993  53.5929562  36.1305162  -4.1778174
  53.3510274  35.1879534  -4.4972341  53.9544318  35.8763787  -3.3023090
  31.7413052   8.2246089  33.9604997  31.7173702   7.2851825  34.1458727
  31.5909530   8.6120156  34.8505053  46.2070423   2.0709080  47.8923584
  45.9363828   1.7260746  48.7881236  46.7991313   2.8072150  48.2821232
  21.6829376  73.9020188  37.7515437  22.2868054  73.2867345  37.2312769
  21.1902054  73.2434132  38.2676348  32.2133076  -4.3331298  48.1375164
  32.9605640  -4.3394486  47.5315259  32.7395140  -4.2916599  49.0008385
  34.6052566  69.7938032  47.7029850  35.4265105  69.4464321  47.2819298
  34.4392533  69.0680382  48.3421739  25.0601717  57.1271755  48.0826630
  24.8978691  58.1056721  48.3554330  26.0119231  57.0664866  48.0222301
  22.6382259  52.0755360  45.4014178  22.5229859  51.4205013  44.6819388
  22.8866229  51.4571541  46.1462154  37.2300516   8.5809403  48.9854125
  36.5722755   8.1108900  49.5262235  36.9095191   9.4704410  48.9350815
  16.1617223  59.5179414  41.1410796  16.0324258  59.1826488  42.0368205
  15.2835365  59.6537142  40.7693100   8.8225810  69.2248969  48.2338775
   9.0137840  69.6094483  49.0787934   9.6787677  69.3942370  47.7405226
  17.2093495  69.0101968  45.2968115  17.8896645  69.6808144  45.1418670
  17.3832244  68.8162838  46.2340676  21.9639996  60.0207868  45.9363682
  22.6434953  59.2412622  45.8627233  22.0484892  60.1061076  46.9195840
  13.8683969  52.2760001  30.9971668  14.6805725  52.7908138  31.1387775
  13.8716735  52.1682987  30.0451225  35.0554272  68.7712502  35.3918522
  35.3537698  69.4883131  35.9401002  35.5020937  67.9966675  35.9124224
  20.2168587  65.7769848  25.0480829  20.9103698  65.7517656  25.7734354
  20.2587017  66.7395242  24.8458484  23.3526649  72.4016488  40.3794392
  23.0771720  71.8479287  41.1926801  22.4110387  72.6728397  40.1193698
  20.2715680  51.4012082  47.1440982  21.1901529  51.1212835  47.0996376
  19.8984673  51.0265482  46.2677231  21.5621894  67.2307771  42.7478204
  21.3294833  67.5872513  43.6209429  20.9057904  67.7575196  42.2046114
  16.5103379  59.1937577  32.7536642  16.5812280  58.3095955  32.3216901
  16.9861987  59.0583332  33.5645837  25.8951710  49.5244223  42.0879665
  25.8620956  48.6383953  41.6464077  26.2337524  50.0292850  41.3438338
  26.3585193  72.2949404  28.0981295  27.3401331  72.1092046  28.1920236
  26.0987082  71.7712667  28.8861481  13.6512462  64.2606864  61.1320488
  13.5890570  63.3203108  61.4656750  14.5590590  64.1798879  60.7665283
  48.0102570   0.7464137  54.0278476  47.3675800  -0.0146400  54.0641045
  48.8493792   0.2810758  53.8044218  30.2646896  68.4195443  33.6287530
  30.5236911  68.8586999  32.8128166  29.2818808  68.6020532  33.6100333
  21.4253551  63.0914017  46.5517136  21.5733007  62.2987025  47.0980112
  22.0057217  62.7664018  45.7449528  18.4138161  62.3312223  37.8970684
  18.4776438  61.4171113  37.5023106  17.4491656  62.4622286  37.8544727
  33.7834209  -3.1303184  34.5018404  33.6287575  -3.4610588  35.4112718
  34.6386164  -3.5331339  34.2987404  13.6793480  72.0566721  42.5297515
  14.5939864  71.7114898  42.2844897  13.2269202  71.2158881  42.7143205
  34.6109434   5.3897417  38.9047383  34.4568318   4.5439951  38.3535813
  34.4301481   4.9284176  39.7505614  22.2572646  53.9724557  43.4135226
  21.6515294  54.4889033  43.9716070  22.5649181  53.2901617  44.0554724
  27.6997186  63.4435911  48.5165029  27.8714471  63.2574581  47.5891012
  28.4489538  62.9520676  48.9784579  31.5770267  71.8575195  34.7401015
  31.6561751  72.0235708  35.6908456  30.9256334  71.1288428  34.7852126
  18.4237136  60.4217659  45.3368791  19.0166052  59.6764515  45.5878017
  18.6320537  60.5090839  44.4242026  36.9592538  76.3575925  32.5152991
  36.8973946  76.4291191  33.4712557  36.8821751  75.4070893  32.3617680
   9.9049691  62.7677376  49.7912387   8.9547573  62.4525272  49.9735931
  10.1354221  62.9698226  50.7223411  38.7129085  -1.2385626  40.2579857
  39.1104903  -1.5964129  41.1142898  37.8330226  -1.6090156  40.3627378
   8.8330593  59.3615039  33.5832777   8.2292468  60.1385115  33.8505040
   8.1282592  58.7898903  33.1901872  22.9587116  70.5648839  50.7742221
  23.6853633  71.1410653  50.5586732  22.3003598  71.2242808  51.1497979
   7.2524510  63.3012240  52.9618198   7.1541675  63.1340539  51.9820480
   6.5120424  63.9692281  53.0680879  14.6648813  65.6084747  44.1526401
  15.4937491  66.0651808  43.8723081  14.7416930  65.6005126  45.1462027
  21.1219141  51.3487750  53.5790774  21.9600685  51.6137722  53.9519640
  21.0837315  50.4000117  53.8637931  12.3372563  67.7956974  45.7017701
  11.5900600  68.1702435  46.1531441  12.2221777  66.8370402  45.9877974
  29.4471579  67.2676305  38.0285501  29.7174038  66.3534839  38.3591112
  29.9308181  67.2547592  37.1434089  24.8238836  70.7079614  47.1943607
  25.2490033  70.3720988  46.3913888  25.3119631  70.2481190  47.8781091
  18.9521362  71.4826909  51.6553799  18.0134455  71.3579090  51.4748682
  19.1316777  70.5492749  51.9701784  34.0906806  -2.5002201  21.5728781
  33.1590134  -2.6814569  21.3646517  33.9711939  -1.6932930  22.1293202
  29.4400765  70.3425491  43.6155440  28.8567854  70.3535556  44.4245709
  29.9916724  69.5839751  43.8793913   4.8434058  67.4083096  36.1385121
   5.2535350  66.9709920  36.9502760   4.4354957  68.1221559  36.6500703
  24.1146516  68.1229819  49.1999985  24.9886604  68.6213320  49.2548321
  23.6361146  68.6095015  49.9101094  28.9307971  72.0591418  28.9738322
  29.3370805  72.4795209  29.7805333  29.7399464  71.9368222  28.4662127
  48.6092321   9.9273678  37.0006786  49.3401973   9.7430829  36.3371341
  49.1209618  10.2595913  37.7817614   7.4541202  66.8263108  48.6718887
   7.8015333  67.7392246  48.7240492   6.6053094  66.9490438  49.1482858
  12.6069796  66.9343856  43.1135317  13.3080891  66.2915392  43.5700493
  12.3625817  67.3324843  43.9877897  57.8309266   5.9851832  53.1167745
  57.2047854   5.2823159  52.7996506  57.6544526   5.9499389  54.0577282
  33.7826719  66.2710601  51.8298441  32.9517377  66.5865449  51.3868629
  33.7690111  65.3236947  51.5560235  24.2835674  67.6613242  36.5014630
  23.4710448  67.1179632  36.5917821  24.4057251  67.9372917  37.4503309
  40.5832827   8.4795078  58.1483591  41.5230023   8.6940207  57.8804070
  40.6355685   7.5259301  58.2631076  16.9230991  66.9226998  34.7463666
  17.7185324  66.4741620  34.4325503  16.2393432  66.3905126  34.3380388
  12.2433842  69.6543583  42.0897190  11.6052299  69.9311122  42.7801065
  12.4877444  68.7677632  42.5126202  29.6441604  -3.1192477  44.9743113
  29.2407623  -2.5586281  45.7349653  29.9956071  -3.8715472  45.4843749
   7.7472694  68.7025011  44.6012374   8.0840083  68.1860215  45.3556097
   7.5914386  69.5606152  45.0240885  12.8222375  66.7354945  56.1158505
  12.8503254  66.0023090  56.7849416  12.2213261  67.3320397  56.5426522
  12.0418344  63.3405278  44.9437953  12.8725322  63.2467662  44.4292500
  11.4023245  63.2632462  44.1837346  12.9058003  57.2392043  35.8289193
  13.3834603  57.8929799  35.2493294  11.9991542  57.7789019  35.7705427
  10.7590653  68.6839758  38.0634556  10.9989980  69.3851383  37.3848176
  11.2671334  67.9454265  37.6792824  17.9981093  56.6231421  44.5883523
  17.1916542  57.2232385  44.3719678  18.6297104  57.3524690  44.7645100
  17.3810374  52.1150088  38.1072796  18.1437251  52.7166930  37.8164306
  17.3170431  52.4801777  39.0249288   7.7672274  57.3773506  26.1334376
   7.1851135  57.0311703  25.4288225   8.2085138  56.5699448  26.5416928
  22.1884129  65.5444869  31.2140526  22.9478611  66.1453194  30.9706735
  21.4481108  66.1062422  30.8664771  35.8658556   1.2175316  40.9567829
  35.7396347   0.2930323  41.2651241  35.4731844   1.1097863  40.0668633
  10.9624726  60.7039017  27.8081274  10.2435409  60.1489940  27.3349985
  11.2576663  61.2641759  27.0198997  13.6850328  57.7142090  42.8402338
  12.8506288  57.7144718  43.4149465  13.4764611  58.4014278  42.2069390
  20.4026452  59.5664532  39.2685456  20.8825478  58.8525494  39.7608664
  20.7267016  60.3695977  39.7005533  22.3123911  56.5599280  41.9348443
  22.1494856  55.6250590  42.3031803  23.1237884  56.7595724  42.4930448
  32.1683348  76.6660835  37.6812593  31.7549382  75.9204847  38.1097784
  33.1007276  76.5855694  37.9631137   0.2304322  61.2914856  48.9755087
  -0.4475296  61.6184924  48.3322031  -0.0234880  60.3018343  48.9306353
  23.7870097  73.2792542  43.3650375  23.3337233  72.4015608  43.2378604
  24.7326540  72.8903821  43.3754620  29.2845885  60.1925972  65.0227574
  28.8396135  60.2659111  64.1313707  28.6368039  59.6854400  65.4801531
  37.7088480  63.8839936  50.9935146  36.9517902  63.3895323  51.3003643
  37.6005203  64.7445837  51.4560569  31.6937161  76.0981015  54.2635208
  31.4171195  75.5153801  53.5519877  32.4053190  75.5568845  54.6791729
   8.6756923  59.6409767  49.4890009   8.6844334  58.7744842  49.0744160
   9.5749669  59.6203271  49.8775734  15.6956137  65.2117975  48.5764925
  16.1370857  65.1691776  47.7397483  15.5517670  64.3541427  48.9218353
  52.9013635   7.8005405  46.8448562  53.7435479   8.1974831  47.0033788
  52.4742008   8.4747170  46.1938268  23.0444432  63.6538300  35.7079230
  22.6072116  64.1056670  34.9396765  22.2750690  63.4166236  36.1940847
  28.6159289  73.0180213  43.1720718  27.7073779  72.7207881  43.1633876
  29.0380297  72.2049704  43.4658741  44.0513816   2.1596392  36.1301251
  44.3033244   2.4819621  37.0558541  44.0389315   1.1871191  36.3604668
  14.0450512  60.7184571  58.7170328  13.9106204  59.8692704  58.2541737
  13.1785103  61.1709857  58.4995812  14.1534361  57.3650545  32.6651648
  14.1909077  58.3872040  32.7280069  13.2806235  57.2755341  32.2137104
  21.4166807  60.6033054  36.6184860  22.0138276  61.2491433  37.0457738
  20.9277096  60.2494226  37.3839252  56.3642207   4.5577919  49.3321571
  55.8610793   3.7296980  49.4908382  55.6906818   5.1023707  48.9326166
  14.0968471  65.7761562  33.8348674  14.0515758  66.7389458  33.9294763
  13.2721937  65.6366272  33.3589661  26.3378624  70.9429920  37.1753347
  26.5065587  71.9581138  37.1650328  26.8370937  70.6831741  37.9434464
  22.0031038  72.1966718  30.4369771  21.8501501  72.3497650  31.3960863
  21.3186656  71.4473567  30.3040849  15.3836416  62.4091798  48.7000414
  15.6584197  61.8839228  47.8917587  14.4068608  62.4393974  48.4525755
  27.0671295  64.9314520  44.3930854  26.2648231  64.3935683  44.2791642
  27.6283741  64.3516091  44.8979111  31.8459894  66.9859063  39.9350797
  32.1017513  67.4466667  39.0619482  31.2560111  66.3152806  39.5547470
  33.1660545  63.5376759  46.9179928  33.8351512  63.1355049  46.2713829
  32.3914931  63.5793492  46.2831973   3.2518595  65.1005314  41.7342461
   3.4669104  64.4692642  42.4822408   4.1068834  65.4790416  41.6221796
   9.5992852  64.0388931  31.3276700   9.3926551  63.9292728  30.3999841
   9.4252091  63.1203014  31.6839568  28.2584441  -5.8361356  43.3814478
  28.1960934  -5.2733811  42.5756526  29.1852902  -6.0688845  43.4324869
  20.4126798  55.2292867  35.1349358  20.3312502  54.8201375  36.0044088
  19.8223363  54.6897644  34.5924804  26.2542916  66.6616838  40.4174814
  25.7972051  67.4383231  40.0799779  26.7706712  67.0745651  41.1825852
  21.3068121  69.3405305  61.7830322  20.9113988  68.4819455  61.5134426
  20.6063046  69.9287428  61.8632445   9.0732272  60.3017760  37.6300327
   8.4069489  59.6164516  37.7514508   9.5434057  60.3332001  38.5190336
   9.7370390  59.1826521  45.0980650   9.4156607  59.9316880  45.6566048
  10.6219727  58.9664806  45.5031974  39.5479215   0.7335137  53.7312269
  39.5814294   1.6004691  54.1730191  38.9757008   0.2522141  54.3663378
  21.7457938  63.1021634  30.0288321  22.0212010  64.0135468  30.2271611
  20.9033576  63.2342705  29.5757437  19.6653040  67.2696350  39.8661806
  19.6172947  66.9245904  38.8953868  18.8391952  66.8674779  40.1887435
  29.9263231  76.0538552  28.6522443  29.7091971  75.5148944  29.4288206
  29.0946077  76.4582633  28.4297031  25.7718003  64.1689967  40.8433545
  25.4762518  64.3138261  41.8103679  25.9720071  65.1326096  40.6251585
  25.5180275  65.8135802  50.1282872  25.0643024  66.6748324  50.0185165
  25.5833195  65.5575273  49.1813046   8.0474429  65.8404745  32.7462740
   8.7810668  65.2718038  32.3109153   7.6969009  65.1425770  33.3248120
  12.1976651  54.3210553  35.6636695  12.4220354  55.2778015  35.6126366
  12.6371503  54.0167583  34.8666362  16.3354831  70.7328592  50.9900054
  16.3598548  70.1336348  50.2198228  15.8248422  70.2512698  51.6316223
  56.0697737  11.9341140  44.9430820  55.5675346  11.9944648  44.1117210
  55.7789436  12.7396217  45.4264079  28.7733457  73.2735294  47.1318178
  29.3247863  74.1226848  47.2681743  29.4930331  72.6213334  47.3228335
  42.5289590   5.8349046  53.9191865  43.2776733   6.0453028  54.5216221
  42.1316317   6.7013647  53.8561431  24.8088004  74.8823378  40.1323877
  25.6999210  74.6658114  39.7971278  24.4127012  73.9872198  40.0042400
  31.7590004  72.7829574  37.5406781  31.1182265  73.2017156  38.1805035
  32.0108351  73.5762964  37.0501425  52.1126932   3.8390075  33.5185004
  53.0263379   3.5452194  33.7201628  51.7452195   2.9950420  33.2220756
  41.7426113   6.0360871  48.8051124  42.1925144   5.1472575  48.6816009
  40.7822244   5.8085772  48.6769450  21.9415002  75.0023480  40.3137003
  22.9137712  74.9855968  40.1889920  21.6355533  74.9636426  39.4214879
  53.8875318  16.3489516  52.5872451  54.6659244  16.9103130  52.8614087
  53.8947500  16.5141480  51.6481498  30.7305858  75.1103876  41.7348003
  30.6138262  74.5854241  42.5740533  30.0080464  75.7569134  41.9012699
  35.8485836  70.5500680  43.4343140  36.3407525  71.3816857  43.7346874
  35.8906440  70.6554513  42.4475621  52.8152555   4.7053948  29.2872983
  52.4605911   5.1260717  30.1118292  53.3033215   5.4792838  28.9487554
  49.7084446  82.6091272  47.2312516  50.5694837  82.1528314  47.1415659
  49.1705039  81.8603578  47.5358359  44.4190299   8.0629017  29.0252475
  45.2327516   8.1806268  29.5661847  43.9296390   7.4151431  29.5597022
  37.5227986  73.3162659  38.1058643  37.3604060  73.5579035  39.0799694
  38.2871416  73.9355627  38.0061280  43.3100656  80.6497821  32.8121417
  42.9839515  79.7465209  32.9892423  42.4752210  81.1708312  32.9655165
  32.8608966  71.0780326  32.3999770  33.0125119  70.1610919  32.6176183
  32.7241688  71.4414963  33.2925528  16.2072660  11.5308976  24.8840411
  15.4196386  11.0288793  24.8113472  16.5787537  11.3192584  25.7653494
   4.8467691  23.7879896  39.1245785   5.6006469  24.3675110  38.7533050
   4.3337383  24.5268515  39.5924434   7.4377829  25.2840861  46.6605854
   7.1793787  26.1159004  46.1979072   7.3795047  24.6576894  45.8841345
   0.4655530  23.0442499  27.7268584   1.0309098  23.4889760  28.4273335
   0.9869025  22.3465992  27.3900690  70.4928985  27.4481344  27.4851574
  69.6322996  27.4827815  27.9928329  70.2422658  26.6236930  26.9087122
  13.0580321   3.7309321  33.0920570  12.2618394   3.9181302  33.6695187
  13.1386022   2.7552937  33.2964295   5.6086179  17.1696811  21.4509717
   6.0763579  17.6668700  22.1274746   5.0931564  17.8120752  21.0271008
  14.7840546  19.2747957  35.1942378  15.0297494  19.9777831  35.7664139
  15.6112083  19.0850595  34.6684299   2.8350460  30.4818287  30.7796002
   1.8565679  30.6391127  30.7925671   2.9727330  30.3291534  29.8387878
  65.6397027  75.3504974  34.0042395  66.5658464  75.5663381  34.0355222
  65.6677566  74.4821905  33.5253621   3.1546529  25.7351399  36.1811936
   3.1487118  26.3938245  35.4381820   3.5770985  24.9414635  35.8076179
  27.6979202  45.3167647  82.5712682  27.0642945  46.0429121  82.5975294
  27.8026797  45.1016001  83.5060399  11.3656990  19.4739231  27.6983460
  10.8751703  18.7211362  27.4106126  10.8519213  20.2133394  27.3697151
   9.3841470   9.5002869  31.2644805   9.1731523   9.8424624  32.1599178
   8.5378536   8.9525717  31.1510695   9.0281308  26.5483159  22.8022890
   9.0045455  26.7061230  23.7336010   8.5762836  25.6916206  22.7473045
   6.5921768  37.5870953  51.0674584   7.2903404  38.2710834  51.1717349
   6.8943799  36.8175619  51.4982440   7.4936411  33.7825594  31.4896246
   7.9087292  33.7121169  30.6008988   6.5738664  33.5176296  31.2259762
   7.3446537  36.6793623  37.3257700   8.0266712  37.0921209  37.8191536
   6.5318402  37.0373177  37.7262839   6.5098319  26.4075202  28.7366441
   6.4328257  26.1722399  29.6496158   6.9919179  25.6912215  28.2924015
  10.8389993  28.7343387  28.7561904  11.0743959  29.1963787  27.9626452
  11.5147068  29.0466821  29.4224446  77.9948111  40.2605454  19.2259059
  77.1967503  40.5483545  19.7782076  77.8744019  39.2688776  19.3422250
  75.0072809  32.8265261  24.9707927  74.6098449  32.1044623  24.3850778
  75.7430520  33.1322583  24.3778404   8.5700401  44.5191469  29.0338667
   8.7032411  44.8640760  29.9543377   9.0245947  43.6003363  29.1538542
   0.2188634  30.8536054  30.0023371  -0.3665998  30.5512068  30.7761485
  -0.2373911  30.4388573  29.2494866  78.7573236  32.7362422  35.0245424
  78.1569725  31.9664616  34.9558726  78.3955769  33.3851144  34.4411093
  78.2403108  38.6801432  31.3942848  78.2028763  39.5593383  30.9343641
  79.2121567  38.6921326  31.6910895  18.7245536  26.9427834  12.1529953
  19.4157701  26.4184972  11.5724384  18.6979826  26.2917273  12.8608563
   0.6078977  29.7247249  35.8390368  -0.2652105  30.0013571  35.4779845
   1.0317912  29.2455677  35.1140285  74.8060954  30.3614393  38.7661640
  75.2500608  30.8197610  38.0219592  75.6154798  30.3993453  39.3897920
  14.1554217  29.3569462  23.7513903  13.7147340  29.2303233  24.6921570
  14.1523650  30.3471481  23.7980989  15.8299757  33.5744839  12.7003899
  16.0079623  32.8411237  13.2953197  15.1078201  34.0440592  13.1335055
  14.0661212  53.0515911  37.7844833  13.1226728  52.9409535  37.9004938
  14.0766943  54.0387358  37.9536699  15.3641155  45.5689602  19.4389039
  15.5973153  44.9492357  18.7025278  15.1639042  44.8603589  20.1190509
   1.4460738  23.5449041  46.7890002   1.3660529  22.5226759  46.8559277
   2.3230861  23.5945877  46.4316230  14.7439041  44.0859063  34.3941871
  15.5162685  43.8890562  34.9183950  14.3937685  44.8428982  34.9548399
   6.6222744  31.0027732  37.8938694   6.3805416  31.8654479  38.3091124
   6.9836891  31.3277598  37.0205155   7.3786424  35.3018399  48.1477657
   8.3426190  35.3488938  48.2874955   7.1183144  36.2698450  48.0655330
   3.7658268  30.4943740  33.7595723   3.3877355  31.4197870  33.8497040
   3.3998120  30.3229824  32.8249485  26.0992401  55.8471655  66.4351382
  25.5852136  56.5025449  66.9544917  25.5117875  55.0668642  66.4936202
   8.1866669  19.8544582  23.7533901   7.3527531  20.2731551  23.6279854
   8.2773258  19.8677952  24.7017827   1.1850156  27.4328524  28.2246349
   0.4630739  27.2018596  28.8642197   1.8995423  26.8578640  28.5243677
   1.6043496  32.2064254  26.5627483   1.3933566  31.7435067  25.7409605
   2.1176141  33.0128507  26.2415776  11.4122118  42.9000165  27.5203263
  11.6695381  43.6673772  28.0487380  10.8304361  42.4338069  28.0996407
   7.8069554  30.9505697  20.9643292   8.0050012  30.0273031  20.8292294
   8.5436971  31.3812673  20.4313362   9.5800780  41.8337945  25.3598055
  10.4946637  41.9767180  25.7369008   9.1612112  42.6837332  25.4476241
   6.8511781  26.2836211  33.2285408   6.8757355  27.1240765  33.7018655
   7.7955604  26.1215923  33.0982561  25.1798185  57.4561990  72.5262578
  24.3791664  57.8090973  72.0938009  25.0882346  56.4889966  72.3138049
   5.2598814  52.5817413  26.4494957   6.0489659  52.4977037  26.9015057
   4.9620521  51.6694012  26.2481787  12.9141473  35.1938137  26.9495332
  13.4321495  34.9890196  26.1109404  13.6162015  34.9550777  27.5540478
   5.8464505  35.0788639  14.0937139   5.4026536  35.2538328  14.9495547
   6.3215856  35.9738731  13.9810657  13.4404332  40.0338342  23.4583753
  12.8719781  39.2428761  23.4322858  13.0451547  40.5617018  24.1399071
   8.0107647  39.6117384  25.9752348   8.6722456  38.9571405  25.6771159
   8.5287460  40.4288097  25.7740778   1.7383891  18.9059573  31.1189387
   2.3874926  19.5897120  30.8971293   2.0886493  18.6579223  32.0183060
  12.0997425  27.7558929  19.3686371  11.9637651  27.9595302  20.3016978
  12.9117199  28.3123426  19.1794013  16.0156001  33.8873335   7.4041506
  16.1714550  33.3600691   8.1939575  15.0796031  34.1264675   7.5134283
  74.4048862  30.4015304  31.4055794  74.9933642  29.8194673  31.9194248
  75.1044053  30.9981480  30.9912350  23.4827655  33.2550053  19.5779099
  23.2507514  34.1547109  19.8631520  22.8873194  33.1004494  18.7823424
   5.9895151  33.4944492  38.9323874   5.1181458  33.5499369  38.4546430
   5.7632534  33.3850098  39.8506241  73.0551292  29.9769200  28.9573660
  73.6258229  30.3476357  29.6359930  73.3380885  29.1035383  28.8483929
  75.4680383  38.8805855  23.6894299  74.8891422  39.5853345  23.3583865
  74.8865767  38.3193672  24.2355804   9.0161416  47.3476637  33.4166088
   9.9356771  47.2028625  33.6960459   8.5622128  47.1334659  34.3071307
  13.6780323  21.0502145  18.8071105  14.0293180  20.3762296  18.1746370
  14.4855519  21.6033295  18.9300884  76.1166648  18.7521467  38.9596962
  76.4362898  19.5043886  38.3630269  75.9661799  18.0656472  38.3174633
   8.7935796  51.0228547  26.0416431   9.6851370  51.3225691  26.4668746
   8.2718295  50.9552788  26.8530149  15.4006338  36.3926876  23.2712633
  14.9618333  36.3767255  22.4293989  15.9102605  37.2393149  23.2100956
  10.7712330  30.3188887  24.5280811  10.7045756  31.2450012  24.2049509
  11.1381664  30.3838082  25.4349473   6.8165618  38.0920767  31.0090773
   6.5291040  37.2294558  31.3345059   7.1348868  38.5022526  31.8321163
  16.0884504  35.9223236  17.5164837  16.6352589  36.0265259  18.3079942
  15.2395324  36.3317831  17.7591902   7.8786395  24.6597667  30.5151951
   6.9463791  24.8719476  30.7824594   8.1226547  24.1782474  31.3773988
   9.8955920  46.4800940  25.6614832  10.5337161  46.7226185  26.2961985
   9.7799377  47.2510044  25.0792977  11.5291556  52.3537307  25.7516928
  11.5346552  51.9014584  24.9232653  11.6857446  51.6217784  26.3865221
  16.9017271  47.4643502  29.8220887  17.7133586  47.9662524  29.5807990
  16.7157987  47.7570031  30.6960267   4.0602450  37.4709414  33.1633347
   4.8866193  36.8910690  33.2023487   4.3236080  38.0997787  33.8309539
   5.4595243  48.2991432  32.2875968   5.6026036  47.3146916  32.3193787
   4.5643539  48.3343919  32.6700383  12.5680040  47.9105328  24.3118531
  12.3154687  47.4788196  23.4319397  12.6865149  48.8521182  23.9921406
  10.1416844  34.9753073  27.0747833  11.1220220  34.8706380  27.1868647
   9.9948020  33.9916597  26.9169766  76.0225500  18.2227184  34.1036546
  75.8102157  19.1594199  34.1626660  75.2483497  17.8354450  34.6116283
  11.0136340  17.8526081  35.5591323  10.1570691  18.3639413  35.4575398
  11.5078762  18.4688763  36.1397333   9.7840734  26.5605478  27.1435650
  10.1034482  27.1494510  27.8662824   9.6231449  25.7283971  27.6737282
   7.6824399  31.0117931  17.7062494   8.5023157  31.3445800  17.1957449
   8.0591726  30.3364614  18.2943768  72.1034051  36.3652393  46.8053634
  72.3207560  36.9041016  47.5217001  71.4215286  36.8870975  46.3434745
   7.1256978  47.5552491  39.4685154   6.5484917  47.7825594  38.7074449
   7.9367802  48.0604426  39.2310908   9.0671032  32.5966676  33.4498540
   8.4777853  33.2470883  32.8599485   9.7496231  32.4617630  32.8118277
  13.4857395  12.6163186  23.3754056  13.3762332  11.6959722  23.1053409
  12.9945230  12.6614560  24.2337346  13.6610277  45.3461596  23.5942026
  13.3566611  44.6277568  24.1948509  13.5291341  46.1307248  24.2409280
  10.8354250  39.1193907  17.9834889   9.9253685  39.1664014  18.2602047
  10.7940071  39.7999875  17.2233451   4.6370411  49.9786077  25.7122935
   4.2520433  49.2880769  26.3624704   5.3642974  49.3990634  25.3408222
  74.7478072  35.3210653  29.5747112  74.9906478  34.6738029  28.8951936
  75.5093421  35.9279730  29.5230103   5.6427548  33.1703234  43.2603434
   5.8411050  33.7487366  44.0138129   6.4541281  32.6241335  43.2655777
   5.9035863  19.1002808  39.1776571   5.6587582  19.8833524  38.5572510
   4.9473749  18.9765046  39.4881959   7.2372797  18.5453464  32.5928412
   6.4668500  18.4385620  32.0339840   7.5150657  19.4455567  32.3420622
   9.1302045  35.5608371  23.1444411   9.1502169  35.8914558  22.2311544
   8.6837164  34.6983748  23.0457866   5.0409874  32.6631670  30.5137789
   4.5168043  33.5052161  30.4481993   4.3330097  32.0588163  30.8111175
  20.4040364  41.8078980  13.2167989  20.6931347  42.1052517  12.3107723
  21.1942398  41.6266381  13.6480640  76.9980307  16.8570871  23.3344489
  76.8956033  17.2413192  22.4692370  77.8543374  17.2946574  23.5754107
   8.9535473  36.4535093  39.7169069   8.3321209  36.4999813  40.5015218
   8.8832082  37.4170149  39.4751055   6.6916671  19.2737538  17.8754358
   6.2463517  19.0255757  18.7083823   6.9035791  20.2009308  18.0466371
  12.3793768  16.9182154  21.4208656  13.1743615  16.7019198  20.9489237
  12.0321732  15.9970121  21.6133680   8.2145820  16.7677731  29.8103002
   8.7843959  16.4761464  30.6091460   7.3710709  16.4972811  30.1659831
  72.9786507  32.8223224  38.0731539  73.9190770  32.8645223  37.9697146
  72.7099567  32.2354440  37.3809949  32.8078168  64.8701031  74.6333007
  32.6965861  65.3438488  73.7346668  33.2314819  64.0634989  74.2871621
  14.2621596  21.5697843  26.0264595  13.9289740  21.8147068  26.9225676
  14.9950084  22.1957875  25.9486188   5.5834039  22.9891386  28.1980113
   5.4735133  23.4917901  28.9712424   4.9587465  22.2119248  28.4395298
   2.8559552  27.9308721  34.4879473   2.3699274  27.6967609  33.6832994
   3.3135480  28.7517413  34.2282890  14.6223089  32.2482827  23.5823954
  15.5318824  32.3128008  23.1660565  14.5872450  33.2443095  23.8076158
  16.0917509  31.1416834  14.0475738  15.3687902  30.6027168  14.3335342
  16.5350803  30.5322379  13.4394023  76.3971022  44.4613143  25.0394286
  77.1611570  43.8458164  25.1204690  76.8925271  45.2912519  24.8577587
  10.8441427  32.8359306  23.3393695  11.1314238  33.7757077  23.4827234
  11.4311221  32.6587921  22.5657775   8.1198605  50.2083605  23.3987199
   7.9709103  49.2649944  23.3574456   8.3557126  50.3062776  24.3538488
  28.4835038  58.2324364  76.1951558  28.9854583  57.4146286  76.2403300
  27.9947632  57.9968567  75.3285126   2.9736827  34.3964458  25.2303637
   2.2029170  34.3924773  24.6225694   3.6737941  34.2386675  24.5794415
   5.5909075  20.5536053  23.9764349   5.8017986  20.5714718  24.9526138
   5.1473683  19.6619302  23.9394639  13.5689548  59.7745879  40.4076438
  13.1180024  60.6452361  40.5974380  13.4177850  59.7508533  39.4482204
  23.1671293  54.3170095  25.6719098  22.6025938  55.0276132  25.2278485
  23.2586314  54.7885279  26.5524555  12.3558561  59.7541632  20.0167352
  13.1463057  59.7371103  19.4900967  12.2485011  60.6927572  20.2881834
  17.7847718  54.9264031  29.4438984  18.6183909  55.3692246  29.6828942
  17.3645638  55.7007953  28.9063729  16.9941085  47.4936607  20.7741508
  16.7348511  46.7060806  20.3050473  17.0569670  48.1782643  20.1626517
  16.2727061  50.8949398  26.7593433  15.8042923  51.5977381  26.1542254
  16.7236473  51.5447247  27.3526725  15.3426988  63.4946261  31.8644728
  15.9354898  62.6237818  31.7375202  15.0699806  63.3343311  32.7392369
  15.4111521  64.5694265  24.4470487  14.7928353  64.3169252  25.1850849
  16.1690374  64.9493420  25.0446853  23.8278030  50.5726644  15.6005979
  24.1327894  50.7465341  16.5587867  24.5637527  50.0397252  15.3227253
  22.2186417  48.9038307  13.4498992  22.1016138  49.6486873  12.7907023
  23.0247817  49.2614255  13.8552595   8.4112236  38.9228398  21.5919456
   9.1908217  39.1377284  22.1195376   8.5958283  38.0083964  21.4097815
  22.5627967  48.3822408  24.3640292  23.3804212  48.2480135  24.8426572
  22.8126393  48.1219608  23.4527518   8.9721689  47.1908258  20.7154107
   9.2976041  47.1071908  19.7922779   8.0098806  47.0828618  20.5681898
  19.2558766  58.0632414  34.2048064  18.3649459  57.9205647  34.4675052
  19.7745694  57.3125505  34.5262361  12.6015768  47.4592071  26.9601275
  12.7207954  47.6803135  25.9916766  13.4166623  46.9394330  27.1602722
  12.4413512  50.2966691  23.2027939  12.9117521  51.1305259  22.9189810
  11.7108682  50.3192467  22.5378723  14.8426568  46.1157765  28.5534034
  15.2180900  46.0321504  27.5907524  15.6881326  46.4310050  28.9359772
  13.5470102  43.8116242  25.9056356  12.7311328  43.5568503  26.3232645
  14.0485679  42.9559750  26.0206142  19.7240426  60.0526124  26.8578556
  19.4753905  60.1079328  27.7877863  20.0620942  61.0262620  26.7605609
  16.1176968  52.2552478  19.5213790  16.3419095  51.6392281  20.2393421
  15.2319354  51.9120788  19.3027670   6.8533358  59.6666249  29.3165738
   5.9519975  59.3206114  29.2004774   6.7438702  60.6234780  29.2965883
  10.8585032  41.1414304  16.3952764  10.6641923  41.9420171  16.8899724
  11.4286932  41.4470819  15.6643567   4.6509108  55.1319347  26.0440942
   4.8716217  54.2525953  26.4336845   5.3201739  55.1783431  25.3677481
  13.7934707  41.8845913  29.3222932  13.4232010  42.7441289  29.2942499
  14.2712077  41.7550580  28.5016707   2.3923356  56.2119282  63.3045773
   2.0463230  56.7110173  64.0921717   2.4064107  56.9601200  62.6496112
   7.2753671  47.7470870  36.0340369   6.3521050  47.5484247  35.9221513
   7.2700101  48.7300082  35.9351500  32.7191756  57.0391354  10.7915575
  32.6669080  56.4727792   9.9903035  32.0572877  56.5659296  11.3935430
  21.5140551  56.6822559  18.1146343  21.3023649  57.6144608  18.3734891
  20.6026484  56.3931166  17.8537101  23.1096536  61.0154507  26.3708343
  22.6372154  61.8758026  26.5346005  22.9474627  60.5795794  27.2381957
  12.3661631  47.2234208  30.0686890  12.4149240  48.1402301  30.3503952
  12.5692630  47.3439815  29.1178281  21.0376874  48.0013926  36.7311795
  21.3646787  47.1240569  37.1328276  20.8827928  48.4671723  37.5750656
  17.0448804  62.2436773  27.8925947  16.7239856  61.5465135  27.2766959
  16.2195366  62.5180697  28.2767519  16.6495890  61.2476166  31.1381500
  16.5357383  60.5163977  31.8835376  16.8302614  60.6296906  30.3965221
  14.8171344  52.1128628  22.9648006  14.9285973  52.3694758  23.8985318
  15.4294527  51.3970202  22.8409244  26.6455407  49.6012645   9.6345431
  27.0215408  48.8674348   9.1273538  26.5666903  49.2132821  10.4805235
  17.7751998  56.0211114  17.0271705  17.8112815  55.4049265  17.8269659
  18.1264214  55.4119229  16.3154019   8.5680055  45.1353925  31.5899688
   8.1277126  44.5663173  32.3057949   8.8521485  45.8737727  32.1178310
  15.1305085  47.8599100  17.3871611  14.9641184  46.9778019  17.0305647
  14.8669819  47.7295204  18.3127790  15.0946195  41.5343733  26.8994862
  15.5255350  41.3307054  26.0156995  15.8793074  41.5518180  27.4802443
  18.7109566  51.8522010  16.9464485  19.0981559  52.5098556  16.3145925
  19.4664330  51.1990762  16.9760732  27.7821509  56.7447373  16.1274930
  26.8284548  56.9030212  16.3184005  27.9457667  57.4870526  15.4738386
  21.4649281  64.0449266  15.7553420  21.9979665  64.7831752  15.4915867
  21.8387760  63.3214716  15.1856312  19.3629382  60.2425556  29.4965104
  19.2187886  60.6671686  30.4097405  18.4063921  59.9485543  29.3267772
  72.8307044  44.8253603  14.8719691  72.5781149  45.8045744  14.9303009
  73.6638031  44.8815204  15.3299597  13.0447631  45.7798183  32.2439770
  12.7158427  46.3881692  31.5263813  13.9900046  45.7741751  32.0299900
  15.1451020  54.8533475  17.4813999  15.8990441  54.4430787  17.8802592
  15.1266475  55.7015328  17.9357673  20.9044044  53.2918670  29.5010582
  20.5090708  54.1812954  29.5666643  21.7970892  53.4190632  29.7648928
  16.4379678  50.1792528  21.4946250  17.1734595  50.5294145  22.0465974
  16.4933699  49.2132160  21.5733315  17.5804388  58.5114946  16.3362152
  17.7615756  57.5380646  16.7317361  17.0584500  58.2330987  15.5758784
  15.0208606  53.1816991  25.5531600  15.6217588  53.9876172  25.3630761
  14.1615812  53.6701005  25.3038713  11.8839873  46.6692505  38.0564986
  11.1899196  46.9677393  37.4699949  11.4920916  46.6012576  38.8916075
  12.7527931  42.6288527  33.3722204  12.3503184  43.3801287  32.9183282
  13.4714984  43.0763945  33.8611712  13.6638638  51.6901585  28.4130750
  14.4492102  51.5585100  27.9121206  13.1850979  50.8651141  28.3422740
  14.7683231  55.1277760  34.0729295  14.3177258  55.9612999  33.8378296
  14.8566119  54.7213515  33.1942090  21.8144402  58.1383608  11.2774647
  21.5315758  58.0244709  10.3773583  22.1761811  57.2172319  11.5420124
  14.0811504  60.0113738  22.7633991  13.8489289  60.8746315  23.2647857
  14.1265194  60.4383535  21.8655877   9.7858212  41.9368198  29.4734848
   9.3147817  41.0518298  29.3278795   9.9119714  41.8477519  30.4398159
  29.1810573  41.9801985  16.0949933  29.9666885  42.4482196  16.3836275
  29.6010008  41.1879190  15.6890467   9.2057567  48.5422774  27.8059403
   9.1653687  48.2903905  28.7138556   8.3353704  48.1347919  27.4927978
   7.1573616  50.1739563  35.1180866   7.7866487  50.6592590  34.6283381
   6.4748162  50.0331952  34.4491863  25.1591788  -1.9957401  32.4656626
  26.0240025  -1.7915897  32.8512300  25.1090481  -2.9590240  32.6901598
  19.0232790  53.7335608  21.3955142  19.0809883  53.6454665  20.4573268
  18.1295453  53.9679518  21.6473714  66.7861426  50.0247055  22.1212555
  66.5184217  50.9559816  22.1028578  67.7758193  50.1409903  22.1384428
  18.7510466  47.6479094  33.4425242  18.3528149  46.8252874  33.0189267
  18.0977949  47.7763208  34.1317807   9.5716529  56.1358743  23.4682595
   9.8665190  57.0246772  23.3240951  10.2466417  55.6315498  22.9167055
  21.3938422  56.0496736  24.7176805  21.0583501  56.0533909  23.7794782
  22.1492585  56.6256379  24.6009505  11.0148855  60.2957851  32.0785596
  11.1922974  61.0218977  32.7121865  10.3016657  59.8371123  32.5609606
  28.1638442  54.2504144  14.6260258  27.9883245  54.9985470  15.2035239
  28.8992610  53.8022014  15.0660242   5.3563599  58.6337825  39.5733595
   5.6921928  58.3214785  40.4365336   5.1202905  59.5936194  39.8586396
  74.5266963  51.7588857  40.9388856  74.9582194  52.4744436  41.4371657
  74.8361456  50.9893938  41.3577569  20.9703897  57.4438173  27.4395438
  21.3506377  58.2207558  27.0401445  21.7455493  56.8174437  27.4040380
  12.7126179  54.7545955  24.8832356  12.4301272  54.9073670  23.9741950
  12.2655760  53.9322114  25.0839632  27.5913655  61.1241662  28.9609453
  27.7033929  61.9486709  29.4517107  28.4932478  60.7341233  29.0854257
  17.8943919  53.9244187  18.6459943  17.0517976  53.5350297  18.9283487
  18.3707352  53.1235050  18.3001246  25.7547198  63.4088621  33.5965625
  25.0250426  62.8379837  33.3365649  25.3889245  64.2868414  33.3793438
  68.9335376  52.1584816  33.1870557  69.7394854  52.1309452  33.7248158
  69.2561975  51.7075047  32.3671153  11.7059337  52.3921973  20.4694630
  12.5385578  51.8886645  20.3168562  11.1741284  51.7705692  20.9281102
  11.8254941  62.4668163  20.6861373  11.6592801  62.7522251  19.7307091
  11.5720917  63.2749048  21.1390080  28.3659469  50.5695200  16.1136181
  29.0252497  51.2450071  15.9478133  28.7622387  50.2466839  17.0136684
  22.4859156  51.9342965  24.5392260  22.9625228  52.7668115  24.7838840
  23.0784123  51.2989027  24.9303012  15.9196446  41.3587742  24.4194791
  16.6569072  41.9590164  24.0773782  16.1532562  40.5034998  23.9688547
  15.5764186  46.2999034  26.0039589  16.0782212  47.1201808  25.7392329
  15.3823586  45.9564718  25.1357346   2.2104691  49.8500374  28.8757095
   2.3934419  50.4649135  29.6108281   1.3712614  50.2827540  28.5585813
  19.3631478  48.6057160  28.7412729  19.6921193  48.4483636  27.8539753
  19.2889069  49.6167746  28.6607489   6.8116678  62.1348881  29.9791247
   7.7849501  61.8783082  30.1471282   6.8883514  62.4832135  29.0847235
  14.0327862  63.6446829  35.5967683  13.9337148  64.4235702  35.0726938
  14.5011004  63.0476550  34.9926530   7.9542542  63.3655107  20.4658574
   8.5681139  64.1216254  20.2850919   8.3945891  62.6590044  19.9279495
  16.0934172  47.6252944  36.6098093  16.3599926  48.5787529  36.7397490
  16.5276439  47.1585075  37.3139830  11.1915070  58.4883645  16.7796327
  10.4259041  58.8363950  16.3022248  11.0995617  58.9610510  17.6301796
  19.8853177  51.5085866  25.2934466  20.6016384  52.2326252  25.3024008
  19.3099578  51.8335168  25.9955952   3.3068187  50.0884839  17.4241242
   2.8524878  50.0394569  18.3133349   3.1910494  51.0876412  17.2942105
  11.6500117  41.5804339  11.6196644  11.8276727  42.4234472  11.1105959
  12.4133054  41.0700846  11.2882841  20.2991813  49.0430356  18.4272307
  19.5699099  48.7181987  17.8021076  20.5142149  49.8879567  18.1111621
  21.4317408  42.8217053  22.2178251  20.9168002  42.6776004  21.3931745
  22.3469786  42.8202712  21.8333529  20.5916504  43.2919755  17.5399534
  19.8963559  43.7886816  16.9940866  21.1924633  44.0660431  17.6767324
  13.0369999  44.6651243  20.9205137  12.3928457  43.9780057  21.1375718
  13.3832351  44.9352188  21.7537401   6.7400828  50.5283929  31.1915189
   6.0592660  50.5205414  30.5286512   6.5201930  49.8259391  31.8010173
  20.9772167  42.9355863  24.8721785  20.8768985  41.9785616  24.9741167
  21.3736128  42.9572488  23.9577472  17.3701089  38.7747098  17.9717240
  17.8973540  39.2874332  17.3581806  17.0536261  38.0370211  17.4090202
  13.0846578  49.9448257  34.1865885  13.9748004  49.4880128  34.1646556
  12.8013694  49.9220744  33.2743731  78.6970270  58.2423682  26.3642562
  78.2819958  58.1730763  25.4922754  79.3996199  57.6123701  26.3543153
  14.4250347  54.4238238  28.6623904  14.7586234  54.6810691  27.8024533
  13.9408803  53.6354848  28.5134656  18.1609195  51.9643254  31.3882880
  18.8282195  52.1783040  30.6961446  18.7573860  51.3875141  31.9441557
  13.8080765  58.4080774  48.4135941  14.7511377  58.4039227  48.2946223
  13.6275007  57.8000662  49.1246390  20.1147604  48.9036140  25.8324951
  20.2838276  49.8607359  25.6385978  20.7786825  48.4615775  25.3110551
   4.1846950  64.4352673  29.5507759   4.9553473  64.5873536  28.9818384
   4.0884622  65.3115694  29.9749643  15.3948922  42.3080818  15.1384229
  14.5086615  41.9675671  15.2398534  15.7518517  42.1201801  16.0542556
  13.8875540  46.0584859  36.2552802  14.6069528  46.6976599  36.3736469
  13.3275188  46.2919360  37.0332744  22.9753859  36.4160996  13.9328398
  22.6497538  37.2335496  14.4153814  22.1318430  35.9441086  13.9012927
  16.5292973  56.9321199  35.1616094  15.9884481  56.2724065  34.5806120
  16.1349334  56.7922185  36.0213298  12.4243822  44.7073202  29.2534741
  12.0634683  45.5482729  29.6483507  13.3785748  44.8641466  29.4081252
  30.0047167  60.0469308  28.9085771  30.4437497  59.7791132  28.0641250
  30.5929624  60.8219463  29.0968749  26.8928404  54.7109882  28.6381317
  26.2121983  55.3150573  28.9375193  27.6309628  55.3280610  28.4501655
  24.2618963  71.4241803  33.2861759  24.7805861  70.9460205  33.9535681
  23.3917074  71.3999611  33.7907235  25.1705907  62.7661731  24.2416856
  25.2348039  62.5728789  23.2656275  25.7399508  62.0200718  24.5568301
  33.6656844  68.6712690  33.0768430  34.4442527  68.6968691  32.4920379
  34.0740931  68.6653902  33.9723323  21.2933869  64.3518430  33.2421602
  21.8462097  64.7574461  32.4657828  21.1841988  65.1378022  33.7584867
  28.4994102  61.9516250  35.2903138  27.6536392  62.2120393  35.7128238
  28.3446871  60.9806938  35.1949013  32.5675403  65.2647082  23.1331074
  31.9841909  65.6475009  23.8351705  33.4446864  65.3096030  23.6353798
  16.9019226  63.9830502  22.3597558  17.5488708  63.5394950  22.9301540
  16.2675687  64.2772482  23.0730199  24.9621169  65.8037801  32.7749678
  24.2278405  66.4325163  32.9177602  25.6601601  66.4240299  32.4713789
  51.8237699   6.7416474  24.8616937  51.5715061   6.7073730  23.9141542
  52.7607444   6.9897606  24.6992658  29.4374613  63.5226347  28.2330555
  29.0360331  64.2414579  28.7787928  30.0790837  63.1364197  28.8210642
  23.3746216  55.4647183  28.1434667  23.4337803  54.8338231  28.9182336
  24.1342082  56.0388498  28.3876523  29.9572493  56.8387132  28.4165817
  30.7333229  57.3851267  28.6533707  29.9886713  56.2166342  29.1658346
  10.0139338  61.0600548  21.9862543   9.7261451  60.4300810  21.3017392
  10.6450994  61.6220620  21.4468680  20.5873646  65.0745225  22.3955469
  20.8259611  65.2708902  23.3250083  21.4473487  65.4239293  21.9650797
  17.1955088  59.8309121  21.2918684  17.9878192  60.0259938  20.7983434
  16.5798911  60.5412991  20.9855461  19.9873977  68.1529108  21.4560242
  19.5674887  67.3145563  21.3100433  20.1353905  68.2182074  22.3710376
  19.8526216  64.0120549  28.0435369  19.8395754  64.7922373  27.4808725
  19.0947319  64.2705605  28.6789559  25.5937828  69.5968747  34.9159333
  25.3768266  68.9650173  35.6114104  26.0156820  70.2935944  35.4419702
  29.1764428  74.8004010  34.6419510  29.2971589  73.8690568  34.9865168
  30.1364022  75.1172168  34.7106877  27.9051458  63.0496332  30.9297765
  27.4784893  63.4996591  31.6645452  28.8622993  62.9899809  31.2263773
  24.7289720  63.7839871  30.5827958  24.6853042  64.4281761  31.3044724
  24.7198019  64.3484166  29.8168290  25.3043452  65.0446615  14.4262849
  25.9511798  65.1324939  13.7153787  25.8605634  65.3169708  15.1979828
  23.1871733  73.3899090  20.0880035  22.6304533  73.2046244  20.8660056
  23.6951079  72.5544114  20.0160521  30.3108401  74.1147377  26.3491475
  29.3986469  74.1311653  25.9385654  30.2161389  74.5801500  27.1568282
  31.8228905  77.9456413  29.8085563  31.0728675  77.4692705  29.4694908
  32.5009247  77.6497705  29.1662876  29.3125748  63.3416499  22.8021766
  29.2456837  63.7513917  23.6930487  30.1031344  62.7917909  22.9563352
  32.4834953  78.0772754  32.4945228  33.4389888  78.0795772  32.1686579
  32.0668429  77.9716864  31.6144066  23.5866681  55.7459468  36.3743062
  22.7871587  55.5087324  36.8582493  23.7132999  56.6717277  36.7999172
  22.6122128  68.1065530  30.1849419  21.9138464  68.6565716  29.8250354
  23.3396423  68.3940414  29.5761162  30.3921498  62.6060135  31.8179648
  30.8987216  62.5873063  30.9902547  30.7053198  61.7625567  32.2331407
  25.0989509  61.0767211  30.6454402  25.0599872  62.0408096  30.7620635
  25.9985483  60.9896126  30.2422148  27.0445813  68.2774180  32.7379940
  26.9861806  68.8683865  31.9813868  26.6617771  68.7392485  33.4755244
  32.2116811  66.2256676  29.1543232  32.7932232  66.5686463  28.4141573
  32.4593188  65.3015220  29.1646440  23.3888016  71.8013120  37.5363036
  23.4601666  72.0380374  38.4925933  24.3344975  71.5186295  37.3845926
  27.9409049  59.3619939  36.3292434  28.0679134  59.6251042  37.3054825
  28.0699951  58.3797768  36.4486800  26.9971862  66.1280939  16.1883840
  26.5149033  66.1561836  17.0608304  27.6609235  66.8588079  16.3862165
  16.7990700  65.9116963  20.2996773  16.4369285  66.5736098  20.8820066
  17.0451385  65.1464087  20.8629996  20.4665328  61.3252889  42.9142336
  20.7100356  61.6438486  42.0158895  20.8726780  60.4209215  42.8543612
  29.6040602  66.1225789  29.6428238  30.5571794  66.0245445  29.4873175
  29.6195515  65.7956079  30.6097747  29.5629272  69.7188969  31.2079694
  28.6219684  69.4976122  30.8807363  29.4914345  70.6828096  31.2751180
  45.1971769   2.9652870  38.5307594  46.0770018   3.3513226  38.8193515
  44.8466937   2.7601519  39.3958994  27.2057580  58.5332451  27.8691649
  28.0704109  58.2491096  28.0245775  27.2409347  59.5032703  28.1484431
  33.8483095  67.4425149  26.1430747  34.1721893  66.5330522  25.9191970
  32.8790536  67.3639403  25.9393446  59.9624528   7.2190590  28.8916939
  59.0444562   6.8631573  29.0836340  59.8616116   8.0776635  29.3593319
  32.5213266  66.1946523  33.0932204  32.7354307  66.1379547  34.0898887
  33.0995507  66.9722565  32.8672933  22.4235597  74.4194525  28.4821580
  21.5154635  74.7329860  28.5567407  22.4614829  73.8048288  29.2491496
  26.5178657  74.8540781  17.8018874  26.3382195  74.2267063  17.1015594
  25.9574628  75.5540056  17.5305184  14.7334099  60.8028753  26.2802432
  13.9169158  60.3580687  26.5570961  15.0607460  60.2501633  25.5667501
  47.1750840  79.8831950  26.6367764  46.4714341  80.5138274  26.2901996
  47.8638855  80.4639499  26.9202126  40.3373486  72.8819459  29.2682548
  40.9657350  73.1423535  30.0009273  40.8425886  72.1803045  28.8301002
  26.8304918  69.9993972  30.4789483  26.4222987  69.4258579  29.8177438
  26.0897368  70.6226613  30.6418195  33.4817467  74.0652046  27.3771165
  33.2938161  73.5807304  26.5712064  33.1189369  73.4171729  28.0542587
  19.5106928  66.5840733  31.1064114  19.6149368  67.4999412  31.3712865
  18.9767258  66.1788103  31.7574293  22.6333819  66.0935167  20.9381373
  22.9301870  65.5149625  20.2337484  22.3895423  66.9180501  20.3990372
  22.0040186  60.5794860  28.7980208  21.9016563  61.4817628  29.1636417
  21.0860864  60.2477133  28.9754971  36.7806626  70.1489686  24.7633082
  37.0965342  69.4126050  25.3208525  35.8307373  69.9225873  24.7214236
  18.0996049  63.4818061  30.0544746  17.8767145  62.7855083  29.3903957
  18.0973113  62.9626286  30.8694798  70.3648525  10.1817632  29.6355836
  70.1920929   9.9636931  28.7083102  69.9404255  11.0527867  29.7390421
  20.2125061  68.4639865  24.8790306  20.5574804  68.8972541  25.6644368
  19.2652417  68.6995856  24.8552138  50.6876807   2.9704301  30.2900386
  50.7593440   2.6478291  29.3640726  51.2978537   3.6611937  30.3304392
  24.4584658  61.4727218  35.2772186  25.1098498  61.7474959  35.9790215
  23.9257107  62.3068177  35.2761853  26.3197378  66.0553442  22.1547591
  25.9564646  66.7703979  21.6310398  27.1358260  65.8254114  21.6443530
  23.9914167  68.3393126  24.2504722  24.5667488  68.5503623  25.0413353
  23.9833650  67.3468153  24.3488491  13.1865859  68.2656435  22.7275524
  12.5492511  68.5482776  23.4209264  12.5729893  68.4607927  21.9280614
  55.4108228  13.1451178  13.0772809  55.6859269  12.2472688  12.7818529
  54.4161228  12.9621482  13.1260667  26.1418318  62.9739315  27.3687208
  25.2638256  62.7371275  26.9649883  26.3377420  62.2434496  27.9258557
  31.2233053  68.9302647  29.3252737  30.6851829  69.1206960  30.1352628
  31.2866613  67.9882284  29.3416366  22.6621140  63.6495549  25.3709447
  23.3862037  63.1441318  25.0198380  22.9594406  64.5773592  25.2890030
  21.4150137  66.5766639  34.5354191  20.9009586  67.2929611  34.9770637
  21.8402260  67.0999840  33.7778644  17.9811262  65.7253608  17.8349300
  17.4908685  65.7463711  18.6529135  17.7501988  66.6050064  17.4676295
  25.9641134  71.8694812  25.5961056  26.2039929  72.0559095  26.5133211
  26.0477299  70.9141559  25.4989891  29.9155426  75.0223835  31.5192513
  30.7409662  75.5437561  31.6083338  29.5216438  75.2210206  32.3682683
  35.7999317  63.5436844  23.6420178  35.4843159  63.2416569  22.7513543
  36.6072457  63.0227501  23.7558981  60.0185578   6.7525328  32.1095577
  59.1509915   6.6983218  31.7161552  60.4124307   5.8825845  31.8116473
   9.4495442  34.7987931  69.8149509   9.3574735  35.5939580  69.2366326
  10.4302156  34.8087252  69.9420230  20.4660317  52.0157864  37.5988633
  20.3069072  51.1815091  38.1660065  20.6547128  51.5123631  36.7641043
  26.1364747  73.5715558  37.2105716  26.4687918  74.4735828  37.4281689
  25.9652286  73.7695507  36.2181814  54.1285690   8.5502132  26.5755074
  54.6685142   9.3500973  26.7356352  54.6102634   8.1240963  25.8447366
  50.0969311  79.2647354  27.3624134  50.8145933  78.8840777  26.7560105
  50.2081643  80.2435039  27.0897233  72.6543203  10.3468935  40.8526071
  71.9613068  10.9572414  40.4537884  73.3028153  11.0992913  41.0767064
  56.9562417   3.9495373  17.1942965  57.4167317   4.1545820  16.3609277
  57.4310210   4.5565748  17.8232952  54.2027948   8.0145380  40.3948384
  53.7588943   7.2583255  40.0022483  55.1343048   7.7447003  40.1897322
  44.4556738  74.9171967  36.2701819  45.1419199  75.5166716  36.4926212
  44.6829400  74.7877296  35.3287670  39.8269930  73.0877367  13.8193823
  39.0949023  73.0378953  13.1977199  39.3594720  73.3717117  14.6404423
  44.5901811  73.6777773  30.1430610  45.1522653  73.2631458  29.4405782
  44.9711207  74.5851460  30.1238226  71.7601538  19.9707237  25.6289430
  72.6106106  19.6353220  25.2452455  71.1055461  19.6985087  24.9678054
  49.3569693  72.6293851  25.8558512  50.1650920  72.1593794  25.5287876
  48.6406969  72.1464269  25.4128149  37.4052381  79.2628127  26.3294876
  37.5847920  78.4770473  25.8434395  36.6346784  78.8803217  26.9419329
  40.8691242  75.9491678  21.0581312  40.9670338  76.9081423  21.2980499
  40.2332027  76.0683878  20.3156243  38.0288778  74.0968339  19.2376623
  38.0937814  73.2515992  19.7614383  37.1649657  73.9138303  18.8590074
  30.7373722  75.2748569  17.7154657  30.1658940  74.9448788  17.0047044
  30.8879099  76.2084691  17.4001486  42.5632447  81.6185132  28.1060309
  43.2666592  81.3597964  28.7741896  41.9782414  82.1830982  28.6857700
  33.5297895  71.9734568  22.2922183  32.9156488  71.2151478  22.3581146
  32.9145298  72.6744412  21.9303378  65.6034452  10.0686592  32.9209867
  65.1328995   9.7700699  33.7577043  65.6990938  11.0178319  33.1288779
  45.1872498  77.4301021  21.8042822  45.5982489  78.3655315  21.7698350
  45.9671761  76.9208009  22.0468429  56.9556573   6.5513642  32.1241692
  57.3242248   5.6703771  32.4104801  57.0664801   6.4354995  31.1319556
  53.1070461   5.6966643  39.0062397  53.3993424   4.8002175  39.2761885
  53.4919265   5.7461065  38.1109128  37.2692797  77.3145105  37.7314208
  37.4409646  78.2160885  37.4612133  38.1518751  76.8680705  37.5952547
  48.0432236  74.4911906  15.9872455  48.6945266  73.8693395  16.2155051
  47.5952605  74.7628635  16.7810882  70.0989379  19.4999361  23.4631062
  70.7205225  19.9850833  22.9442628  69.9237918  18.7595265  22.7674744
  53.4307173  76.0817613  30.8939102  52.7481557  75.9486518  30.2054206
  52.9475334  75.7479834  31.6868299  46.6209643  81.6354795  31.0609639
  46.5120375  80.7613109  30.6313960  47.5466233  81.8047088  31.0125414
  60.8718810   9.3633501  19.0700601  60.6100888   8.9753577  19.9398626
  60.0037791   9.6434765  18.7757038  62.9644984  11.3622099  19.5698495
  62.5174253  11.7651887  20.3642328  62.7034121  10.4295997  19.6474777
  54.7362156  14.4201221  38.8433090  54.2080317  15.2416612  38.7518752
  55.6293387  14.8777026  39.0767014  49.9737620  11.4238083  29.7256987
  49.9802104  11.4997008  28.7714418  50.7305090  11.9716158  29.9733759
  17.8360320  53.8868281  76.6604115  18.2176274  54.5557308  76.0361431
  17.1573768  54.4227083  77.0962562  26.5363409  75.1207148  22.1889764
  26.6803098  75.1852600  23.2145218  26.1291744  74.2475328  22.2428700
  24.9010617  71.8707836  30.5513899  23.9570919  71.8255090  30.4058338
  24.9826037  71.8144203  31.4836189  50.5912094  78.4102548  23.6282159
  51.3413974  78.5126273  24.2820175  49.8749005  78.1227615  24.2183735
  37.9013994  69.4862855  39.3317018  38.8098274  69.6298147  39.4662828
  37.8006815  68.7137487  38.7991659  70.1017842   8.7766712  24.2696780
  70.4836929   9.0579943  23.4696131  69.1435186   8.9635013  24.1536769
  30.8237218  71.6229425  27.0183565  30.6454136  72.5342020  26.6585271
  30.4385969  71.1210674  26.2665045  20.2682621  43.4613889  81.7839735
  19.7169532  42.7096484  82.0518047  20.4686165  43.8697673  82.6599558
  46.7032281  72.5172570  24.6447120  46.6693433  72.1373614  25.5872409
  46.5810235  73.5059692  24.9097873  50.2150028  75.7023755  32.3328304
  49.8683412  75.2794640  31.5197464  50.0865964  74.9345261  32.9340690
  46.4116097  75.5597102  29.0563353  46.8227468  76.3792727  28.7161114
  46.9721978  74.8790815  28.6699773  34.8907491  77.5130530  21.6193736
  34.5699747  77.2806725  22.5640588  35.7704662  77.1867935  21.6932972
  23.3446556  42.6349297  77.8093549  22.6205820  43.0526547  78.3465595
  23.7424593  42.0681652  78.5240011  64.4817519   8.3045344  18.6019591
  64.4710715   9.1758900  18.0988124  63.6359732   7.9289958  18.2227871
  20.2205190  37.6356956  73.6295674  20.0944788  38.5372436  74.0635715
  20.6992935  37.2285650  74.4464489  64.2788815  10.8277895  17.3397953
  63.8882635  11.3498823  16.5976152  63.7502008  11.1751422  18.1051384
  40.8015588  67.3745978  20.2682785  41.7083052  67.6596484  19.9530872
  40.7055667  66.5802674  19.6425592  28.2322026  72.1538345  12.3924646
  28.4747251  73.1390269  12.3389449  28.8159468  71.8248302  11.6437804
  32.9536138  75.0570379  30.5576949  33.2682634  74.8613140  31.4724533
  33.1605953  74.2162239  30.1035285  52.9133055  17.0963969  19.9165577
  52.7466557  16.6305476  19.0919507  53.7214985  17.5578123  19.6862638
  39.2231145  77.9546119  32.7620343  38.5591003  77.1844384  32.8641666
  39.5382021  77.7188132  31.8510851  50.2145868  70.1747018  17.8532149
  50.6699811  71.0208077  17.8141843  50.4762252  69.9520864  18.7768202
  74.8446388  10.5651025  24.7235995  74.1826718  11.0469139  24.1804105
  74.3055308   9.7847623  24.8981463  49.9304702   9.2163573  31.2661931
  49.7182973   9.8753264  30.5498280  49.0876219   9.2637871  31.7647055
  30.2685513  72.3734065  31.3242987  30.1296219  73.3505756  31.5199682
  30.9285870  72.1608759  31.9780181  62.9483414   8.2833192  37.0914993
  62.0926283   7.8557429  37.2620100  63.4983628   7.9834967  37.9119782
  63.2534232   7.4914279  31.8090955  63.0632982   6.9219147  31.0423835
  63.6070243   8.2725199  31.4311744  35.6271250  77.9541617  27.5976978
  35.7743318  77.2475407  28.2812939  34.6671253  77.8799450  27.4265291
  42.1655521  73.7593158  31.3632623  42.8969303  73.8245395  30.7497814
  42.6708794  73.6318505  32.1872570  32.8351819  72.2008017  29.8072510
  33.2995230  71.7258462  30.5119930  31.9139483  72.0005551  29.9845271
  38.7404567  71.9477300  20.8806053  39.3597326  72.6488216  20.8205405
  39.1518611  71.2953485  21.4720775  29.5465640  70.2155453  35.9538022
  29.3382649  70.5232885  36.8752305  29.7594390  69.3052213  36.0718029
  67.2502290  13.0604796  36.2197342  66.6316801  12.8104527  36.9481895
  66.7131851  13.6265426  35.6875240  40.5270669  75.9841124  14.1645970
  41.0533402  76.0679138  14.9812819  40.4262313  75.0342842  14.0734516
  23.3248567  47.9122051  84.2390358  23.3179240  46.9344137  84.2867004
  23.9595134  48.1166141  84.9288565  30.6603305  66.9933379  35.8039528
  31.6041373  66.8492610  35.6676080  30.3835913  67.3857360  34.9026841
  48.3139714  73.1985663  19.3889581  49.1926796  72.7715305  19.2882038
  47.7858990  72.6179811  18.7402600  56.6493461   4.1981357  38.8299350
  56.4565386   4.3205233  37.9021476  57.4359929   3.6121177  38.7478452
  43.0065499  75.3105218  27.7138088  42.6429069  75.3774421  28.6419180
  43.8482314  75.7764430  27.8276132  41.6147816  80.1576993  25.9665085
  40.7263395  80.5661099  25.8572743  41.8699619  80.5454822  26.8242655
  34.7883901  78.5697363  31.3881925  34.7765312  77.7016259  30.9478436
  35.5609816  78.9712718  30.9585283  42.1284011  76.4272312  35.4289212
  43.0175673  76.2961904  35.7259757  42.3003057  77.1710257  34.8175447
  48.2799525   2.1543385  31.0746813  48.5266945   1.4671728  31.7225941
  49.1216785   2.4874033  30.7736905  29.5236775  64.8838145  25.8719015
  28.5966708  65.1803908  26.1139192  29.6729631  64.2629538  26.6388611
  45.5648866   1.6592659  22.6515778  46.0512894   1.4137547  21.8481310
  45.4192493   2.6147267  22.5051288  30.1291276  65.8392018  32.2801436
  29.8266690  66.7150713  32.5932241  31.1241486  65.9158382  32.4370931
  22.8012709  74.1215942  25.2891228  22.1345285  74.3807012  25.9843845
  23.2576517  73.3662626  25.7955996  40.6716749  65.6366972  32.1798257
  40.2089038  64.9556582  32.6763762  39.9446468  66.2784972  32.0106320
  33.2995810  68.9375222  20.6305162  32.8115373  69.5837647  20.0003576
  32.5238075  68.3290828  20.7238077  39.2158521  69.0044431  21.8642099
  39.3242379  68.5822663  22.7357889  39.8447437  68.5093919  21.3375423
  52.1017625  13.0038771  23.7717966  52.5713457  12.2923774  24.2272513
  51.6721038  12.4515495  23.0543164  44.3269463  75.4218588  18.0756440
  45.3273925  75.2426457  18.0438888  44.2417226  75.3848032  19.0609590
  53.0921980   8.3064380  34.7598295  52.6255719   8.3658072  33.8927623
  54.0160330   8.5081689  34.5377915  37.3897889  69.0203962  14.4809865
  38.2226017  69.5856492  14.3851663  36.7556180  69.8060526  14.4385356
  32.5710648  68.6946324  37.3647302  33.1105442  69.5352136  37.5514832
  31.8882733  69.0082571  36.8064964  77.6253217  21.0558024  41.0242409
  77.8512742  21.6421509  41.7596143  77.4161091  21.6929133  40.3297408
  23.8402509  42.9300070  80.5445868  23.4493704  42.3471563  81.2761574
  24.7256828  43.0587634  80.9874712  38.9299957  76.5590796  40.2489103
  39.6515494  76.9276521  40.8339867  39.2597555  76.9312941  39.3918605
  40.1773290  71.4678517  37.2661241  40.8155553  72.1983309  37.2503243
  40.4209480  71.0157385  38.1423643  46.9557545  79.1520525  41.7877282
  46.7903054  80.1043518  41.7253890  46.9876468  78.9937134  42.7366875
  47.5137724  75.7609242  22.3125294  47.4216041  75.5679284  23.2967156
  48.0922184  74.9730893  22.0703274  41.0081101  74.0239215  35.2605612
  41.3841999  74.8994406  35.1849930  40.6365782  74.0945547  36.1748079
  26.2525717  68.5412468  26.1847255  26.9651036  68.9233731  25.5542936
  26.8491338  68.1577662  26.8851076  46.6121505   8.6263829  30.5626154
  46.3267059   9.1607608  31.3529369  47.2373906   8.0095989  30.9959185
  43.2393473  77.6835049  31.0449640  44.1465662  77.2783725  31.1716034
  43.6256879  78.5563669  30.7151823  14.6178995  32.3381940  72.9757791
  14.6861364  31.8055805  72.0725083  15.2154738  31.6849108  73.4228702
  48.0085671  73.7264483  27.9891578  48.4337009  73.3296778  27.1604576
  47.3372815  73.0514839  28.1973004  52.5712691  73.7256212  37.6025746
  52.4072641  74.0528556  38.5655681  51.8034849  73.0864650  37.6144381
  47.9982248  82.4915783  28.0042267  47.9539419  82.3417122  28.9410631
  48.4426877  83.4142448  28.0094374  64.7115985  11.0878093  27.1359667
  65.4868524  11.3831584  27.6868634  65.0460932  11.3308664  26.2712610
  27.9332702  71.1811874  16.5515628  28.1335156  70.6192770  15.7781969
  26.9928589  70.9991970  16.7220754  42.2758443   2.5332255  39.7339469
  42.2294547   2.9067210  38.8608492  41.4851064   1.9965453  39.8587522
  31.7137445  74.6600443  24.0107028  32.1790095  74.0291653  24.6095698
  31.2083741  75.2175030  24.6092816  33.3562313  72.6354339  25.1892513
  33.1649156  72.3847075  24.2434609  33.9314635  71.8482459  25.4436431
  19.1874426  73.7410826  43.7963906  20.1542103  73.8779087  43.7848672
  19.0255041  73.7943545  42.8247745  59.8988053  10.8506285  24.1496758
  60.2909288  10.5184294  25.0471685  60.1903829  11.7723393  24.1526214
  38.3336561  72.6548280  25.4275053  38.7857582  72.9740101  24.6292299
  37.7917845  71.9499589  25.0534871  52.3252391   2.3519286  41.5756025
  51.6260842   2.8905521  42.0586649  51.7727766   1.7607040  41.0664141
  47.5157350  69.5351990  24.9809370  47.1233308  68.6931521  25.2588318
  47.0747337  70.1773272  25.5767535  15.3181313  35.6385828  74.9502143
  14.3601372  35.7484669  74.7637901  15.6353254  36.4620857  74.4846675
  44.0983957  78.2146410  17.5846369  44.3830558  77.2920679  17.8152470
  43.0596806  77.9584058  17.6314724  51.5416000  75.5486363  29.0824926
  51.1260321  74.6866370  29.1232123  51.5974564  75.6356295  28.0845671
  71.5422107  11.5868195  25.4182211  70.7600218  11.0739854  25.6685147
  71.7062132  11.1911036  24.5259818  41.4337229  76.0155355  29.9446344
  41.9825097  76.6452514  30.4268127  41.6105037  75.1970110  30.4588718
  38.2069622  74.5080200  51.3942101  37.2490562  74.5916700  51.5547149
  38.2222704  74.6270860  50.4394820  29.0444677  77.2203410  13.1804185
  28.6192095  78.0018591  13.5049578  29.8472922  77.5140355  12.7462065
  37.7122163  79.7261287  36.2127722  37.9891098  80.0035055  35.3184526
  37.5060793  80.5818091  36.6189066  56.5411972  79.7571007  23.2421366
  56.5481739  79.4676310  22.2752985  57.2972818  79.3122062  23.6052736
  20.8809362  46.6560659  75.8785067  19.9321452  46.7784641  76.1740696
  20.8942596  47.2522313  75.1167697  15.6337673   1.8304829  32.3411894
  15.4776564   2.7558724  32.1005444  16.3549765   1.5988595  31.6771608
  43.7666205  74.7827854  23.2975167  43.9884334  73.8522814  23.0707882
  43.8413895  75.2837997  22.4576370   1.4341210  13.5354725  34.6910464
   2.3163389  13.2376160  34.8985029   1.6411729  14.1711871  33.9542584
  66.2668666  76.1508699  29.5349524  65.9020527  76.8363118  30.1676090
  65.6995631  75.3842503  29.7448116  45.6400296  80.5415134  34.8441617
  44.9481388  80.4498737  34.1654140  46.2523603  81.2083212  34.4374032
  50.7501671  79.3771704  29.9882246  50.6470594  79.3186757  28.9978845
  50.3606616  80.2402426  30.1764782  32.8428660  73.8266748  33.3955520
  32.2749585  73.3704467  34.0845260  33.7135141  73.3656419  33.6082689
  59.9178806  68.1618939  22.6841142  60.1636802  67.2207856  22.5527828
  60.5212823  68.5856941  22.0111552  54.0944660  81.8354434  28.6870735
  54.8970938  82.1138791  28.1573207  53.9974821  80.9180210  28.3692199
  47.7349826  77.8384089  24.4243425  47.6616756  78.6204319  25.0253913
  46.9435646  77.9478720  23.9249403  52.1358016  77.9127216  35.0522510
  51.6321620  78.0453446  34.2589285  52.3022219  76.9602808  35.0599732
   8.8983382  16.0188417  18.0251391   9.5843756  16.4993088  17.6249332
   8.4691236  16.6326960  18.6097751   4.5217852  12.5112795  21.7767658
   5.4112696  12.9230682  21.6883519   4.0572775  13.2795003  22.2381813
  50.0064426  74.0700925  34.4405348  49.9087972  73.1639855  34.0609879
  49.1672151  74.1365557  34.9049636   9.5211050  14.8121633  28.2743169
   8.9368009  15.4975169  28.5965981  10.2664242  14.9038952  28.8759376
   3.7460877  23.3460058  35.0404548   3.5325944  22.4323389  35.2530942
   4.6300506  23.4230798  35.3874722   0.1906778  25.3172097  24.2245994
   1.1390771  25.4160054  24.4537792   0.0640383  26.1522337  23.7053732
  21.1819965   9.0328265  20.4711692  22.0440488   9.1769706  20.0540001
  20.9013421   9.9638060  20.6628084   7.2195491   8.5448565  26.2443618
   7.5372208   9.3533886  26.6637186   6.4642063   8.3345861  26.8354161
  11.9088513  14.1402251  21.9229794  11.2716159  14.0756282  22.6722763
  12.6121258  13.5665783  22.2825491   8.6842735  12.6658142  20.8811024
   8.1902116  12.8238959  20.0845905   8.9825270  13.5119363  21.1584634
  63.3133061  72.1289122  32.3096240  63.2089429  71.2803104  32.6991379
  62.4050976  72.4570470  32.1364997  74.8032978  26.9463705  25.7090578
  75.6290331  26.4743031  25.8496105  74.1464676  26.2435200  25.4788500
   8.3832815  21.3090676  21.4880438   9.2316791  21.5644310  21.1082752
   8.6968276  20.7519738  22.2802007  76.2315566  28.0465339  31.4494719
  75.5203867  28.0369275  30.7558784  75.7634826  27.5035496  32.1225104
  17.0679347  23.6691787  25.5791988  17.0508956  23.0717631  24.7467790
  17.0790972  24.5320740  25.1457859  49.9715462  43.3477529  78.5385432
  49.4722972  44.1745871  78.5995118  49.1828892  42.6937906  78.4416350
  20.7810805  25.8922043  17.7919632  20.7562305  25.0758826  18.3757798
  21.5079851  25.5999043  17.1761619   7.4822204  12.5464306  24.7333407
   6.6272183  12.6200208  25.2070770   7.5657597  11.5809798  24.7976166
  56.1562222  83.1527068  38.7397456  56.8061280  83.1067797  38.0435781
  55.3705503  82.7779768  38.3046288  16.0829791  21.4378429  15.6629263
  15.7152191  20.7756226  16.2902691  15.4120874  22.1727254  15.7702480
  13.9888726  20.5245333  12.6727266  14.3749567  20.4360336  13.5431535
  13.6986858  19.6220161  12.5095684  11.6652491  28.5190372  22.2874702
  11.7071038  29.3034693  22.8576483  10.9841139  27.9737903  22.6679409
  17.4417921  29.3866129  21.3088166  18.3433762  29.1938683  20.9250170
  17.1312966  29.9347073  20.5308158  38.6781450  21.0155906  12.7512652
  38.0079237  21.3995696  12.1034390  39.2292434  21.7876027  12.8193339
  14.8430863  19.3602682  16.9167351  15.0876669  18.4402680  16.9072689
  13.8435321  19.2743161  16.6145343  13.9264369  23.7570268  16.2601875
  12.9710629  23.9780584  16.0728928  13.9016145  23.8461481  17.2405162
  42.6792627  53.2877279  78.2842556  42.6303153  53.7736106  79.1340637
  41.8596103  52.7694166  78.2657387  15.7254657  22.5660847  19.0516478
  15.3765693  22.9085612  19.8773753  16.5993508  22.1498119  19.3826853
  15.5538086  13.7623448  16.8610535  15.7670997  14.7226140  16.8547233
  15.5849346  13.5139715  17.8330552  21.3177790  11.3142551  16.7435263
  20.6059059  11.6478393  17.2828080  21.1547095  10.3455770  16.6824560
  40.3863180  51.9841741  76.7314643  40.2716329  51.0673641  76.4830257
  40.3586424  52.4593991  75.8935382  27.3981049  30.9857424   9.5560180
  27.0444087  31.5571509   8.8151885  27.3258807  31.6233907  10.2810362
  25.2553982  11.2911240  20.9315168  24.2802559  11.4504352  20.9491808
  25.4140438  11.6425778  21.8861747  43.7503292  67.9394317  68.4283403
  43.6507970  67.2971107  69.1864274  44.4734337  68.5028308  68.8304879
  17.1287076  28.9339763  12.4629110  17.8060471  28.2336040  12.4594068
  16.3165325  28.3914484  12.5688283  30.7591063  22.5576242   8.9616172
  30.7305446  21.6376967   9.2843074  30.8305000  22.3406936   7.9717131
  49.8546679  55.0623770  72.7961398  50.3350754  54.2339275  73.1243145
  50.1932837  54.9932938  71.8515901   8.7077755  37.7659228   8.2423427
   8.3553843  37.8943776   7.3495642   8.1080873  38.2740999   8.7526714
  12.6102272  32.2415662  21.3173124  13.0297131  32.9396990  20.7436264
  13.3399563  32.1559820  21.9771567   8.1935255  24.0055695  22.3183739
   8.0396339  22.9990988  22.4223739   9.0273030  23.9423507  21.8126845
  14.8353696  27.6027985  12.6962070  14.5236108  27.3297703  11.7742190
  15.0017198  26.7459206  13.0972666   5.2530247  30.6394114  25.6482035
   4.5320442  30.5340032  24.9495074   5.2356329  29.7283240  25.9695165
  28.8269117  16.0217654  22.2994903  28.3597232  16.8679281  22.2219858
  29.7506856  16.3448908  22.0169516  41.8977789  55.9443507  68.0233679
  42.6273969  55.9608288  68.7138974  41.7344577  55.0070614  67.9480822
  17.9369809  14.1210774  31.7805485  18.4812386  13.5877147  31.2034299
  17.2425172  13.4948627  32.0514176  37.3862705  65.2250918  62.2799645
  36.6574380  65.6457252  62.8214548  37.8042370  66.0761617  61.9466628
  15.8691349  23.3129447  27.9573463  16.5219380  23.5579265  27.2270141
  16.2324112  22.4115758  28.1772341   7.7614364  18.9679327  28.2142795
   7.5327541  18.5436631  29.0167376   8.1238466  18.3253891  27.6241753
  16.1580975  43.0584571  10.3121431  15.9941337  42.1688375  10.0536823
  17.1372829  42.9785012  10.6541090  30.2004798  14.3439683  17.9944823
  29.7262592  13.5343537  17.7257267  30.4762471  14.1058412  18.9214528
  20.9952859   9.4575432  23.6797149  20.5084948  10.2882487  23.8309945
  20.4546684   8.9825212  23.0615864  26.3481136  18.5909699  11.3509358
  27.1041037  18.9360764  10.8838197  26.5097586  17.5985456  11.2739225
  41.6218329  58.4028857  66.8039764  42.5769491  58.4389790  66.5119356
  41.6097429  57.5742246  67.2633826  21.2156601  19.4345505  17.6370955
  21.0539059  20.3428518  17.1914181  21.5425229  19.0066900  16.8270450
  21.1612830  29.5763065  17.0805094  22.0593099  29.7852933  17.3874364
  21.0701529  30.0826704  16.2794090  22.2742509  32.6025968  11.5647278
  22.4220713  31.6559521  11.7483848  22.2319364  32.9322416  12.5190477
  44.4207014  57.2183841  72.7810050  44.6366631  58.0687991  73.2331456
  45.2990468  56.9866411  72.3533876  24.2228069  17.1151979  16.5316761
  23.9319139  16.7736470  17.3990534  24.6603240  16.2967123  16.2135981
  44.1818158  51.5432889  72.4427630  44.4577690  52.4159691  72.7489946
  43.4883381  51.3561194  73.1464234  20.5552401  34.9806787  14.0983070
  19.9518713  34.9723990  14.8650097  19.9879358  34.8881109  13.3541848
  13.1247342  21.8885304  22.3346177  13.2865832  22.0322681  23.2758486
  13.7612903  22.5515100  21.9149852  19.0744785  30.9178076  12.6990665
  18.8207798  31.5250206  12.0091651  18.3234907  30.2739373  12.6788506
  18.3151395  19.4117571  16.2460017  17.6682566  18.6873291  16.3109572
  18.8926809  19.3349414  16.9814202  26.6709456  20.1359055   8.3135849
  26.2369786  20.3287014   9.1446631  27.6189230  20.2532886   8.4724730
  24.0673843  19.7751952  12.9898331  23.7746030  20.6790250  12.7062559
  25.0090074  19.8382135  12.7975134  13.3361225  18.4407606  23.5472071
  12.9705478  17.6537737  23.0848539  13.8789065  18.7996989  22.7904003
  18.5629806  22.7434150  17.6041150  19.4201079  22.7583624  18.0843337
  17.9941688  22.2608059  18.1453066   2.0008836  20.3646819  27.7349025
   2.1097038  19.4232511  28.0022344   2.3344414  20.8432329  28.5398019
  24.1012846  19.7825823  18.1913602  24.4167477  20.4100658  17.4063998
  23.8172874  19.0255516  17.6630779  18.3890136  14.3993966  21.8317051
  17.5245069  13.8970350  21.9472259  18.2357405  14.7381242  20.9102595
   9.1035995  23.8212069  25.5003670   8.8782834  24.0791439  26.4225909
   8.2593958  23.7947075  25.0297860  13.7803746  29.7987642  20.3026385
  12.9055109  30.2559558  20.4428792  14.3004949  30.4769996  19.8725321
  40.1713003  58.1870136  74.2610066  40.8198612  57.6384201  74.8187393
  39.3980092  58.1422112  74.8566669  39.2945613  49.4981356  74.5420957
  39.6318463  49.4026070  75.4682580  38.6988868  48.7112850  74.4998359
  17.0699621  23.3732018  12.6219242  17.7202953  22.7039264  12.3604431
  17.7361365  24.0243128  13.0468035  16.4508236  22.6283689  23.3471463
  16.7005267  21.7415369  22.9651977  16.0175955  23.0847571  22.5719170
  57.3246425  12.1279399  68.9489991  56.6376787  12.0065164  69.6441432
  57.1742412  11.2649502  68.4611660  17.0511038  27.0149815  19.4832791
  16.9087493  26.3719448  18.7091256  17.9377783  27.3480634  19.2481744
  11.2012122  24.1469279  23.9608403  11.1821782  23.7295157  23.1004429
  10.2990919  23.9953370  24.3057403  20.2472703  37.0128246  20.6627708
  19.6473694  37.0880051  21.3538006  20.4956972  37.9602469  20.4313530
  41.3802087  65.2103895  67.1387950  40.6132009  64.6678554  66.8616224
  42.0123620  65.0708595  66.4149287  33.5999974  20.5381695  16.4809881
  34.3194669  19.9153884  16.2606354  32.8489561  20.0069987  16.6792040
  17.5072477  43.1852919  18.7548737  16.9187699  43.1212670  19.5385047
  16.9567480  42.6645096  18.0719037  36.2114865  67.5851557  67.6313901
  36.1842707  68.4782090  67.1628872  36.9245612  67.1624543  67.0810162
  34.5713085  18.8450859   8.9403269  33.7513334  19.0908770   8.4258079
  34.3346871  17.9501654   9.2359078  28.9327884  61.7442064  72.3305410
  29.4525102  61.5197340  71.4790825  29.5844180  62.3414675  72.7427623
  22.5570532  35.6076241  20.3215673  21.7287500  36.2209188  20.3415549
  22.6838367  35.5600597  21.3009617  26.9187849  12.3258946  15.2137380
  27.7346139  12.0917429  14.7747261  27.1877846  12.2400957  16.1562659
  51.3107767  68.1148989  63.7462686  51.0444349  67.1677390  63.8293292
  51.1785680  68.3817562  64.6975112  19.4299546  22.3624128   9.5599634
  20.1751950  22.7385379   9.9953996  18.9156399  23.1195917   9.2555481
  11.1513393  24.1889827  15.1492888  11.7358785  24.2988610  14.3247086
  10.4526252  24.8132555  14.9728520  21.9387389  50.6985084  22.1728822
  22.3827264  49.8080081  22.3377250  21.9575635  51.0125296  23.0900850
  25.7416946  40.1462570  16.2618347  26.5985869  40.3045602  16.6472144
  25.3789854  41.0372705  16.1034866  10.0352114  21.6707157  26.5609013
  10.6548865  21.5598056  25.7670084   9.5604878  22.4467164  26.2221898
   9.1721637  23.6989529  37.4985386   8.5199544  22.9175800  37.4142069
   9.9391567  23.1834399  37.8568172  27.4861677  37.0715272  10.2667365
  27.5440602  36.4305969   9.4872392  26.5723293  37.4054413  10.1821909
  19.2090772  32.1517571  17.4730012  18.2791310  31.9849170  17.2000719
  19.6652972  31.7313333  16.7400510  17.0488850  10.8072749  21.1281215
  17.0042529  11.5684779  21.7592482  16.2000926  10.9215020  20.7090598
  16.8080852  31.9541895  16.5944462  16.6785780  31.6279878  15.6860352
  16.0207925  32.6038809  16.6229325  32.6571903  26.6678242  11.8052861
  32.2369901  25.9057106  11.3445141  33.2788673  26.9937264  11.0988951
  10.3358019  13.5540694  24.2923575  10.3643168  12.9043575  25.0345216
   9.4200784  13.5328615  24.0907336  38.5766700  44.4871585  82.0266605
  39.3292579  45.1409724  82.1149242  38.9081151  44.0055423  81.1920405
  18.5650015  18.7465254  20.9955164  19.0786025  18.1247784  21.5491273
  19.0280864  18.5969184  20.1799941  16.7964623  19.8871680  22.6811378
  17.3748779  19.4000357  22.0739228  15.9122254  19.4164699  22.4350692
  37.9669059  36.3995157   0.0480886  37.5364288  37.0850497   0.6857954
  38.2309055  36.9855393  -0.6738609  33.5231093  45.2742572  85.5235340
  33.9074914  45.0564755  84.6559984  33.7093399  46.1750924  85.6537332
  55.6016120  74.6930490  59.1651054  55.7347988  73.8176322  59.6085971
  54.7647860  74.5898763  58.7470549  29.5826539  30.6627166  12.2451320
  29.3004515  29.7763938  11.9245737  30.1916319  30.3245477  12.9199367
  33.3476293  61.6713552  75.1235804  32.4659045  61.3727787  75.0036857
  33.6067288  62.1392135  74.3519399  37.3274478  27.2699964  11.2494266
  38.2700029  27.3314060  10.9336534  36.9596887  27.9155120  10.6336378
  34.2091331  60.9364546  70.9014330  34.9133496  61.1968394  70.3160597
  33.8919106  60.1400761  70.5795257  25.4035648  28.6955329  13.7802936
  24.4903387  28.4601465  13.8639735  25.8266492  27.8037044  13.7331827
  10.6166880  18.0832810  16.7808185  11.4577368  18.5187023  16.4308414
  10.3078437  18.8137194  17.3299391  14.1416452  32.9705086  16.9765946
  13.8206728  33.4167288  16.1236565  13.4640834  32.2916487  17.0606171
   2.5711760  24.0624273  18.4476726   2.5101289  24.8530587  17.8863404
   3.3055285  23.5813632  18.0855003  17.3272204   3.4518007  23.9134622
  17.9418559   3.3525199  23.1016057  17.5205369   4.3583476  24.1374997
  10.0897499  20.1106808  18.8334636  10.4267085  20.9453606  18.5134879
  10.6987607  19.9276876  19.5713611  26.6282010  26.3748249  13.5100609
  27.5764444  26.2943029  13.7855761  26.6996000  26.3984139  12.5910856
  18.3342854  15.5424589  19.2987033  18.8738179  16.3406170  19.1890419
  17.5729544  15.7657784  18.6708899  25.0230822  27.4960633  21.4247383
  24.9551317  28.1176493  20.6333625  24.3461706  27.8769892  21.9808425
  23.5874327  13.1472733  18.2831401  24.2627496  12.7766228  17.6691849
  22.8105665  13.0744835  17.7212247  23.1394077  32.2887163   8.7617239
  23.7727136  31.5400285   8.9616504  22.7270065  32.2815519   9.6540721
  19.6630095  16.7819397  22.7525898  19.8768472  16.8054593  23.7226735
  19.1365949  15.9687498  22.6711546  27.4443068  18.0411394  21.1563300
  27.7459225  18.8273159  21.7089552  27.5657933  18.2817740  20.2651512
  29.9323526  16.9456745  17.6782111  29.3024004  17.0265917  16.9657067
  29.7238124  16.0263110  17.9552428  35.7854268  26.4089366  17.4358195
  35.0531447  26.9898950  17.7389449  35.7683049  25.7524043  18.1164698
  11.3787841  22.4810277  18.2465956  11.8529112  23.3818137  18.3949875
  12.1321244  21.9183315  18.3101944  18.0768135  35.1251786  15.5466279
  17.7627869  35.3304539  16.4346920  17.2121524  35.1403516  15.0883477
   9.0197653  24.8648035  19.4904162   8.8701533  24.3985592  18.6141168
   8.9531490  25.7717177  19.0855179   9.1527903  15.3491739  21.3217856
   9.4054923  16.1382704  21.9221856   9.3775807  15.7686217  20.4778749
  39.6958949  49.1060935  77.3354152  39.6291789  49.6595421  78.1472537
  40.0093910  48.2981785  77.7400641  32.8737412  16.7514243  10.2809104
  32.0309688  16.3722451   9.9191772  33.4107809  15.8855182  10.2826134
   0.0501643  32.6363244  12.2000963   0.1891553  32.6727268  13.1996007
   0.8615472  32.1465885  11.9951694  14.1615219  29.2901031  14.9670123
  14.3736834  28.6813884  15.7641728  14.1325201  28.5734102  14.2882205
  10.1312159  31.8069309  19.9320830  11.0509695  31.5936454  20.3413963
  10.2687564  32.7153536  19.6982969  22.5283223  25.0584221   7.5482920
  23.0959481  24.6770110   8.2853330  22.1590025  24.2403575   7.2057007
  15.4799399  43.0357492  20.7323922  15.7286519  42.1778224  21.1257415
  14.5343840  43.0959119  20.9102569  27.0142794  35.7043293   7.8509311
  26.6568511  34.8512490   8.2286064  27.0211483  35.5058079   6.9039262
  16.6709322  19.9552923  25.5195255  15.7972959  20.4268707  25.4638807
  16.9461382  19.9949322  24.5660428  11.1953946  31.2216580  11.1129278
  11.7493745  31.8617729  10.5792849  11.8439525  30.4868387  11.0991012
  11.3139915  42.6962264  21.4464299  10.6007050  42.8264337  20.7628005
  10.9524515  43.2653185  22.1821265  76.7860048  22.6734469  26.6321296
  76.2298416  22.1798968  27.3404026  77.6534775  22.6253699  27.1556233
  23.7350284  42.4101914  20.4453551  24.3825312  42.8291193  19.7943241
  23.8663218  41.4785167  20.2219978  31.1993050  53.7098174  13.2881909
  31.8294764  53.6399618  12.5014979  30.8951141  54.6240355  13.0849427
  26.9943689  48.2554812  16.7074661  26.0492428  48.3384682  16.9789497
  27.3620470  49.0934268  16.8731185  18.0219574  45.9195095   8.9851879
  18.9008978  45.6502392   9.3689529  17.5832123  46.2437429   9.8001627
  34.4390030  40.0601033  -1.9368134  33.8312220  40.0927505  -2.7439127
  34.0567697  39.2631488  -1.5078226  47.6309897  66.4467463  64.4660860
  48.2334378  65.7547625  64.1364519  46.8783284  66.1854631  63.8816032
  43.2585141  37.1191915  14.9034050  44.1763880  37.3762570  15.1030879
  43.3172084  37.1695559  13.9087414  41.9954184  48.3381092   7.8886338
  41.4744595  47.7638759   7.2513007  41.7896137  49.2086726   7.5708078
  41.2321146  37.9989870  16.6429417  41.8395379  37.5214732  15.9329658
  41.8657053  38.6621646  16.9247009  17.8190390  30.8609022   8.1599308
  17.7624176  29.8988302   7.8759294  18.6855520  30.8215012   8.5717869
  27.9558483  36.1056045  18.8916439  28.1048258  36.7066627  19.6208121
  28.5870360  35.3869563  19.0352338  37.1601372  37.2320151  13.6470687
  38.0582991  37.2002995  13.9701543  37.2383012  36.5351504  12.9282596
  33.6063622  41.4645625  12.4298231  32.6689752  41.1296460  12.5442995
  33.4684981  42.2795386  11.9667573  17.3020070  40.3533345  20.6322153
  18.0899148  40.1595797  21.1482400  17.4404224  39.7946969  19.8470610
  42.0637196  41.8942591   5.5806757  42.4397469  41.9147253   6.4847018
  41.5159317  41.1113153   5.6129066  24.2001945  34.7414569  10.6097008
  24.8416342  34.5131692  11.2583323  23.4623054  34.1091365  10.7887100
  23.5332586  48.1266691  21.9382679  23.2917682  47.9140107  20.9852838
  24.4111537  48.4252301  21.8335525  27.2219283  33.9068187  16.7293304
  26.3774655  33.9554089  16.2866562  27.0011924  33.5764221  17.6449087
  28.7946356  37.7386734  14.0671981  28.5840501  37.6920631  15.0162204
  28.6158597  36.8006132  13.8201711  26.3912742  49.7650361   5.9042870
  25.5724771  49.5216116   6.4049587  26.0223802  50.4390937   5.3276577
  44.1251944  51.0789796  15.5310799  43.1268961  51.0374037  15.6383569
  44.2203985  51.9291174  15.1219173  38.0389153  41.9194093  20.9188328
  38.9270655  42.2727163  21.0865121  37.9022927  42.2216248  19.9621549
  31.0426757  29.9425354  14.4037047  31.2731489  30.6159621  15.0403094
  31.9520016  29.5887263  14.2227091  22.4096357  47.4846425  19.3166652
  22.1240780  46.8206977  18.6767863  21.8644281  48.2422966  18.9496997
  19.7135183  42.3188353  20.2409043  18.7583919  42.2912234  20.2859708
  19.8966599  42.5178024  19.3499516  20.2026071  31.2183035  15.0939169
  19.7278687  31.1881417  14.2479099  21.0288630  31.6974624  14.7746998
  20.3292042  38.6633747  11.8053443  20.8630347  37.7788836  11.6730014
  21.1598423  39.2696604  11.7810859  23.6640876  34.5016273  16.2730990
  24.1769527  35.1882657  16.8287805  22.8309626  34.4297715  16.7959030
  46.1112632  36.9288106   4.7416812  45.2445702  37.3610009   4.9096287
  46.0903889  36.1950303   5.3595311  19.4772985  29.8940755  19.7343642
  20.4835312  29.9474559  19.7975512  19.4605559  30.2145768  18.7563510
  21.9735323  47.3897966   5.1001284  22.1819284  46.4903563   4.8122069
  21.0641710  47.2488095   5.4178116  24.0325391  42.3626536  12.2640802
  24.5275149  41.8918761  12.9152460  24.5206757  42.1918211  11.4334024
  37.8192617  30.9039564  22.3413388  38.1648356  31.2692576  23.1827167
  37.1021377  31.5796109  22.1659077  23.9131907  38.3588704  16.8130240
  24.6780399  38.8376007  16.5009273  24.3187951  37.4859614  17.0981454
  22.1341966  45.4129801  12.1067114  21.9841745  44.5411728  11.6780771
  21.2773917  45.4698637  12.5592703  34.5410192  34.9359749  20.2412314
  33.9044408  34.7988789  19.5295175  34.5130961  34.0664028  20.6900594
  32.7443918  34.5959557  16.9401202  31.9512903  34.3538454  16.4238895
  32.3861010  34.8304809  17.8258200  29.6893836  27.8683228  12.0563794
  29.2823855  27.3687908  12.7993743  30.6075152  27.6387339  12.1329688
  41.6870641  34.0434980   7.1779465  41.1350024  33.7705966   6.3921219
  41.3572005  35.0048433   7.2132095  27.7872731  40.6402930  18.1117434
  28.5501340  40.5708829  18.6851873  28.2310043  40.9709395  17.2987160
  33.1611902  32.5242307  14.1257969  32.6400414  32.4477480  14.9589400
  33.0926403  33.3929536  13.8620954  32.7708265  23.0752059  12.8358153
  32.0110944  22.7308479  13.3396373  33.1407234  23.6979965  13.5629178
  27.7813027  44.0572887  14.9034160  28.0469360  43.3070469  15.4957057
  27.0346734  44.3835880  15.4617700  22.6365925  36.4426545   6.3845585
  21.7199126  36.3236774   6.0836010  22.6055032  37.3194549   6.8034682
  33.9170579  30.1847271   2.3654412  32.9533668  30.1429871   2.4171868
  33.9848627  31.2039742   2.4536876  22.2525424  45.4055919  17.4233138
  23.1700301  45.4472981  17.5255296  22.0220429  45.6250407  16.5408809
  29.2442237  49.0618560   1.9185175  30.0506985  49.4276996   1.5969042
  29.6342766  48.3715222   2.5186429  26.6617176  23.8641103  17.5858370
  27.6351074  23.5262767  17.7599179  26.7270735  23.6698408  16.5918989
  26.8993020  35.2438920   1.0106530  26.7313462  34.3109432   1.1817430
  26.0834669  35.6318607   1.4594816  21.4683619  30.6758221   7.1588272
  22.2186284  31.1537792   7.6314000  21.6026511  29.7901094   7.5062276
  19.4752426  45.2460307  13.4607293  19.9729477  45.4372309  14.2905081
  18.9733701  46.1233690  13.3904722  37.9276786  43.5321551  15.4494164
  37.8586110  44.5263134  15.6748505  38.6925969  43.3760063  16.0531943
  38.7171077  26.4906786  16.8521131  37.8444299  26.2003120  17.1033615
  39.2066929  26.2879119  17.7166664  17.1355814  54.2942419  13.9474147
  16.2795734  54.7052746  14.0581007  17.0502882  53.4590332  14.4844122
  22.7730691  39.9535149  18.7706853  22.5345035  40.5585100  18.0114192
  23.1542226  39.2221610  18.2569438  27.5041560  41.8180754   3.5235509
  27.4459819  40.8826449   3.2467269  28.0456133  42.2099870   2.8019721
  20.3430909  41.7579339   6.3302731  21.3311213  41.9342372   6.3173209
  20.3734494  40.8431041   5.9310650  29.3540803  54.5442472   9.6234182
  28.8183927  54.8035345   8.8439834  28.8252322  53.8319019  10.0097351
  29.3840937  43.5498859  12.6347091  28.9508755  44.1053839  12.0474581
  28.8492283  43.5793270  13.4680746  15.2964047  44.1903222  13.2512933
  15.0867929  43.4640184  13.8112247  15.4154976  43.8070487  12.3663437
  30.2961870  36.5156087   6.3274257  29.9114817  35.7313648   6.7697525
  29.6309093  36.5884570   5.6160085  13.2936787  35.3545117  12.5513739
  12.4402799  35.1588402  12.0587892  13.7248086  35.8000804  11.7894640
  29.1913491  26.3711250  14.3629497  29.4057772  25.4392767  14.6501041
  29.3568851  26.8881413  15.2072432  33.8142719  37.4030488  12.1408416
  33.0271736  36.9489224  12.5078529  34.0285127  36.8139563  11.4102036
  73.1727082  19.6721195  57.4886200  72.8142452  18.8806288  57.8934027
  74.0278130  19.7674653  57.9847525   3.1343810  41.5515968  19.1564256
   2.7402515  41.0039609  18.4696300   3.8358177  41.9555485  18.5868773
  45.9313560  34.5775871   6.3385849  46.1443219  34.1703548   7.2230012
  46.6123677  34.1641169   5.7601592  30.8987065  41.7257190   9.4603989
  31.3714435  40.9653157   9.1429295  30.7714465  41.4673731  10.3948948
  55.8278540  65.6375723  57.0717649  56.6561492  65.7935438  57.5724070
  55.2134310  65.3249800  57.7000549  18.1010772  35.3410302  19.2091878
  18.3369130  34.4310348  19.4427560  18.9073308  35.8531709  19.5038774
  30.4144602  39.8231290  15.3588325  31.0025237  39.3220712  15.9098176
  29.8554642  39.1999940  14.9457056  39.8721956  36.9819257   7.7739684
  39.9873889  37.9024697   7.8973521  39.3534094  36.8459258   6.9789912
  34.4229858  32.2200976  20.8087143  34.0985251  31.2875113  20.8323840
  34.4702664  32.3202184  19.8115664  37.1304332  39.1972087  17.0649634
  36.7790122  40.1093588  16.9565867  36.4294068  38.6381844  16.6546539
  29.8583632  38.7317732   8.1219551  29.9517605  38.0892767   7.4075931
  29.4620078  39.5149395   7.6462178  27.3298395  30.4378095  18.7993830
  27.1375470  30.5966628  17.8255619  27.9908998  31.1453491  18.9221380
  38.8964182  34.7006442  17.7600619  39.2183659  34.6739044  16.8120769
  38.8881900  33.7539748  17.9190574  30.4757927  41.2356806  12.0218388
  29.8098164  40.5286907  12.1552502  30.0094055  42.0025340  12.4349005
  31.8262169  22.3075984  23.2699729  31.1026615  21.9963006  22.7344507
  31.7833466  21.7066021  24.0633929  26.9853576  59.5204126  11.0241124
  26.7096793  59.9507837  11.8767137  26.9150818  60.3069631  10.4493832
  26.4565904  41.2172566  13.2600961  26.3243512  40.4384468  13.8527253
  27.0657806  40.8127648  12.5863995  18.3611369  45.2910035  17.1825837
  17.9202704  44.9734185  16.4098450  18.1820396  44.6268852  17.8540710
  18.9304401  32.8007721  19.9776044  18.9410601  32.5873780  19.0342405
  19.0796326  31.9136170  20.4074511   5.9626157  32.0637566  16.0583866
   6.5835063  31.3691404  16.4771994   6.6463732  32.5678511  15.5360778
  29.5498277  34.2750359  10.0166525  29.3447376  33.9781246  10.9533984
  29.9850071  35.1008092  10.1408824  20.2793137  48.6304500  21.4023241
  20.4359834  48.8005704  20.4410383  20.5001854  49.5174259  21.8017480
  28.7178739  37.6999950  16.7036617  28.3967392  37.3706111  17.5522411
  29.5763601  38.0723268  16.9325518  45.9086397  71.7140296  64.7588541
  45.7933504  72.6082877  64.3642044  45.2910322  71.7493718  65.4981049
  23.1070946  38.7892794   8.0958526  23.3568777  39.6784899   8.4191465
  23.7256012  38.2243702   8.6480631  30.6744585  27.7452252  19.6361221
  30.0222310  27.9640149  20.2598423  31.3333051  27.2044408  20.1006312
  37.1541060  31.2578763  14.7731612  37.5913726  30.3472454  15.0865041
  36.9059118  30.9164478  13.8971074  28.2561739  35.1238392  14.5123492
  27.3213181  35.3921429  14.4991367  28.4180101  34.9172089  15.4555645
  30.7181616  23.1606822  18.9352754  30.3942696  22.9062178  18.0421426
  31.3970877  23.8071207  18.6850033  22.7008034  39.9609885  11.3942681
  23.1841994  39.2690565  11.9335148  23.4231179  40.4795578  11.0252309
  25.4851839  26.4342490  16.4461300  25.8854139  26.1639974  15.6049409
  25.5687420  25.7013460  17.0262625  28.2842525  45.0168221  10.2895431
  28.8392284  45.8443763  10.2920126  27.5849782  45.2543093  10.9232327
  13.8129221  37.4138398  17.9741088  12.8336938  37.3341432  17.9024956
  13.9260504  38.3518243  18.1239098  27.0540025  32.9787077   2.7525707
  26.1420192  32.9519124   3.0705754  27.2898655  32.0358992   2.9360533
  29.9412813  13.1120373  25.4278842  30.7537112  12.6232840  25.4158460
  29.3550946  12.6049809  24.8018746  39.7666998  29.9980500  10.6787257
  39.0755568  30.4566634  10.1646485  40.5173038  30.6333828  10.6165499
  14.2931818  40.5280596  10.8357214  14.9966012  40.6838515  11.4491047
  14.7336310  40.2821899   9.9915118  37.6593905  42.4680247   5.6388838
  36.9095028  42.4684352   4.9730946  37.6351471  41.5928999   5.9155160
  27.5462038  52.7166914  10.8184436  27.9339659  52.2392189  11.6060061
  27.4330677  51.9865267  10.2242829  41.3036859  79.7118887  60.5642323
  42.1278793  79.6964120  60.0042378  40.6750535  80.0030469  59.8660964
  24.4093012  46.7618535  11.3221660  24.0915200  47.6135910  10.9545563
  23.5284509  46.3636738  11.6376655  20.0266469  50.3835651   3.1750464
  19.7196028  49.5153075   2.8815529  19.4116057  50.4870319   3.9682295
  20.2823777  36.1969045   5.4386046  19.3680133  36.4060380   5.7326722
  20.2995672  35.2506537   5.3645395  30.9180374  50.0240445  13.1719462
  31.2211446  49.4506381  13.9385823  31.7939519  50.3573011  12.9308369
  22.2251630  30.3706703  19.9071130  22.7332438  31.2167798  19.8244251
  23.0444991  29.7767993  19.8930402  21.9217597  38.7438044  15.1038628
  21.7113181  39.6616703  15.4896339  22.7405001  38.6198272  15.6966473
  31.4254945  30.8105896  18.3026998  31.9379723  30.6795864  19.1363625
  30.5662493  31.1284943  18.6818640  23.8442548  48.4768465   6.9128351
  23.2378847  48.0783984   6.2742667  23.6930642  47.8510914   7.6593772
  24.7129325  45.0356836  -1.7054782  24.9676884  45.9030761  -1.3912676
  23.7560908  45.1000662  -1.8819798  34.1840254  35.2736896  10.1376615
  33.4523779  35.5559768   9.5537704  33.9952858  34.3197924  10.2819688
  29.4339951  47.4152500  10.4893543  28.8371628  47.8904364  11.0654406
  30.2173183  47.9865645  10.5107285  35.5671209  37.5612112  15.7012006
  36.2653094  37.3083895  15.0389198  34.9859840  38.1672736  15.1450551
  48.8816572  38.1371560  14.9012129  49.5344294  38.8568824  14.6717722
  49.5626708  37.3753218  14.7884002  31.5296049  52.3418522  -3.8628062
  31.4330486  51.9513645  -4.7680878  30.7847738  52.9849607  -3.8709574
  20.4790575  39.6177027  20.2100426  21.2845955  39.7429040  19.6033678
  20.0744185  40.4967798  20.0526462  21.7899358  41.1419707  16.3407129
  21.1725365  41.8878473  16.6452816  22.6186883  41.6327827  16.3730966
  21.2024867  34.4695249  17.2986159  20.5679231  33.8044375  16.9971364
  20.6425820  35.2630731  17.3221802  36.5464303  23.5431681  18.6308133
  36.9027486  22.6932038  18.2659059  35.6008583  23.3444232  18.5974274
  36.8596855  48.5885457  60.2159124  37.4827897  49.1580385  59.6919768
  37.0568966  48.8529557  61.0892447  15.5901998  41.3868987  17.6521242
  14.7560196  41.4338393  18.1659900  15.8480704  40.4995026  17.6255380
  29.5051939  34.0797533   7.3736307  29.6213521  34.2377089   8.3122458
  28.7545831  33.4768980   7.4026336  34.6377616  27.7757177  21.2339262
  34.7871699  26.9947289  21.8256115  35.5799681  28.0941330  21.2363901
  19.2594659  40.0793902  16.4430448  18.7464987  40.8210565  16.1751482
  20.1763443  40.4039284  16.5525612  27.0157888  45.8610007  12.8300000
  27.4915937  45.2811249  13.4873863  26.0964904  45.8053069  13.0676156
  40.3124941  27.4646708  10.8813175  40.1738643  28.4592949  10.8731578
  40.4266091  27.3327855  11.8181398  40.9117020  29.7242764  16.0291823
  41.2638361  30.4339585  15.4143156  41.5456530  29.0098461  15.8311144
  45.7852794  33.4261905  22.0517666  45.1341402  34.1473156  22.2672669
  45.2811746  32.6323633  22.4052474  13.4062654  41.0680560  20.9272429
  13.6089313  40.7247794  21.8075635  12.6287958  41.6132576  21.1538758
  34.9597013  27.7287381   4.1516454  34.1341348  28.0140171   3.7088496
  35.5084057  28.5714942   4.0749156  22.7642798  27.9853877  14.4248341
  22.1765119  28.0388071  13.6374897  22.0853577  27.8879738  15.1301169
  35.3226820  25.2634645  11.4227065  35.3298705  24.6971925  12.1972209
  36.0541772  25.8494208  11.5776578  41.3308455  38.3123717  11.3864750
  41.0677507  39.2402255  11.3925666  40.5306673  37.8844062  11.0255447
  24.6759991  48.2603803  17.9968070  24.5198080  49.2483667  18.0854846
  23.8275872  47.9423767  18.4694537   3.3883602  21.8775277  59.5624463
   3.5076514  22.8628853  59.6315848   2.4982766  21.8733696  59.9260648
   4.0981931  15.8856783  54.3436646   4.4494409  15.0050121  54.4203511
   3.2009747  15.7251853  53.9326305  46.3132295  54.2236839  71.1505324
  47.0131705  53.5094880  71.3100418  45.8627383  54.1217650  72.0282261
  28.3521525  39.4614882  -3.4968205  29.0006967  39.9828224  -2.9295862
  29.0304498  38.9208301  -3.9926508  30.9024718  50.4171134  10.4754256
  31.4409452  49.5579571  10.5026503  30.6006849  50.3924072  11.3759134
  25.3414235  33.3306427  13.0677790  24.7396839  32.7203933  13.5679835
  25.8677803  32.6457653  12.5511026  27.5659958  55.7182609   7.8909829
  28.0392371  56.4612466   7.4585628  27.1980859  56.1848644   8.7095863
  43.9191942  56.8020308  10.4070000  43.1370585  56.5613395  10.9390862
  44.0511743  56.0982981   9.8176531  26.1137571  54.6439044   5.6160332
  25.5299410  55.3760925   5.9174144  26.6823132  54.5251239   6.4171374
  23.5735122  51.0887642   7.1219856  23.2738778  51.3688520   6.2459826
  23.4109502  50.1405317   7.0710754  38.4068006  57.5761508   7.8562324
  38.0755157  57.1652154   8.6884741  39.2439105  57.9242522   8.1955144
  14.0361477  37.1621690  65.3082741  13.3276121  36.9767110  65.9831575
  14.7710015  36.6201426  65.6886564  47.1169812  59.9647670  14.1456175
  47.5168904  60.5401972  13.4711156  46.8015490  59.2152756  13.6089593
  34.3335596  61.3856830  12.8375133  35.1224430  61.8053111  13.1427474
  34.1221390  60.8148341  13.6128791  38.3985099  49.8154011  12.0375072
  37.4630463  49.5192498  12.0899568  38.8738625  48.9483172  12.0697722
  30.8343327  62.9107602   5.8947468  31.3291397  63.2242645   6.6477939
  31.5944606  62.5491176   5.3262289  48.1731534  58.2052191  16.5250090
  49.1639147  58.2062924  16.5739772  48.0823058  58.8801211  15.8497428
  30.5754070  55.9898651  11.8470268  30.0632823  56.8313968  11.6444499
  30.2304730  55.4426693  11.1015506  36.7506911  62.4385245  13.8819454
  37.6689724  62.2473135  13.7913446  36.6939852  63.2192161  14.3839385
  26.5168513  64.7282618   6.8728325  25.8041949  64.1303000   6.6549877
  27.2784249  64.1607058   6.7547391  45.8832106  60.3742001  16.5757402
  46.2540669  61.2910919  16.6785903  46.3427144  60.1687320  15.6803810
  19.0235009  64.0841600   9.7368653  18.1188607  64.1667103   9.5522587
  19.4348298  64.4875857   8.9501024  23.5141197  57.1278125   4.3060276
  23.5906293  56.5416794   3.5323199  23.6344405  56.5491146   5.0767423
  35.5022666  46.1531170   8.9831585  34.5420620  46.1741841   9.0624738
  35.7283192  45.4186710   9.6071044  41.6296304  56.2755675  12.1171308
  41.0798925  55.5205325  11.7710462  41.5923516  56.0470993  13.0611086
  27.7191727  61.3526780   4.0127770  26.8840846  60.9459415   4.2190075
  27.4513122  61.9271368   3.2543190  30.8967090  63.4511450  14.3473081
  31.0320165  64.3205736  14.7657112  30.2390922  63.0244256  14.9101075
  33.5290032  62.6645237  15.9495294  34.2044636  63.4203852  16.0425229
  32.9807706  63.0383818  15.2612875  24.1485883  59.7198296  14.4053200
  24.8128733  59.8494395  15.1517374  24.0491266  58.7171656  14.5444824
  39.4419962  44.7490944  13.0089780  40.3274158  44.7877166  12.6010363
  39.4554485  43.8065175  13.2570756  38.4429705  52.3945783  12.7610341
  39.3225793  52.4525101  13.1730368  38.5296177  51.3795068  12.5143291
  21.2557895  22.5034827  69.2941536  21.5377735  23.3389706  68.8849467
  21.0655694  21.9263921  68.5162220  19.5082119  28.2257804  67.3849690
  19.6568857  27.3074775  67.0517871  19.4818628  28.0897493  68.3492868
  37.1010774  71.5313086  16.9002580  36.8267682  72.2542504  16.2783171
  37.8913199  71.8161912  17.3257830  44.7651502  55.1977886  15.4939904
  45.6294835  55.5605945  15.8865802  45.1673931  54.4782039  14.9371203
  30.8856787  48.3288521   6.4809673  30.5274015  49.1854710   6.8507711
  31.8377420  48.5966515   6.3665867  21.3490558  54.4014697   9.7370249
  21.5623286  54.7702844   8.8363809  21.4870731  53.4486240   9.4928274
  32.9432725  55.4031635   0.1751635  32.8000196  54.8778109  -0.6500315
  33.4251807  54.7200221   0.6668091  12.7999180  28.6849891  57.6531841
  12.0517826  28.0555497  57.7624250  13.3246848  28.4630536  58.4502625
  35.9983490  52.0032338  11.3909137  35.8499079  52.8799851  10.9346383
  36.8902548  52.1567087  11.7925764  11.5335164  31.0398171  69.2289663
  11.7612672  31.7045144  69.9393781  10.6434227  30.7723495  69.4814292
  32.4179283  63.2315768  11.6685146  33.2626752  62.9152355  12.0146600
  31.9476703  63.5278671  12.4654995  46.0827261  48.2560073  11.4844820
  45.7866087  48.2694200  12.3969910  45.2855112  48.5846638  10.9800902
  42.9066960  69.9793335  17.2292504  42.1882863  70.3884006  16.6876311
  43.6213895  70.6121206  17.1613311  30.1865841  52.4093994  15.4119846
  30.6703283  52.7780259  14.6501440  30.8600253  52.0290555  15.9149475
  39.3401558  60.5973844   8.0198091  39.7597221  61.3945695   8.3891895
  38.4523841  60.7009376   8.3968319  38.9720412  48.9206998   7.4721066
  38.7939035  48.1003210   8.0616592  38.7808334  49.6163118   8.1471729
  31.8133098  64.3733328   8.2189272  31.4962831  64.3340236   9.1596370
  32.7439623  64.6481020   8.3331107  51.0126154  58.6817431  16.0642121
  51.8025875  58.3221479  16.4434437  50.9835009  59.5526783  16.5378769
  49.9026082  60.7823525  18.0988052  49.4168929  61.5671117  18.3211764
  49.7553297  60.1295935  18.7723872  34.8266595  59.5012717  14.6614204
  34.5390175  58.7998292  14.0262539  35.8183974  59.3327718  14.6512608
  14.2767024  37.7942249  62.8273100  14.9210017  37.1547121  62.4922603
  14.3031236  37.5954585  63.7747816  33.6218737  47.3415047  12.9632072
  34.3834791  46.8650090  13.3324419  32.8871446  46.8737906  13.4352986
  23.4440750  39.9409311  73.8865543  23.1489226  39.9048814  74.8274773
  24.2981693  40.3601482  74.0630563  25.8578520  72.2667127   6.4114768
  26.8213651  72.0583855   6.4635919  25.5667668  71.6248807   5.7480421
   9.6422590  23.3616204  57.2705650   8.8348898  22.7475708  57.1282115
   9.9218015  23.0679973  58.1884778  24.0847874  70.6403281  19.7917781
  23.2220157  70.2633373  19.8162977  24.6174723  70.1863978  20.4634155
  35.5601961  48.9916321  -2.4127379  35.6398747  48.1044570  -2.8066887
  34.8616651  49.3659639  -3.0391617  29.1343240  43.6924760   5.8112920
  28.7308057  43.4566000   6.6696817  28.3680251  43.7466116   5.1915079
  33.9536332  57.7058152  13.0937638  33.6344492  57.7420557  12.1293528
  34.4556821  56.9051251  13.0568055  44.3309289  41.2861315  12.8736769
  44.3214146  41.5260701  13.8314711  44.3503525  42.2333470  12.5156036
  37.7079383  64.6953217   7.5832011  37.3733745  64.1634673   8.3052640
  37.7570279  65.5964095   7.9955192  35.6090246  55.7320020  13.2765456
  36.5014260  55.5488900  12.9228853  35.8109979  56.6025759  13.7137031
  38.4375399  50.7497847   9.4171912  37.5347677  51.0860841   9.2891716
  38.3666236  50.3842256  10.3363143  37.0456516  68.4307475  10.7654721
  37.6111467  69.1353591  11.1077702  36.2652585  68.9441855  10.4061289
  35.1437344  68.5207411  22.5363540  34.6219378  68.9655098  23.2827336
  34.5199128  68.7704059  21.7786388   9.9339679  35.2817185  73.2132739
   9.1993687  35.5353081  72.5816426   9.9064402  36.0495258  73.8026396
  46.5293596  65.7032679  13.2728141  46.1931722  66.3531294  12.6365861
  45.7068016  65.2437713  13.4679988  42.2708646  68.1183007  24.2907718
  42.4216309  68.9750793  23.7892823  41.3021989  68.2649951  24.4622072
  22.0976698  51.5251186  12.1459076  21.7488774  51.6760776  11.2864643
  22.9482766  51.9394364  12.0995203  41.0433031  64.9079157  19.0578908
  41.8605224  64.3362199  19.1153244  40.6684414  64.6594522  18.1857300
  39.6393110  65.6318769  22.3959618  39.3459960  64.9237611  21.8181924
  40.1757035  66.1982132  21.7912820  22.0022556  51.8183954   9.1676673
  22.7112578  51.9052856   8.4943314  21.4893698  51.0999385   8.7194310
  28.5968371  63.9941453  16.2403826  27.8592714  63.4896445  16.6771641
  28.1157129  64.8763812  16.2784037  40.3633352  58.4427675  15.0831561
  41.0454648  58.1397055  15.6907584  40.9415177  58.7964043  14.3610424
  42.0633224  55.1392196  14.7460551  41.5139556  55.1264966  15.5573290
  42.9085824  55.3268939  15.1245595  35.7712790  42.5345436   3.8579748
  35.6138071  42.0678493   2.9877092  35.0313343  42.0883535   4.3660436
  33.8098601  49.5655538  14.7627255  33.7949316  50.1785697  14.0443831
  33.8673501  48.6976751  14.2894090  34.8163799  53.5808407  14.7453817
  35.1545076  54.4122080  14.3534985  34.5081601  53.0974831  13.9882506
  52.0443592  57.7891159   8.6238526  51.2208894  57.2927159   8.6379369
  52.0630598  58.2666709   9.4006995  28.7654484  59.1957207  13.5309492
  27.8667918  58.6871674  13.5307828  28.5097201  59.7714592  14.2941183
  35.8350081  51.5828224   8.0202795  34.9730250  51.9948083   8.3882673
  35.7613798  50.6974694   8.4808484  29.9939080  27.5307026  72.1387422
  29.6336099  26.6324808  72.0107754  30.0022756  27.7928797  71.1819119
  18.7449683  28.6195793  60.0125733  19.6963338  28.7968029  59.8076330
  18.4729627  28.4388954  59.0665971  42.5656077  67.3704715   9.3121800
  42.2440936  67.4553753  10.2570537  41.8767536  66.7646291   8.9842094
  16.7471399  35.4208898  69.7291249  16.3607903  34.8855753  70.5201943
  16.8933795  36.2847966  70.2171003  23.1919930  61.9319609   3.1147359
  22.3822141  62.5674117   3.1722857  22.7336294  61.2005399   3.6297607
  14.6360407  29.8421849  66.0087839  15.5695720  29.5797788  66.2124605
  14.1559069  29.4683835  66.7675850  47.1920597  55.8176500  16.6493260
  47.4313488  56.8272259  16.7438688  47.9902323  55.6217985  16.0281834
  29.0760760  63.5906936  12.3238374  29.0736388  62.6045819  12.2483172
  29.7199208  63.7029372  13.0388976  30.4396044  50.6527811   7.7845003
  30.4984764  50.6063274   8.7596975  29.5300269  51.1012111   7.7002265
  30.3432370  60.7033246   3.6523482  30.1245080  61.2637905   2.8978868
  29.4827423  60.6920470   4.0783013  44.0956017  48.9821952  -0.2775012
  43.9293619  48.4518736   0.5039883  43.2197672  49.4185569  -0.4385176
  22.2895624  18.1593352  65.9470224  22.9769098  17.6009663  66.2717035
  21.8440616  17.5343219  65.2876254  37.5593689  72.5426970  12.4901620
  36.9041690  72.1420342  13.0808611  37.0383955  73.0478819  11.8734748
  37.3962492  35.1020162  12.1757017  37.1825303  34.6612812  13.0313065
  37.9731910  34.4565958  11.7640267  50.1128957  58.6023844  13.5614125
  50.5533018  58.6120789  14.4535554  50.2770456  59.4760388  13.2011201
  28.5825946  51.4614744   3.3238921  27.6405683  51.7356229   3.4765276
  28.4160736  50.5280376   3.0599512  46.7027904  43.5319320  11.3054855
  46.9491275  44.3962815  10.8907215  45.7719992  43.4530891  11.0270345
  41.3510144  41.6596026  15.4005371  41.0376877  42.2988840  16.1099748
  42.3168874  41.8907002  15.4057427  36.2952195  41.8419854  17.0488397
  37.0873181  41.9819056  17.6893344  36.4794895  42.5853734  16.4494063
  42.7467488  57.1757906   6.3081301  42.1611095  56.6784969   5.7762283
  42.1924620  57.4788960   7.0441211  37.2042312  40.3313559  13.7623292
  37.6779707  39.4768557  13.8758431  36.2798578  40.0095668  13.9869118
  38.4991173  46.7862521   8.7578356  38.5111477  45.9145643   8.2935868
  37.6074371  46.7494504   9.0972695  41.1975569  51.2619895  15.8836442
  40.9904069  51.8939047  16.6418353  40.3712497  50.7075202  15.9455943
  48.1726032  52.9539834  14.7444209  48.6020810  52.5548486  15.4895582
  48.6029498  53.8486358  14.7016345  52.7634682  50.4193634  17.7436964
  53.2273885  50.1071078  18.5759964  52.2941199  49.6133696  17.5407235
  32.9210325  70.7817212  10.5982257  32.5832444  71.5095528  10.0875721
  32.9048601  71.2015686  11.5527541  13.2373294  34.3988346  67.0394846
  12.6408357  33.6176175  66.9782672  12.5673376  35.0650898  67.3538533
  42.8350139  62.9760205  18.6417511  43.2025564  62.6551005  19.4727229
  43.0141249  62.1771183  18.0421819  41.6892983  67.4886915  11.8852707
  41.9247214  68.1545030  12.5827325  40.8175373  67.2486392  12.2385105
  46.7304587  53.5296146   7.5912108  47.2731879  52.8203311   8.0450231
  47.3953229  54.0076850   7.0162169  41.5771479  62.0393053   8.6529784
  42.0304737  61.9193679   7.7826318  42.2806697  61.7301748   9.2163239
  11.0764241  26.8035536  67.8450069  11.3686414  26.7229308  66.9048492
  11.4826993  25.9899545  68.2378000  28.3529214  62.4011569   6.4608874
  28.0741488  62.1823218   5.5607759  29.2887804  62.6627560   6.3708298
  35.7189082  49.7784437  17.3850634  35.5981487  48.8263870  17.6874052
  35.3647111  49.7453140  16.4853265  34.7988825  68.5773234  18.5555728
  35.4803999  69.0212255  19.0933793  34.1072488  68.3920838  19.1822885
  41.8070338  66.4036795  15.1570135  41.2696489  65.8926610  15.8292492
  41.3039830  67.2448083  15.2441110  33.3767391  43.2235060  14.8968851
  33.5734831  42.4937110  14.2640325  33.4178844  42.8061081  15.7526605
  36.2256116  29.2709621  77.8207071  36.4467403  28.6441808  78.5900122
  35.3125311  29.4809826  77.9620589  50.8579469  61.9342081  15.9811258
  50.3815940  61.5349925  16.6897096  50.2817406  61.8580459  15.2042666
  39.5209411  64.5395440  12.4838583  40.0131846  64.3077329  11.6558460
  39.1648286  65.4002625  12.1900315  30.0406939  39.2557126  79.3863335
  30.6567145  38.7935859  79.9721492  30.3727482  40.1339312  79.3241452
  49.9276172  71.7051034  14.5843975  50.3569702  70.8378245  14.3344257
  50.7394506  72.2171735  14.7473338  59.5486305  66.4588481  26.7620186
  59.9735201  67.3118141  26.6411370  59.6804657  66.3391976  27.7539745
  48.9536223  64.7315057  11.8674412  48.6898735  64.3131378  10.9863666
  48.0999346  64.9397220  12.2577878  22.3132152  39.2506872  69.8774680
  22.1594259  40.0254566  70.4512080  22.5768927  38.6206887  70.6054002
  47.0337213  67.8512901  11.2676990  47.8593823  68.2055943  10.7471269
  46.4548890  67.7628345  10.4455074  36.0235295  58.6729101   6.9922346
  36.4144602  59.5789527   6.9021098  36.8175731  58.1408568   7.2446891
  61.3052353  59.7948486  13.5495279  61.2217837  58.8474059  13.4781009
  60.8137729  60.1133039  12.7912611  26.7222724  28.7208192  72.1968463
  26.7566651  28.5118155  71.2059635  27.0340103  29.6649786  72.1294571
  45.2432896  63.0112502   8.7212970  45.5811981  62.0591815   8.6945170
  44.7838579  63.0166578   7.8281160  55.1965749  60.3884381  13.0684473
  54.5903809  61.1857814  12.9276112  54.5613090  59.8161084  13.5567916
  37.1241759  66.6326936  23.7847771  36.4998372  67.0480040  23.2038341
  37.6027817  65.9864575  23.2071096  62.3069430  56.6093574  26.4248921
  62.0106423  57.4500461  26.8758985  61.4014873  56.3869890  26.0248596
  53.7982959  70.0120352  27.0434283  54.4784408  70.0963073  27.7653233
  53.2465599  70.7907317  27.3561747  53.4218358  75.9341928  25.7439720
  53.4479053  75.7360463  24.7672194  52.7966958  75.2474066  26.0454673
  31.5012688  31.3203557  73.5812940  32.4627632  31.4834462  73.4380106
  31.4200570  31.3876825  74.5355680  38.3191474  67.2497027  18.1459224
  38.6456248  67.8102451  17.5057436  37.9809798  67.8969303  18.8075228
  48.3695044  61.7831468  11.5695711  48.4156027  60.8745122  11.2193539
  49.1667900  62.1702778  11.1656265  44.3284193  64.3739568  16.4151370
  44.1995642  64.7097978  15.5427114  43.4985498  63.9193085  16.6008366
  21.5592673  28.5457574  59.8890826  22.1040130  28.9001070  60.6042121
  21.9453198  28.8717293  59.0813126  34.9035600  71.7847279  19.3590159
  35.7050371  71.2616139  19.3344442  34.4088565  71.4673429  20.0798058
  28.3885221  29.8333889  77.1308973  28.7201779  29.3738879  76.3753896
  27.4608254  29.9332066  77.0054946  35.4288601  64.5135707  15.8946094
  34.9869834  65.2709459  16.3183887  36.2378760  64.9066923  15.6075894
  42.2162073  74.5830757  16.8040119  42.6423661  74.4213065  15.9504693
  42.9125839  75.0162687  17.3296665  44.0427537  59.0110560   9.0079879
  43.9969978  59.7537929   9.6726901  43.8714771  58.2888747   9.6650471
   8.5009562  48.1817151  67.2430833   9.2724382  47.6393274  67.0349414
   8.8664974  48.9252750  67.7009238  42.7862009  70.4502054  22.4458943
  43.7470591  70.4741651  22.6208747  42.7114651  70.5136738  21.4945867
  43.3250451  74.5078676  14.3686323  43.4107827  74.3922602  13.4018659
  43.7777509  75.4490511  14.3667066  21.7473516  44.3363038  75.0550583
  22.6379945  44.6785496  75.3375657  21.2136981  45.1814624  75.2762709
  47.6827666  77.5026892  20.2269145  47.6078787  76.9137623  21.0057717
  47.5059608  78.3524099  20.6807147  53.6975665  69.9642499  21.7006511
  53.8756899  70.3360479  22.5739754  54.5885296  69.6705624  21.4455055
  61.6935470  59.6845930  17.4214365  60.9822454  60.2137832  17.0658718
  61.4040814  58.7929677  17.1282929  38.1386837  65.0909450  14.8731604
  38.4787080  64.7828011  14.0290647  38.3436554  66.0568445  14.8021643
  47.8213955  69.1935755  17.6731451  48.7133300  69.6327350  17.6209027
  48.2261634  68.2614799  17.9573528  54.2511272  60.6093950  20.0563337
  53.4791686  61.1946433  20.1437039  54.1629244  60.5135802  19.0488622
  36.4777988  65.6904313   5.5283526  36.9451371  65.3314548   6.3173891
  36.9090998  65.1506945   4.8682300  47.1012928  64.5661907   9.7540641
  46.4225119  64.1637530   9.1702994  46.6423582  65.4308884   9.8879589
  37.3217799  58.5585348  14.0494962  37.8861140  59.2321788  13.5156198
  38.1367645  58.0997729  14.4132673  57.1174951  61.6775209  20.1243907
  56.2463282  61.9538493  20.2278476  57.2024237  61.5163515  19.1331500
  37.9832919  67.6408756   8.2342163  37.9940542  68.5189603   7.8840236
  37.4780882  67.7320596   9.0724662  39.3694573  61.9537056  13.6754037
  39.7355018  62.8191512  13.4559096  39.9732581  61.5927117  14.3330379
  58.5187707  58.6470255  19.7268594  58.0651381  58.0652174  19.0643991
  59.1883852  59.0556615  19.1520985  49.8737541  55.3257493  15.7293014
  50.8607048  55.4057478  15.4079467  50.1248916  55.0449311  16.6561304
  32.9870858  68.4953049  14.2817125  32.8536088  68.2126476  13.3674672
  33.8317912  68.1295068  14.5481536  34.5319685  70.4342706  16.7444705
  34.3719905  69.8084088  17.5144190  35.2443857  70.9964356  17.1208145
  43.3019841  68.5590004  19.9318718  43.0570989  69.5171958  19.9510176
  44.2411396  68.6931229  19.6018548  45.8853724  69.2457078  19.4418487
  46.0376640  70.2131095  19.5834143  46.6341694  69.0443160  18.8458120
  43.1795934  59.7259580  13.0968738  43.4537191  58.9029802  13.5682080
  43.4942878  60.3326407  13.7374532  32.1378655  77.2837886  14.0536060
  31.8849754  77.6974995  13.2108588  32.3607938  78.1204789  14.5461858
  45.1163736  65.9571953  18.6468169  44.8127949  66.6564893  18.0494905
  44.6488929  65.1933791  18.1419095  25.8730883  35.5823518  70.2385394
  25.0180137  35.3131512  70.1037281  26.1524503  35.2740273  71.0918940
  35.2960784  67.1990811  14.8403239  35.9506008  67.9297111  14.9071722
  35.5373705  66.8018429  13.9411247  43.9982814  65.9588069  21.1516659
  43.5737179  66.8033047  20.9188298  44.4144868  65.7115586  20.2653061
  62.5833485  78.7059117  25.1382431  62.2458474  79.5647424  25.5325598
  61.9245096  78.0930070  25.3868781  58.5696184  72.7617693  24.8974066
  57.6580662  72.8500272  24.5078195  58.8413232  71.8927362  24.6179231
  46.9811521  66.8494246  23.0993887  47.4411644  67.5267332  22.5763613
  46.2608273  67.3439406  23.5122015  24.7313296  46.9529281  71.0751129
  24.9998292  46.1066482  71.4759402  24.7090098  47.5452290  71.8795625
  24.6865809  37.9422020  72.7616366  24.2190463  38.6097344  73.2391133
  25.4331254  37.7009064  73.3303641  38.9189856  64.0156306  20.3952224
  39.6002166  64.3015794  19.7866580  38.1390295  64.5005271  20.1297189
  33.1749090  25.9425216  74.0729959  32.8222599  26.5030906  73.3587984
  33.5564914  26.6802938  74.6301858  50.9248997  69.2075936  14.0483871
  50.2076481  68.6436261  13.8466580  51.3538194  68.8025552  14.8079765
  49.0304445  63.3485199  18.7544804  48.4920828  64.0001623  19.2544878
  48.3009719  63.0000376  18.1602717  46.9330905  72.2432786  17.3837284
  46.0230512  72.5047268  17.1555824  47.1915912  71.8965572  16.4971042
  42.1963494  65.5058026  23.8483889  41.1939151  65.5026691  23.6559537
  42.2579804  66.5031601  23.9698942  52.8626906  67.2591658  15.5659269
  52.1188692  66.6653936  15.7088385  53.5848839  66.6084959  15.4601529
  45.5298222  70.5456224  23.0780060  46.1597499  71.0954925  23.5947466
  45.7177121  70.8878620  22.1509151  37.6083329  77.0142771  24.8901905
  38.4306797  76.8031080  24.3855928  37.1535748  76.2102246  24.9768088
  45.0207587  68.2879179  24.7234874  44.1189992  67.9322400  24.5507108
  45.0100833  69.1416074  24.2073576  45.7774584  77.3553611  26.4249383
  45.4051318  78.2149301  26.2768808  46.5651944  77.5681607  26.9795597
  55.6263513  52.1857656  18.1583743  55.8377252  52.3313263  19.1140633
  56.0703657  51.3330800  18.0302358  29.6421415  36.8347700  77.9673911
  29.8536971  37.5561642  78.5883218  30.4507693  36.2126986  78.1466443
  45.5216183  72.1061865  20.7929337  46.2878146  72.4597049  20.2863934
  44.7782020  72.2726936  20.1528671  26.0885792  67.3312456  18.9020407
  25.5783324  68.0485581  18.4800803  26.9051525  67.8332268  19.1635777
  19.3553920  41.0260689  72.3327039  19.2914128  41.0458211  73.2779850
  20.3108857  40.8856825  72.1321588  50.8166231  70.4698022  20.6723500
  51.7058908  70.7660201  21.0616217  50.3431831  70.2387761  21.4740005
  18.5354053  37.3909746  71.2776893  19.0555611  37.3835860  72.1181558
  18.9112967  36.5928800  70.8180973  34.0344142  66.2029689   4.8658434
  34.9865687  65.9844270   5.0482776  33.8789259  66.6378305   5.7498826
  48.9755372  73.8100227  30.5373149  48.3523764  73.9587891  29.7957889
  49.7684478  73.4423192  30.0613298  42.9047979  69.0422268  13.6639582
  43.8852061  69.2060531  13.3315377  42.7026592  70.0403698  13.6758698
  48.1692978  65.5742314  15.5494008  48.0341737  66.4468731  15.9636993
  47.6492629  65.6234472  14.7511804  47.3702309  65.1809814  19.7237059
  47.0118049  64.4445269  20.2581734  46.5490222  65.5487373  19.3369570
  44.2926903  67.8063401  16.4880407  43.7514134  68.5112830  16.8846181
  43.6544329  67.4396811  15.8462740  45.4918809  57.3511513   7.3471032
  44.9416351  57.9760687   7.9558295  44.7234174  56.9161217   6.9212722
  53.0976490  57.7814063  17.8004257  53.5450155  56.9792180  17.4859229
  53.1663032  57.7683103  18.7838609  59.2346587  53.3514643  11.1387225
  59.4258755  54.3251733  11.1260004  58.7739690  53.2208081  10.2959817
  44.6873236  81.1821462  25.9535079  44.3621383  82.0730455  25.5137002
  43.8429708  81.0691974  26.4839918  43.8568219  57.8001714  14.9787203
  44.4385959  56.9785454  14.8622660  43.7690090  57.7444833  15.9589014
  53.2131619  57.5443104  13.8118818  52.5509539  58.0333803  13.2816126
  53.8541308  57.3668874  13.1056826  36.7825834  69.4616632  20.3333131
  36.5238230  69.0050315  21.2153358  37.6754193  69.7248280  20.5869028
   3.0452810  14.3846415  23.4172497   2.7328066  14.2823602  24.3326043
   2.7452360  15.2788615  23.1961910  49.8770756  81.7726396  25.2327236
  50.5383698  82.4552998  25.1649251  49.0471746  82.3271982  25.1781098
  67.9640931   9.9772223  17.1099788  68.3375233  10.7482479  16.6149479
  67.4471112   9.5629832  16.4139873  31.6518112  70.3511849  23.4802595
  31.0274194  71.0655865  23.7517978  31.0881101  69.6937692  23.1258060
  50.6492104  76.6602219  21.4293516  50.4913021  76.0141603  22.1541989
  50.7949305  77.4857819  21.9833791  50.9320401  61.0492086  12.8452445
  51.5941839  61.7476555  13.0767500  50.3220782  61.6406793  12.3587362
  53.2213239  70.6681175  18.4196333  53.9325438  70.8730356  19.0726579
  53.7038349  70.8736165  17.5919933  56.9709796  63.6852579  17.0403842
  57.4566995  63.4311647  16.2856492  56.6257802  62.8798817  17.3737219
  61.0725469  64.2562842  25.8798443  60.6799121  65.0687161  26.2330387
  61.6887533  64.6546649  25.2143213   3.4389234  33.2899098  62.4262610
   3.9264416  32.9760455  63.2354014   4.1122119  33.1964762  61.7404016
  60.0947953  61.6140918  20.4728140  59.0877945  61.4717146  20.4672062
  60.2216968  61.9676120  21.3745009   8.9841624  37.1362461  68.2019254
   9.3985328  37.6222658  67.4779537   8.2105338  36.7481018  67.7089385
  48.4811280  51.8181129   8.6126586  48.7089005  51.0449336   8.0622791
  49.2264864  52.4149241   8.4789826  34.5982844  30.4547999  75.5776253
  35.0874912  30.5612850  74.7929696  34.0778429  29.6441464  75.3433617
  64.5648786  65.9667451  19.9276197  65.2041333  66.7248337  19.7774210
  65.1375511  65.3714671  20.4488394  56.9399570  65.0708855  22.3068184
  56.2029974  64.7803198  22.8272954  57.4860990  65.4848343  23.0052051
  56.3249622  69.1247794  21.6103685  57.2292228  69.4802894  21.4524270
  56.1216495  68.8371184  20.6856308  24.3133183  23.9538683  71.5923497
  23.6988073  24.5310100  71.9936529  24.0986042  23.0365183  71.9641240
  60.7282690  66.5085110  17.4602700  60.7223650  66.5502398  18.4327627
  60.7717295  65.5703445  17.2922752  34.5380200  61.0822084   9.9436722
  33.7807169  60.4751443   9.8460508  34.4553819  61.2385476  10.9118768
  19.8298601  48.7475220  80.3314317  20.4175174  47.9692942  80.1407164
  20.5122695  49.3762712  80.5663902  39.2066096  70.2741257  11.0213193
  39.7104104  70.1018392  10.2113727  39.0865310  71.2538509  11.0071440
  24.3698161  24.1315035  68.8558359  24.1659462  23.9380509  69.7516738
  23.6352862  24.7344372  68.5640888  34.2685812  64.6041989   9.2596250
  35.2095216  64.2941401   9.4408013  34.2874139  65.3671290   9.8814233
  27.4876547  19.5397904  71.1416472  26.9339445  20.0920611  71.8135590
  26.6718413  19.2693266  70.6195844  25.6525630  20.0328453  67.4324995
  25.6504479  20.1252213  68.4159513  26.5829347  20.1695518  67.2252492
  15.8639325  34.5183320  72.0524730  16.1681086  34.9984523  72.8256425
  15.3473015  33.8223707  72.4592448  47.1222482  71.3596993  14.6566633
  48.1446872  71.3841757  14.5970585  46.9402082  72.1936396  14.1951540
  29.8609833  69.1412137  21.8684801  29.4130813  69.4754973  21.0908487
  30.3962688  68.4201784  21.5395396  32.3154736  30.9831489  67.3397119
  32.1819776  30.0789971  67.5762296  33.2091986  31.1344127  67.6993950
  63.2417414  63.7640188  15.2086636  63.4000234  63.9737646  16.1797941
  62.3219301  63.4972214  15.2566324  59.8849933   5.9541622  17.3850776
  60.0169934   6.8394057  17.0570099  59.4844164   5.5004645  16.5997976
  52.3203713  78.7189729  25.7464473  52.7131180  77.8323053  25.6011869
  53.1005782  79.3065225  25.6606934  21.1214422  46.4595770  78.7023563
  21.2571790  46.5968720  77.7654162  21.0344147  45.4571771  78.7096965
  17.0300577  28.6938004  66.5309783  17.1840232  27.8596131  66.0338066
  17.9152123  28.7184374  67.0067853  77.2265839  13.7071926  27.1255338
  76.3365029  13.7111728  27.4770365  77.0595648  13.8617207  26.1247008
  36.0028360  66.6787853  12.3480031  35.1191750  66.4041235  12.0954041
  36.2136061  67.3462172  11.7064019  28.2849524  47.1063308  73.1766974
  28.3879421  47.9315576  73.7358291  27.3484541  47.0109988  73.1928699
  45.5888433  69.5980116  12.7038566  46.1510126  69.7258434  13.5188585
  46.1448691  68.9744515  12.1858881  53.1843051  73.2412004  20.6566466
  53.2704504  73.9634350  21.2928447  54.0865310  72.8516186  20.6892409
  53.4473040  70.1415502  33.0890259  54.0811110  70.8451538  33.0086013
  53.3021771  70.0890232  34.0506985  28.9468632  46.9499075  77.5140360
  28.8786811  46.0016453  77.6516000  28.0683219  47.1718445  77.2145482
  23.9347934  39.2031292  76.5981672  23.9213411  38.2846624  76.8072544
  23.4912585  39.5820305  77.3926261  37.7974182  42.1192772  85.2671578
  37.8304817  42.3620305  86.1980055  37.0190496  42.5926668  84.9188005
  10.9704323   6.9537620  31.5680385  10.7582140   7.8636483  31.4615203
  10.8763498   6.7479877  32.5114923  54.1047143  64.6697955  15.0771970
  53.6319792  64.1534996  15.7226587  54.8414232  65.0672951  15.5929156
  50.7615702  65.5586757  16.0771679  51.0289084  64.8129042  15.5090053
  49.8145274  65.6837606  15.7904719  51.0349267  75.0235670  23.4107954
  50.7323027  74.1014590  23.3765318  50.4809329  75.3508975  24.1688355
   6.4106003  14.6507780  21.6996503   6.0952889  15.5575808  21.4732139
   7.2611642  14.5989783  21.2224431  54.0505217  71.3220930  23.9793262
  54.3515978  70.7984675  24.7369655  54.8259817  71.9516444  23.9027326
  46.4115975  73.8125965  13.8865243  45.4679398  73.8787893  14.0565990
  46.7388200  74.2989240  14.7369676  57.8450207  82.0627917  28.6665242
  57.5041854  81.4280131  29.2943051  58.7232980  82.2422505  29.0519935
  56.8444036  82.5596851  24.8238967  56.7396782  81.9228530  24.1394578
  57.3327854  83.2787936  24.3806335  19.2163652  46.6037866  82.3405682
  18.9235600  46.1380249  81.4977892  19.7069776  45.9400810  82.8319379
  62.7756685  76.9174358  30.3529590  62.1556309  76.7065485  29.6265766
  63.2361319  76.1398483  30.4915750  33.9455695  27.1728606  14.2916084
  33.8330654  28.1135168  14.1001509  33.3055520  26.7712670  13.6452695
  54.9725769  65.7466502  62.7497516  54.2282376  65.9324653  62.0671719
  55.6896358  66.1505868  62.2190612  36.7151616  14.6471286   8.4565190
  36.8608785  13.7010279   8.4149707  37.6171339  14.9529737   8.7410876
  40.6727664  20.1025391  16.3329085  40.5243750  20.3125156  17.2331935
  41.6323805  19.9799927  16.2851640  31.6225655  30.1537935   7.9144116
  31.3210410  30.8055725   7.1884178  31.4105683  30.7242072   8.7006243
  30.5336463  21.6383345  14.0752336  29.9929250  21.0899459  13.4975721
  30.7825269  20.8911869  14.6786069  25.5526553  24.4517359  10.6008723
  24.8520796  24.0791909   9.9815566  25.4771847  25.4061269  10.3399186
  30.6498774  17.7518799  14.1291864  30.1970181  17.7171639  13.2948036
  31.5590161  17.4485493  13.9566529  36.7448785  29.8057156   3.8422689
  37.5964214  29.9289149   3.4255827  36.1762711  30.3864534   3.1958801
  20.6637183  25.8874470  10.5270249  20.9096157  24.9237774  10.6056436
  21.5327101  26.2893438  10.6493111  28.2474613  30.3923031   3.7185983
  29.1962926  30.3888415   3.8607050  28.1346501  29.5610226   3.1832806
  34.7141636  24.1376810  14.6328584  35.4321850  24.8161101  14.5679967
  35.2396834  23.3004961  14.4737967  71.0515203  59.3480651  57.4830951
  70.8016697  59.9677829  58.1608638  70.2974606  59.2683400  56.8641823
  30.3293587  38.1368878   3.1876245  30.0443879  38.0322721   2.2481849
  29.5364720  37.7982998   3.6213942  31.8261459  19.1104883   7.6884535
  31.1901187  19.1968850   8.4267023  31.6406529  18.2091033   7.4041523
  30.0000627  23.7970918  15.6350223  30.9365732  23.8287227  15.9754467
  30.0726421  22.9165719  15.1069725  30.7417430  45.9935658   7.9355869
  29.9749146  45.9782400   8.5420062  30.7749063  46.9193025   7.6897314
  37.8229508  34.7408931  -3.3324978  38.0013215  34.0681838  -3.9631155
  38.5801397  35.3216830  -3.3882179  35.0539481  39.6769654  10.5791590
  34.6641108  38.9150576  10.9884893  35.3484554  40.1760758  11.4005517
  28.3563064  36.4992739   4.3873373  28.3777357  35.7685576   3.7341004
  27.4137407  36.4971703   4.6842318  31.2569176  31.9343837  10.4160020
  30.6073678  31.5170818  11.0467031  30.6656299  32.7412848  10.1920032
  35.5053030  41.7590793   0.8679060  34.9262232  42.2942590   0.3013265
  36.3746740  42.2467275   0.6567534   7.7777606   9.8822772  56.0759925
   7.2829647   9.7395885  55.2228034   8.3383560  10.6567644  55.7494412
  71.8034383  71.9931541  49.8551338  70.9464497  72.1986393  50.0989681
  72.0765299  71.3798965  50.5829098  48.0535460  44.2667074   0.9612583
  48.9108763  44.5575967   0.5363977  48.3968001  44.0597996   1.8749570
  24.7568550  28.1136424   6.5760906  25.2041102  27.2776225   6.4859475
  24.9297459  28.5831122   5.7410149  35.9557301  46.6830431   1.0851150
  36.0013528  46.5098074   2.0747811  35.1002652  46.2235626   0.9296875
  34.0360435  43.2502551  -8.7584025  33.9100541  42.5181204  -8.1229936
  34.7721878  42.8736491  -9.3320513  44.4507601  27.9717302   1.2676045
  44.3250655  27.7203772   2.2085041  44.5097861  28.9789479   1.3734513
  50.7477282  77.7712987  58.2277758  51.4579388  77.8451727  58.8913860
  49.9486597  77.7695677  58.8101833  31.6048598  42.6320130   5.1404115
  30.6835642  43.0709206   5.3063133  31.2779419  41.6809618   5.1798873
  34.3698043  21.5597977  22.3196237  33.4041329  21.6699015  22.3977418
  34.4227118  21.0361513  21.5238150  42.2088339  31.9836758   3.9831593
  41.5950505  31.2296000   4.1777500  43.0155557  31.5219817   4.3893821
  32.3236481  25.1358038  18.4783056  32.2530053  25.2777545  19.4070367
  32.4674900  26.0566092  18.0990586  41.0141539  28.5168108   2.3263931
  40.4657620  27.9451023   2.8285504  41.9181525  28.4595630   2.7484804
  38.1732256  37.9710013   4.9651851  37.4907290  38.5452354   5.3649976
  37.6762495  37.2375380   4.6118633  37.1510892  40.4873217  -1.4248259
  36.1854596  40.4425296  -1.7203959  37.2797886  41.4404518  -1.3988254
  53.1680539  29.7514829  -0.0177623  53.4689987  29.3704411  -0.8977448
  53.7377213  30.5364329   0.0441298  30.8024751  31.5005439   3.9385312
  31.0307160  32.3981928   3.6106960  30.9774037  31.5834507   4.8862493
  24.1423395  42.4941558  16.7175641  24.3815249  43.3852096  16.4641981
  24.6750630  42.4108642  17.5539134  39.0217135  30.6566811   2.3642013
  39.4597754  30.8484839   1.5358070  39.5399313  29.8571843   2.6343843
  33.3715660  38.2776514  -0.5691364  33.9777172  37.5062010  -0.4969132
  32.5633994  37.7749873  -0.2722797  55.7450948  62.7775016  59.7808414
  55.7631107  62.1750928  58.9884191  56.6304511  62.5401622  60.1334799
  33.0265242  34.1933227   6.4999799  33.0521654  34.8143511   5.7254289
  32.7611243  34.8845669   7.1655217  33.8810077  32.5808172  10.3771985
  34.1786585  31.7603228  10.7911390  32.9061967  32.4976636  10.5330132
  40.3042141  37.2097366   2.4870772  40.9996297  37.1309748   3.2049649
  39.5604161  36.8001940   2.9001671  54.5955842  70.7040672  61.2791212
  55.3341475  70.0785155  61.4786596  53.8787215  70.0334343  61.2686722
  54.7435411  35.1714446   5.4194683  54.2759739  34.4297360   5.8496798
  55.6713238  34.8871940   5.4928778  39.9420185  38.2319917  -4.3999573
  40.9122078  38.3968537  -4.4542407  39.5980620  38.4693680  -5.2497206
  35.0852734  12.6564304  18.2983841  34.1772342  13.0364727  18.2868471
  35.4597956  12.9796696  17.4856780  62.6183206  75.3868069  57.1944307
  62.7430225  76.1561739  57.7378741  61.6654116  75.5075582  56.9127276
  34.2531675  29.3174517   7.0852832  34.4970727  30.2249671   6.8458506
  33.3303114  29.4785221   7.3966148  25.3032005  36.0284994  17.8841656
  26.2317946  36.2328150  17.9656204  25.1072109  35.5590104  18.7189637
  41.7109907  44.2279650  10.6899415  40.9348999  43.8868260  10.2689921
  41.8415293  45.0785457  10.3178215  30.8844564  39.9239999   5.2992630
  30.0107235  39.9837276   5.7907401  30.7541350  39.1710252   4.7543176
  25.7967900  43.6494042   9.0116367  25.5782238  44.0742494   8.1185619
  26.7795552  43.6391067   8.9221512  27.0702929  -2.4187514  56.7673882
  27.3349360  -1.4816798  56.7353963  26.7821261  -2.4693108  57.6923920
  59.7557345  63.0203806  58.7325899  59.0973569  62.8110248  59.4239929
  60.5855151  62.9056219  59.2644080  50.5532632  27.6942839  -3.5349053
  50.7175488  26.7060172  -3.4198298  49.9147837  27.8388457  -2.8261729
  60.2737993  69.5343175  59.0899684  59.3530900  69.6002663  58.8652835
  60.4520832  70.3770485  59.5900779  22.3239151  -0.6474318  56.3039256
  23.0175776  -0.8538028  55.6831160  21.5644345  -0.3996275  55.7653262
  47.4978081  20.1870720   8.9851117  48.1906591  20.4594360   9.6257192
  46.7041399  20.5107767   9.4887264  47.2267852  27.0169026   5.5442110
  47.8320462  27.8330951   5.5812827  47.7897603  26.4564402   6.1391893
  19.7019431  11.3672162  62.1091080  18.8612281  11.7735194  62.5552674
  19.6668793  10.4782089  62.4672195  31.6792195  33.8307509   3.0848068
  30.8227922  34.2184315   2.7469010  32.0556458  34.6751695   3.5026494
  33.7531932  27.7915322   0.6795742  34.6866686  27.8998816   0.3296985
  33.7620553  28.5642151   1.3055255  44.1247567  30.5278728   5.1288960
  44.0307218  30.6725722   6.0691206  45.1421342  30.5157580   5.0179900
  22.4565595   3.6697394  55.9210110  21.6577640   4.1592230  56.1286907
  22.0901150   3.0262228  55.2172911  60.2838204  75.8218175  54.0757621
  59.4381414  76.1431866  53.7480255  60.0374741  75.3461920  54.8918852
  35.9715179  36.4307219  -1.9892544  36.6686963  35.9059604  -2.4191238
  36.4139516  37.3039866  -1.9423837  35.9533480  33.3776884   4.6399326
  36.6981626  32.8121775   4.9946624  35.5068274  33.5048425   5.4770010
  25.9915563   2.9105298  58.8014063  26.1173167   2.0518009  58.4234735
  25.3250222   2.6947957  59.5527011  51.7085394  64.5968188  63.1561838
  52.2662239  65.2942111  62.7805215  51.5076592  64.9849783  64.0370949
  50.8508116  37.3212243   6.1761994  51.7900025  37.4408888   6.1967067
  50.7100379  36.8656462   5.2959783  49.3606972  77.2796056  49.0984252
  50.1622569  76.7881941  49.3536996  48.8600462  76.5634032  48.6854555
  44.7026934  46.6880195   8.1704551  43.9702772  46.9359475   8.7332943
  44.8113967  47.5303811   7.6148284  56.7085957  66.2895586  60.6611803
  57.5787703  66.0070806  60.9645664  56.8045368  65.9675714  59.6972911
  50.6431797  29.2258337  13.2435562  50.1597827  29.8681933  13.8326456
  50.9699350  28.5791385  13.8869598  35.9967644  28.3393454  -0.4038694
  35.5409522  28.0703654  -1.2568623  36.0586265  29.2932008  -0.5972650
  46.0192839  30.0408912   9.0993052  46.7623787  29.3920013   8.9260055
  46.0097939  29.9547416  10.0787196  28.3134877  40.4361348   6.1208454
  28.2240644  41.0507428   5.3473769  27.5488313  39.8592961   5.9907742
  51.0625818  79.4313761  55.9059823  50.7780266  80.2820097  56.2834261
  50.8362662  78.8544845  56.6743608  20.5452529  14.0061963  58.9139691
  20.6866986  13.0718886  59.3244289  20.0150894  14.3917425  59.6948263
  32.4730272  36.3532663   8.2680002  32.7740749  37.2265245   8.5980951
  31.8274302  36.7023208   7.5954714  44.4799955  26.6560018   5.6819810
  45.4065669  27.0138127   5.6058405  44.5762336  25.8435041   6.1667879
  38.3949684  28.9441236  15.5166453  38.2627998  27.9855809  15.5239407
  39.3781940  29.0269185  15.4633992  43.0422906  36.3357014   3.0894222
  42.5629333  35.6637921   2.5346598  43.1894441  35.7372275   3.8810890
  36.3722474  26.2749918  14.8047790  35.9059113  26.1779336  15.6821548
  35.6689228  26.7090005  14.3264655  33.6073020  50.4109835   3.5546752
  33.5213529  50.7479112   4.4655192  33.2255440  51.0974980   3.0133283
  43.5104246  34.6105656  11.1947196  44.4045460  34.6361940  10.8736673
  42.9741876  34.2340211  10.4868975  19.1953997  31.8722558   6.0713424
  19.9461386  31.6115206   6.6913856  18.4610440  31.6722747   6.7238499
  40.2977809  42.8570131   0.5584767  40.7669794  42.2268004   1.1658024
  41.1039191  43.3786779   0.3166832  64.1805471  70.4529933  58.3902092
  63.4836624  71.1129994  58.0921520  63.6804634  69.6183793  58.3257074
  51.4937773  27.5777365   1.5178544  51.5587282  28.1503889   0.7711707
  50.5686860  27.6806902   1.7370719  17.6079992   2.3341989  53.9882309
  17.9534223   2.0584661  54.8203991  18.2751014   2.0353936  53.3607666
  63.2591575  59.4766555  50.2958003  63.1817335  59.0456194  51.1528318
  62.2771476  59.7257029  50.1766176  41.6933138  30.7376882  -2.3641586
  41.7404159  31.7245070  -2.3268315  42.3490738  30.4502795  -1.7399544
  31.3110882  32.1820272  16.0683008  31.4177676  31.7760221  16.9790106
  30.5364487  32.7485815  16.2050253  45.8117773  40.3624557   9.4799281
  45.0970921  41.0298763   9.4079375  45.7904331  40.0373653  10.3530383
  38.7342531  21.6792390   5.6768254  38.0965391  22.4514453   5.5433392
  39.1838336  21.7972565   4.7525808  40.6496930  34.7638172  -0.2599749
  39.9801681  35.5110299  -0.0702335  41.0269180  34.6796128   0.6426943
  36.7113365  42.9538613  13.0731390  37.1667835  43.2239260  13.9522855
  36.7453284  41.9983800  13.2077934  44.0526754  41.6469946  -3.3144512
  43.9494851  42.0750700  -4.1996355  45.0411285  41.8115544  -3.1546628
  47.5979446  26.8631637  22.8570930  47.5997400  26.2614753  22.0725174
  48.1721272  26.3111172  23.4617217  22.9345145  29.9104379  11.3763450
  23.1738034  29.5053169  10.5340557  22.3582577  29.2713363  11.8292912
  50.4326076  82.0717282  56.1243427  50.7727202  82.7316989  56.7574422
  50.8624227  82.4295801  55.3320107  46.0520241  62.9003181  12.0452520
  46.9727013  62.6004762  11.9569767  46.1026554  63.6813925  11.4347363
  28.9402962  24.5807603  20.1668376  29.4131344  24.6862905  21.0076821
  29.5620565  24.2077598  19.5226855  43.9434845  41.8936336   7.7321056
  43.6443183  42.0080442   8.6136639  43.9286802  42.7988999   7.3669805
  40.6182588  40.9102927  10.9622364  40.1483141  41.4247342  10.2477127
  40.3413521  41.4421773  11.7534639  56.9010189  67.4381870  63.8979183
  56.3964727  66.5783439  63.8372182  57.2582732  67.2961314  64.8060481
  44.0648669  44.3438456   6.7541638  43.5237114  44.7746953   6.0237047
  44.4636870  45.1438879   7.1755971  37.8408877  31.8333782   5.7594921
  37.5729439  31.1012386   5.2426142  38.8052437  31.5842097   5.9457384
  43.0252292  38.7966437   2.0028274  43.5577465  38.7784425   1.2077251
  43.0374382  37.8663688   2.2784670  33.1811989  27.3871477  17.0095296
  32.3280553  27.8734878  17.0402554  33.3698267  27.2804489  16.1238580
  52.8282711  68.8439187  61.5957150  52.5459426  68.8993617  62.5284564
  51.9752842  68.9509109  61.1600495  30.3900889  23.7514350   4.1175408
  30.0976465  24.5933100   3.6294488  31.2458338  24.0832955   4.4581097
  37.8780147  31.0379521  -3.2581370  37.1311256  30.9105065  -3.8442840
  37.5604428  31.6829336  -2.5899012  33.6292536  36.2757141  -3.4336147
  34.3935362  36.6174427  -2.9640338  33.3732909  35.5490100  -2.8189455
  42.7915895  38.7456131  -4.6914158  42.4369537  38.9249586  -5.6196267
  43.6607490  38.4125165  -4.8878716  22.7602183  44.0403754   2.0731107
  23.6441012  43.6633871   2.0469201  22.5430015  43.9095000   1.0617861
  48.0135989  28.3036374   9.0596755  48.8077524  28.8937904   9.1839933
  48.3648203  27.6496416   8.4052378  19.1547152   6.3226327  50.7155006
  19.5371121   5.5753272  51.3198571  18.5133825   5.7576139  50.2525105
  25.6051706  45.5149000   6.8848693  26.1855475  46.2966463   6.7773154
  25.6548559  45.0326309   6.0871390  47.4285466  27.4238678  -2.6656531
  46.5984319  27.3704670  -2.1432190  47.9251131  27.9322281  -1.9235202
  39.3800441  42.3351119   8.9034324  38.4883013  42.0484649   8.7542133
  39.4635457  43.0301721   8.2361778  21.4418547  12.4943928  64.1515793
  21.6938675  11.8007777  64.8309454  21.0568760  11.9320512  63.4554762
  73.4233440  12.7016918  57.0799735  74.1825141  12.0726246  57.2216335
  73.0742799  12.7908346  57.9877327  59.7437703  78.9321589  52.5312468
  59.4512512  78.0391424  52.6639350  60.5502067  78.9332198  53.1278107
  16.1784798  43.0407120   2.9359633  16.9105724  42.5905792   3.4688563
  16.2614734  43.9357355   3.2807334  35.8710857  18.9749379  15.9951804
  36.7991450  19.2045765  15.7196841  35.9720915  18.1499826  16.5146232
  55.5951550  40.7925697   8.8545831  55.8452341  40.9079663   9.7985724
  54.9012018  41.5202916   8.7973525  36.4301051  22.1278822  14.8371505
  36.5027886  21.2944462  14.3183411  37.4099228  22.2959793  14.9321575
  48.3334154  42.6681477   9.0820389  47.7393106  42.7568142   9.8369318
  49.1711050  43.0486478   9.4514922  33.5994931  29.8951121  13.7633299
  34.1675463  29.9402727  12.9435654  33.5409682  30.8849195  13.9475123
  39.1236041  38.4867490  15.2107150  39.8979409  38.2836953  15.7934620
  38.5311127  38.8399653  15.9043561  48.0317945  34.3479606   2.1317179
  47.5752923  34.1451610   1.2656511  48.8705212  34.6174612   1.7707441
  45.8039379  39.0906092  12.5670274  45.0532380  38.5543877  12.2483096
  45.3378312  39.9084868  12.7968528  40.9466446  27.8892927  -0.1797158
  40.0195500  27.9459552  -0.3066336  41.1166183  28.0865279   0.7781656
  42.9288636  37.9256637   8.7999938  42.9654781  38.1288614   9.7554785
  42.0029782  38.2964429   8.5814904  38.2118728  31.4679928   8.9544745
  37.6241864  31.0884125   8.2831063  38.7071394  32.1318196   8.4394430
  31.6184517  35.7853936   0.1255002  31.8828119  35.2003008  -0.6481935
  32.5382843  36.0867056   0.3749612  43.4851169  21.6418219   7.6302100
  43.6525433  22.5478058   7.3028753  42.4680168  21.6826738   7.6090481
  28.4869086  42.7940457   8.5642496  28.5254707  43.6325733   9.0503091
  29.3107619  42.3344284   8.8645862  58.1382655  31.3774701   4.9428633
  57.3107835  30.9144189   4.7469837  58.4393212  31.6333054   4.0687776
  35.4261959  29.6237732  17.6623018  34.7404904  28.9717925  17.4791969
  36.2316600  29.0966619  17.5439434  58.6984718  72.9893538  53.0895505
  58.2275601  72.4942151  52.3489690  57.8999556  73.2081372  53.5586268
  26.8208622  30.7635774  15.8687862  27.0106300  31.5345775  15.2977168
  26.6446233  30.0866412  15.2286728  27.0921075  23.4875439  15.0111413
  27.2711305  22.7165581  14.5298122  27.9526053  23.8248316  15.3033930
  33.9062244  40.3861162   4.3201541  33.0302630  40.3994941   4.7323004
  33.6003153  40.0505926   3.4064050  31.1384216  29.5235390   2.1352084
  31.4623749  28.9818041   2.8633923  30.8602792  30.3012150   2.6506891
  22.3464342  46.2559977  14.8433076  22.2791866  47.1118620  14.3810932
  23.1377107  45.8743939  14.4667228  28.4003573  39.3079022  12.0473793
  28.5663986  38.7606335  12.8696237  28.1408131  38.5351506  11.4465806
  43.2944833  28.3293154   4.0287133  43.7024779  27.7025979   4.6795913
  43.3995195  29.1674743   4.5503508  45.3563562  38.7880995  -2.9896216
  45.2500406  38.0191050  -3.6043221  46.1912275  39.1552425  -3.4833324
  58.4457749  79.9305309  50.1689634  59.0038937  80.0972832  49.4288232
  59.0244451  79.6265377  50.8301788  37.3340577  39.5593050  -4.7951823
  37.3403233  39.0446788  -3.9569236  36.9866968  40.4385895  -4.4531978
  51.5231378  21.0048706  -0.5396868  51.5062475  21.0974586  -1.5207526
  50.6944247  21.3933688  -0.2702197  42.1132934  23.6119207  17.8327842
  42.6122456  23.7053698  18.6968442  41.2499193  23.8695585  18.1779572
  32.7053197  45.5989536   5.8784869  32.1817313  44.7892400   5.8221060
  32.0232814  46.2011453   6.2470039  66.5321635  75.8793276  52.1857644
  65.8853587  75.8736966  51.4724183  67.2017027  75.2377244  51.8375578
  36.6027212  36.2635486   9.7791900  36.8888676  35.7961255  10.6275235
  35.7292802  35.7500247   9.7206788  47.6545921  38.4403560   3.1968971
  47.0617530  39.2129745   3.3688830  47.0897541  37.7239800   3.6241994
  37.1701388  35.3027043   6.9094476  38.0341735  35.0136166   6.5692868
  37.3457861  35.6486804   7.7743905  37.7713229  35.4360360   3.7928381
  37.0931291  34.9357012   4.2581989  38.0393991  34.8151597   3.0894803
  37.2715885  33.9203579  14.5992629  37.2923151  32.9029827  14.5770104
  36.3823262  34.0340239  14.9910920  32.7158157  43.8049617   3.1177825
  32.5385917  43.2820616   3.9456695  32.8949037  44.6699160   3.5643964
  33.6720781  51.2666312  12.5953054  33.5212104  52.0139433  11.9533761
  34.6114318  51.1142006  12.4534139  35.6754443  53.8161876  -0.0334228
  36.0814616  53.3349744   0.7331231  35.1411780  53.1157080  -0.4528848
  38.8329864  50.1412969  15.8126358  38.2134975  50.9079474  15.6899578
  38.2370828  49.4255486  15.9702186  39.0582884  50.3395437   1.1456376
  38.7472230  49.4747551   1.4780200  38.6459969  50.2425565   0.2008002
  37.5177526  56.8225944  10.6114493  37.6106723  57.7009448  10.9672801
  37.9979053  56.3118604  11.3457399  46.4400861  60.2408712   7.5069032
  46.5486884  59.7948951   6.6318221  46.2351406  59.4729907   8.0090651
  25.3007269  11.8806231  63.7013106  24.8818876  12.1038666  64.5635675
  25.7964041  11.0873928  63.9870634  30.2506296   7.7567210  58.7210333
  29.4720781   7.3667788  58.2531896  30.3865651   8.5344245  58.1221173
  26.0188351  15.1640986  55.7211339  25.9640771  14.2100300  55.4284826
  25.7057461  15.5829691  54.8393131  34.7392642   0.3888410  58.4847589
  33.7913583   0.6017455  58.7851172  35.0371822   1.3104722  58.3742905
  52.0618867  50.8547459   9.8292131  51.8927305  49.9587946  10.1310844
  52.4368915  51.2965776  10.5498945  35.3462038  48.8280599   8.6344407
  35.7243375  48.6273754   9.4844017  35.4670548  47.8526699   8.2621257
  42.6665981  44.0659306   0.1732944  43.5333424  44.0124433   0.6137139
  42.8819110  44.0276174  -0.7849859  42.4783647  53.8407501   7.1654429
  42.6287648  53.9618307   6.2130277  41.4734876  53.7637342   7.1019359
  53.0616177  31.1081575   8.9618077  54.0110571  31.1360197   9.1089380
  52.9260797  30.4115144   8.2714294  53.6162865  37.6321126   5.9169411
  53.9812108  36.6763111   5.8947338  54.3380407  38.0418937   6.4279950
  37.4376159  55.3908642   4.1993563  37.8173182  56.3010034   4.4856750
  36.8650485  55.1527274   4.8896791  48.3985003  62.3133689   8.3857284
  48.0642285  62.7159374   9.2061999  48.0163897  61.4197719   8.5037070
  43.6427165  61.0778061  10.7246941  43.3371322  60.6805072  11.6014472
  44.0667261  61.8727339  11.0384502  29.8870340  19.9869206  63.9939514
  29.5544225  19.1662151  64.4428649  30.8019659  20.0555755  64.2695549
  63.4776628  41.9812373  15.3762165  64.3822841  42.2664809  15.1715146
  63.4162520  42.3386960  16.2960964  52.3710836  52.7269798  11.9011742
  52.0936055  53.3889333  11.1946937  51.4544225  52.5020071  12.2830599
  38.2869509  28.2591195   8.3573347  39.1240085  28.5048833   7.9032437
  38.2155580  27.3771766   7.9551275  41.5733393  62.4346748  15.1875302
  42.2864130  62.5723408  14.5733709  42.0087753  62.0206332  15.9737144
  41.3323994  50.7181177   6.4351624  40.5034877  50.5272467   6.0198195
  41.8473149  51.0451348   5.6112662  43.4990437  34.9717864   5.3101000
  44.3559184  34.8267402   5.7531114  42.9074382  34.5552586   5.9756689
  39.4316211  41.9048438  -7.1025186  39.4783274  42.5074872  -7.8758437
  38.5948001  41.4185085  -7.2888779  27.9811524  13.7346397  66.0831427
  28.7413319  13.8539300  65.4973501  27.3952147  14.4320402  65.7274310
  40.5729687  54.9210962   9.7757462  39.8962332  55.0846244   9.1328123
  40.8251076  53.9725059   9.6592267  47.8791709  59.1816340  10.9315433
  47.2376417  58.5965968  11.4347765  48.0713188  58.5709570  10.2014995
  39.6182533  46.2128843  -0.6368159  39.3011499  46.1335233  -1.5099091
  40.5810799  46.3540941  -0.7993819  39.1404121  37.0992536  10.2771336
  39.5242061  36.9898618   9.4098244  38.1550996  36.9436822  10.0232782
  29.5746887  58.3702856  11.0072558  29.4503453  59.0010707  10.2798015
  29.0745024  58.8486098  11.7474030  42.1770623  34.9149335  16.7650194
  42.5237826  35.5200408  16.1220307  41.1830089  34.9985562  16.6118624
  32.9655765  36.0062617   4.0341756  32.5531581  36.8562593   4.2271399
  33.7572943  36.2300781   3.5367991  35.8080255  55.6565869   6.5466276
  35.4251273  56.5432298   6.4505895  35.0461467  55.2024779   6.9852623
  13.2005017  12.2936409  60.5913263  12.8119770  12.0223301  61.4488266
  14.0895735  11.8901893  60.6476935  39.6843430  53.6698174   6.1988637
  39.3469900  53.0055292   5.5716885  38.9510088  53.7434224   6.8244620
  39.4867725  47.5923978  13.2269738  38.9985640  47.6024170  14.0279840
  39.6984601  46.6117266  13.1881396  41.1738526  33.3170557  -2.4199907
  41.1157104  33.8598341  -1.5711476  40.9865837  34.0094782  -3.0822597
  32.4521948  60.8510319   1.5162742  31.6317128  60.3657495   1.3410965
  32.2757141  61.2930659   2.3654971  41.0754257  46.7165161   9.9497873
  41.6950540  47.2707391   9.4548116  40.1810386  46.9233102   9.5213132
  52.8456586  29.1900410   7.3010264  53.4646134  28.7913887   6.6589877
  52.8987099  28.4553889   7.9975304  35.1591335  37.3823627   2.7185295
  34.6360691  38.1948424   2.5588914  36.0054307  37.6778805   2.3501779
  60.4330465  40.0058512   9.2044391  60.0629449  40.7139403   9.8081968
  59.7530268  39.3214744   9.4586944  46.9765255  44.2870107   7.0907938
  47.2472088  43.3747259   7.2752491  45.9964922  44.1564139   7.0596545
  20.7492153  11.3400420  59.5078915  20.2618990  11.1898172  60.3365491
  20.9394580  10.4274567  59.1836896  53.4405766  42.3747145   7.9847271
  53.8830470  43.1806037   8.2161108  53.7942873  42.2761237   7.0874387
  46.9238405  41.5336952   6.9078759  47.4455718  41.6752321   7.7782120
  46.0589911  41.2595001   7.2479805  48.4411992  42.5918134  13.6248724
  47.9003968  42.9835265  12.8708199  48.3319205  43.2912760  14.2882220
  53.4502367  32.9255201   6.7968458  53.0951434  32.5693078   7.6038473
  53.1403147  32.3255793   6.1349855   7.9982386  30.1579633  66.6882954
   8.1540917  29.4249901  67.3070513   8.1906246  29.7552854  65.8517750
  23.1349722  12.3207097  58.8953719  22.2873270  12.0035215  59.2876889
  23.6641052  12.3498211  59.7236719  39.1048021  53.9289774   2.7748836
  38.5199838  53.3695499   2.1743948  38.4345200  54.3509828   3.3313175
  55.4156631  43.9192701   9.1792181  55.8933223  44.5841636   8.6381765
  56.1344286  43.3624063   9.5275584  39.6795427  41.7452872  13.3187010
  40.3736932  41.5500175  14.0670274  38.9850551  41.2078133  13.6992609
  50.3731706  50.5490936   2.6847381  51.1667832  50.9512461   2.9755403
  49.7544540  51.3812815   2.9697755  48.9118604  52.5655754   3.4903403
  48.0515128  52.9726567   3.4647306  49.5206566  53.3128573   3.6238310
  11.5789394  32.5520888  67.1092957  10.7552554  32.2747587  66.6927267
  11.4832508  32.0153268  67.9405160  48.9750980  38.5989105   0.9250443
  48.4149923  38.2941611   1.6971087  48.1778690  38.6800960   0.2941767
  42.5224992  47.8406224  12.7796785  41.5449522  48.0347651  12.8044603
  42.6550982  47.7677131  11.8425781  57.9064024  44.8009101   2.9447302
  57.3180458  45.3182691   3.5664886  57.3770477  44.8514204   2.1273668
  43.8584199  45.9628959  14.1446288  44.7517974  46.3011653  13.9333333
  43.3158580  46.7009129  13.8018407  52.4532204  55.4257969  15.4626552
  53.2573575  54.8750056  15.2963832  52.7312931  56.2628879  15.0190944
  49.6822962  48.6930146   9.5965299  49.5058618  49.3762235   8.8962437
  50.3992378  48.2084598   9.1203559  44.8559825  48.5488686  14.1881121
  44.6175067  49.3195968  14.8008325  43.9270142  48.2691448  14.0156212
  40.1589557  39.6507364   5.2368399  40.9421933  39.1163929   5.3541004
  39.4099660  38.9899103   5.2184662  49.9412110  52.4051513  12.8538809
  49.1968583  52.0788993  12.1942236  49.3638560  52.4894445  13.6389133
  40.9118634  52.0317704   9.1470267  40.0866857  51.5940633   9.4161482
  41.1319357  51.4811792   8.3622357  43.3047619  60.9152387  16.9922968
  42.9806524  60.0786127  17.4095890  44.1846397  60.5638816  16.7225756
  44.7445342  40.2382931   3.9489264  44.5683306  40.0604250   4.9359047
  44.1062909  39.5387479   3.6136326  50.9950021  43.9108230   9.9818444
  50.8646529  44.7200645  10.4944641  51.6865905  44.1728073   9.3361084
  65.1952058  75.4937875  54.4775500  65.7433741  75.9000848  53.8034127
  65.3270699  74.5391679  54.2673866  33.4649263  49.4388936   6.4864540
  33.8215907  49.5570175   7.3879098  34.2689595  49.7717323   6.0054819
  17.7463318  31.5157239  64.8396400  18.0642660  30.6477797  64.6607181
  18.0067890  32.0432005  64.0774700  52.5182508  31.3175321   4.8177591
  53.3777653  31.3928924   4.3125779  52.3518433  30.3464621   4.7221966
  43.6072673  57.9049404   3.9635268  43.4616309  57.7026135   4.9089577
  44.4581411  57.3641957   3.8311474  43.0636316  51.1197747   4.4275061
  43.5308571  50.3441873   4.6426712  42.6898624  50.9603426   3.5646294
  14.9919620  25.7369980  64.9146368  15.1521542  24.7891542  64.8474046
  15.8414845  25.9839056  65.3375924  41.8892004  34.0578898   2.1728264
  42.5335265  33.5874699   1.5852554  41.7218330  33.3570176   2.8420407
  40.5721992  55.9554518   4.9160301  40.2576373  55.0659741   5.1034062
  39.9253116  56.4809834   5.5152703  42.3974979  38.0494630   5.1790025
  43.1950844  38.1882821   5.7586006  42.6552152  37.2532478   4.6899579
  67.4060273  13.8438860  63.1182235  67.0641466  12.9763791  62.7429514
  67.7388477  14.1924357  62.2505182  33.3425532  41.2705580   7.4822337
  32.6548547  41.4979931   6.7901299  33.3591069  42.0392875   8.0537973
  40.1387979  64.2983188  16.4731245  39.1999015  64.2846555  16.1762236
  40.5575927  63.7594557  15.7839528  26.6133824  49.2223946   1.0139811
  27.4768766  49.0539366   1.4405635  26.6589478  50.1680899   0.7575872
  47.0019618  46.6542658  14.7394644  47.9514503  46.8190649  14.9358704
  46.7805671  47.5456770  14.3934721  48.7943824  56.2222169  13.3670647
  49.4138449  55.9667267  14.1507030  48.9698921  57.2174424  13.3871352
  39.3201654  48.7857494   3.9339282  40.3146027  48.6663423   3.8035308
  39.0409449  48.2886860   3.1485374  28.1711621  51.4569790   0.4170959
  29.0527787  51.5933619  -0.0996059  28.5099602  51.8037750   1.2909936
  54.1832103  49.6387332   8.5876101  54.7682067  49.3112205   9.3216065
  53.4590810  50.1102291   9.0831472  45.2289139  36.8838173   1.1535765
  45.1623011  36.6342264   2.0824122  44.9299964  36.1221540   0.6707778
  36.9616418  38.8109919   1.2155147  37.6930693  39.4265615   1.5791686
  36.6882048  39.4426071   0.5102034  31.9641560  47.9016411  10.6997049
  32.2938506  47.5564186  11.6161748  32.5135579  47.3086189  10.1291467
  51.9679493  47.8825779   7.7080940  52.7834314  48.3884264   8.0050879
  51.8340712  48.2960072   6.8164559  45.1625776  36.6469178   9.2432384
  44.2798346  36.8220613   8.9559358  45.7401178  37.0640116   8.5948321
  54.4819436  76.0230399  46.2254969  53.6765954  76.5676319  46.3003374
  54.6391322  76.0739402  45.2605132  44.7730178  48.9912923   3.9338237
  44.6575060  48.1766988   3.3579320  45.5371843  49.3899420   3.4306727
  42.2002580  50.8470753  11.2775397  41.7909847  51.1873847  10.5071007
  41.9715444  51.4279459  11.9697726  36.9857152  44.6941909   2.8326229
  36.4322987  43.9942212   3.2302072  37.3120519  44.1900999   2.0312228
  16.6345360  17.6027293  55.5461227  15.8626108  17.8167865  54.9847369
  16.2529983  17.0021235  56.1724273  42.1808003  37.7736824  -1.5497396
  42.0535914  36.9163342  -1.9352057  41.3869468  37.9715962  -1.1322514
  53.0743428  24.2325396  -5.0088342  52.2847817  24.5844480  -4.5145301
  52.6646969  24.0678708  -5.8871405  35.1351591  45.4231149  14.4994460
  34.4040182  44.8029319  14.6262845  35.7009269  44.9769263  13.8211139
  49.1941874  58.6174452   7.8410995  48.7358477  57.8631078   8.2439434
  48.7714642  58.6679194   6.9791949  47.6626533  46.0748523  10.7506083
  47.7208752  46.2941000   9.8316673  47.1195212  46.8208594  11.1082123
  14.8473498  27.4002853  62.7425415  15.2303807  26.9895552  63.5258802
  14.4857149  28.2622742  63.1337547  14.1561237  27.4458798  70.3535380
  13.5257063  26.7085825  70.3230647  14.0001684  27.8886596  69.4776328
  44.4245623  42.0064924  15.6806692  45.0790818  42.7669653  15.7177586
  44.8322557  41.3945915  16.2579077  47.7065878  52.2533865  11.0545033
  46.7773148  52.4271511  10.9021028  47.9235439  51.8486954  10.2063027
  43.6688674  37.2875702  12.1512886  42.7797890  37.6487582  11.9380835
  43.6543630  36.4330987  11.7263385  49.6190021  52.0678508  17.2829907
  50.1827108  52.8374633  17.3783088  48.8130805  52.3231760  17.6941864
  47.3369477  41.2666672   4.4318631  47.2807055  41.5507675   5.4078871
  46.3240576  41.0389146   4.4016346  49.6464355  36.5487539   3.9152137
  49.9895876  36.1432050   3.0832775  49.0612179  37.2547211   3.5452204
  36.1804291  54.4786182  10.3189433  36.9234737  54.3364628   9.7106941
  36.3516053  55.4739388  10.5043715  20.5487833   4.4308124  52.4706152
  20.4370165   3.5179548  52.7413149  20.0792104   4.8919127  53.1901949
  48.7130370  46.1322115   7.8475713  48.0899012  45.4256961   7.5803197
  49.5287211  45.6594735   8.0665494  20.5011212   5.9488098  56.2220004
  20.7755807   6.8118788  55.8338885  20.9103288   6.0589892  57.1039888
  45.2803745  26.9940380  -1.1484100  44.9707123  27.3346381  -0.3080119
  44.4908987  26.4733630  -1.4330591  54.5368315  46.8788981   2.5644446
  55.1051715  46.2271573   3.0338932  55.2505347  47.3524783   2.0404128
  64.7970131  38.5943698  12.0868919  65.1634252  39.3366032  12.5914729
  63.8886852  38.9485413  11.8357373  40.5958634  14.4106284  72.2506744
  40.3882099  14.5601239  71.2808662  41.3097555  15.0905626  72.3221071
  40.1149846  13.7869700  67.5647800  39.4000501  14.1380207  66.9808464
  40.6252963  13.2793758  66.9461318  45.2572267  48.8882055   6.5865090
  45.0425702  49.8433960   6.7330288  44.9196082  48.7694184   5.6722388
  61.6371977  44.9475359  17.6570958  62.3224860  44.3114254  17.6250580
  60.8959086  44.3486764  18.0019289  50.2124223  43.6636290  17.3824485
  49.1960938  43.5853296  17.3507096  50.2707893  44.6357631  17.1750186
  40.0872339  43.4332637   4.6552621  40.7003363  42.6933980   4.9394647
  39.2426702  42.9752746   4.8139417  43.6562466  48.9326205  10.1884003
  43.1139909  49.7276346  10.5077237  43.5544129  49.0724419   9.2369571
  23.7223618  -3.1603678  53.4125521  23.6783988  -2.2388386  53.7629240
  24.6067483  -3.4107568  53.7724177  43.5770171  42.7172598   3.5164925
  43.0106387  42.4731556   4.2981458  44.2332069  42.0088614   3.4844513
  46.1244143  38.1000670  15.1431532  46.0084790  38.3868104  14.2516844
  47.1330481  38.1151450  15.2192909  37.8191973  43.4427015   0.2812354
  37.7739704  43.9026121  -0.5027709  38.7400257  43.2621113   0.4628484
  38.3765006  45.8425778   4.8435474  37.7764884  45.6323147   4.0278466
  39.2098398  45.5842694   4.3698611  23.5388436   6.5140777  59.4562782
  23.8787940   6.0674457  58.6592895  24.3100826   6.5471041  60.0559018
  46.5847275  50.4127834  16.7065092  46.6971964  51.0458889  17.4152371
  45.6848635  50.6124178  16.3487133  40.5141542  47.2107063   5.9023270
  39.9810061  48.0317862   6.1365219  39.7750288  46.7681843   5.4280976
  53.6276463  49.0252504   3.9041117  53.8644986  49.7358942   3.2912943
  53.8055681  48.2253499   3.3990325  45.1613406  55.5636419   3.4221993
  45.5175885  54.8190119   2.8558717  44.6002514  55.0116692   4.0175869
  49.7410919  40.6585199  -1.3845603  49.9174292  40.5925845  -0.4305464
  49.1234875  41.4019529  -1.4639072  68.6400591  71.2707530  57.2231190
  68.3505993  70.8266931  56.3615215  67.7102069  71.5898207  57.4631068
  23.3717552  14.8232153  64.1892436  22.8213868  14.0879745  64.4521084
  22.6984188  15.5661699  64.0834125  24.5665310  17.1780016  67.5512451
  24.9363849  18.0413925  67.7398768  25.2531093  16.5194208  67.8367657
  14.3019033  17.8360964  54.1498617  13.9527133  18.6982770  53.8232619
  13.5363782  17.5545405  54.7024784  60.5030809  56.9767614  13.6322327
  61.2271114  56.5694426  14.1472721  60.4841896  56.3669545  12.8945259
  48.3511618  47.2770821   1.2102223  47.9029759  47.0420777   2.0791136
  49.1228019  46.6479580   1.2504708  17.0640292  18.6916068  64.3460440
  16.8480258  18.1953724  65.1533160  17.7047507  19.3521820  64.7020496
  47.1445201  33.3524569  -0.2364480  46.8994327  32.4396362  -0.0999950
  47.6634572  33.2646032  -1.0635244  36.1365806  48.6237390  11.3255081
  35.3486452  48.7140346  11.7956540  36.3524117  47.6924684  11.5333904
  55.9544525  45.7368090   4.9385564  55.0513484  45.4122889   5.0483526
  56.0011389  46.4473170   5.6190265  36.2457245  26.6549747  76.5563245
  36.2294057  27.6430138  76.7303645  35.3172206  26.4845052  76.8239173
  64.7229919  55.2758991  15.6716972  63.7866515  55.4553277  15.3283652
  64.5590182  54.4759423  16.2108988  54.9070379  44.2754904  18.4011525
  54.3758336  43.4870635  18.2453544  54.5988729  44.8944261  17.6677185
  33.8473426  66.5829107  16.8433412  33.9616994  67.3592710  17.4633342
  34.3216862  66.9562960  16.0850872  43.4389883  10.6097249  62.9244380
  44.2887372  10.1028885  63.1538239  43.7067451  11.4620265  63.3194305
  17.4030619  23.4034715  68.8082425  17.5720596  23.8136977  67.9145583
  17.4046081  22.4596049  68.4963523  57.3994403  56.9762085  17.9803453
  56.7139810  56.2626843  17.9381077  58.0959998  56.5989648  17.3899818
  51.0113742  47.9199730   2.1519572  50.7686812  48.8418733   2.3760988
  50.8616574  47.4786715   3.0552649  40.9712900  58.6005348   8.1776809
  40.4486399  59.4122587   7.9241546  41.7683026  59.0330991   8.5427702
  52.7895776  48.4428781  11.0903821  52.9264323  47.5145477  11.2595145
  53.7271503  48.7490230  11.3411607  21.7528936  18.7564710  61.2874241
  22.3483050  18.3292390  60.7150964  21.0405660  18.0830917  61.3762069
  30.5863088  22.7807053  71.3037304  30.1244061  21.9541997  71.0835799
  31.4747595  22.5072288  71.5126997  31.0269582  32.5432088  76.5727847
  31.8656198  32.3184671  77.1091957  30.3858697  32.0954981  77.1665685
  68.5692503  50.4100385  19.2395141  67.9843301  51.2035460  19.1416823
  68.8842865  50.5304002  20.1492481  26.8523782  22.9636157  68.7240774
  26.7177861  23.1880072  69.6839211  25.9976389  23.2845788  68.3073630
  39.0079992  62.4031824   5.4936573  39.1815767  61.8371588   6.2344247
  38.9231027  61.8448507   4.7515207  46.9904081  55.3245652  11.4050038
  47.5703288  55.5016869  12.1751842  47.4458935  54.5351980  11.0581843
  33.2146049  -2.0124530  58.9800007  33.5972715  -1.9766165  59.8781068
  33.7753999  -1.3151239  58.6017795  53.1104415  37.1180249   1.5009654
  52.2450034  36.6378692   1.4889151  52.9357352  37.8190616   2.1164057
  63.8497046  70.9989421  53.1288052  62.9268175  71.3674564  53.1663919
  63.8494165  70.4538359  52.3568522  53.8992951  31.1926830  13.0680985
  54.7342213  31.0483620  13.4797275  53.3676080  31.5621399  13.7690577
  58.4562561  38.2439215   9.2580775  58.7362249  38.0612569   8.3563818
  57.5027763  38.0527309   9.2135518  33.7939747  -4.2366099  52.7507782
  33.0189014  -3.7860817  52.4824907  34.4317040  -3.9671044  52.0757597
  42.7100714  43.9727116  -2.5160439  41.7759767  43.9556003  -2.5506275
  43.0015475  43.3012334  -3.1710551  64.2009299  62.7708068  58.6034591
  64.8768392  62.2529465  59.0770664  64.6886826  63.5639434  58.3041644
  62.0408465  67.5334683  59.7245720  61.7937734  66.8199545  59.0296592
  61.4042740  68.2296054  59.4461423  54.8491804  41.3417710   5.6090455
  54.6777919  40.3995895   5.7696875  55.7669104  41.3658914   5.3220990
  66.6767039  68.9676713  57.8948119  65.9302038  69.1586536  58.5386822
  66.3106275  69.4291665  57.1065443  27.3929522  -0.5550243  52.8740133
  26.4688151  -0.4191911  52.7277856  27.4216471  -1.5877656  52.8881369
  63.9599901  24.7987136   3.6790363  64.3345979  25.0063779   4.5667020
  63.1283033  24.3687375   3.8984064   7.2979432  65.3588190  60.7733006
   7.5217306  65.1943162  59.8225775   6.3359501  65.4592216  60.6934856
  39.8603361  34.3140495   5.3698665  39.3426959  34.9402882   4.7991140
  40.0226086  33.5829275   4.7582829  46.6945474  31.3139048   5.2949316
  46.8767435  31.6179059   6.2265478  46.9075028  32.1786375   4.8030242
  38.2370856  -0.7496839  55.8391957  38.4885065  -0.9616823  56.7266869
  37.2416200  -0.6643229  55.9778715  55.0514030  32.6574937  -3.4783852
  54.9589174  31.6787459  -3.5824379  55.6781968  32.6278244  -2.6990431
  56.4191839  25.9658952   6.2363561  55.7566620  26.6279798   6.0006958
  55.8641469  25.3057514   6.7260172  56.5966255  21.6406008   5.0405567
  56.0807542  20.9219291   4.6247160  55.8956605  22.3031269   5.1349744
  61.2191043  75.8891564  45.3013428  61.9885488  75.2715179  45.3154173
  61.6438991  76.6043607  45.8421774  53.7748565  28.2658678  -1.9798059
  53.1131887  27.7192111  -2.4229553  54.3171114  27.5689498  -1.5065272
  24.0465694  -0.5455627  53.9758817  24.7481824  -0.0704170  54.4407629
  24.1341521  -0.1676599  53.0907725  43.6439156  12.1357265  54.7580104
  42.8778251  11.9212029  54.2038709  43.2869604  12.0212294  55.6357361
  36.6101712  41.4060942  -7.4703093  35.7216967  41.3974263  -7.0852942
  36.3623020  41.0810211  -8.3580835   1.6779657  64.0732100  56.7398027
   1.2262221  63.9933096  55.9380893   2.0132251  64.9912709  56.7524833
  22.0426297  -1.4026717  51.1370915  22.0214759  -0.4778228  51.4484789
  21.5868978  -1.3075174  50.3143920  25.4374530   7.2897997  49.0639781
  26.0786224   6.6134577  49.3733966  26.0188216   7.8589118  48.5314329
  18.6890238   5.2133867  54.4316816  18.1137897   4.4532512  54.6559996
  19.2466754   5.2610984  55.2350563  53.0161568  33.6369507  -5.0096414
  53.7254850  33.2245886  -4.5291589  52.2586784  33.0446100  -4.7490701
  53.0739226  33.4014045   1.0602818  54.0041048  33.6470103   0.9102871
  52.9561235  32.6272331   0.5839019  46.6556259  50.1113142   2.4078558
  46.7691877  49.9782572   1.4092746  47.4206246  49.5426640   2.7382499
  50.4251687  30.1979562   0.1839599  51.3931722  30.1193179  -0.0445802
  50.3040333  31.0830850  -0.1881819  57.2219114  28.9477813  -4.3511224
  56.8882469  28.2856595  -4.9754294  56.4414910  29.3439460  -4.0294301
  16.9606222  59.1003195  29.6027258  16.2283221  58.8116567  29.0518462
  17.2137548  58.2011139  29.9472681  31.6559248  -1.3237724  28.9181391
  32.1643966  -2.1046979  29.2350245  32.2254027  -0.9869184  28.1878011
  72.8527889  57.1767608  20.7132130  72.2498722  57.9295861  20.8741674
  72.9267837  56.8173501  21.6213940  11.4333447  50.2058166  27.5748269
  11.9294339  49.4107472  27.5431960  10.4954183  49.8609217  27.6489174
  12.3782823  57.7289558  22.5807654  11.5456079  58.1259058  22.9150565
  12.9935806  58.5236769  22.6941657  62.3312478  32.0264584  77.2189475
  62.5538712  31.8633492  78.1347136  62.3063363  33.0317734  77.2880126
   6.1986870  66.4653039  38.2207214   6.2099766  66.4041863  39.2321649
   6.9115796  67.1627215  38.1639179  35.0861541  -2.0110273  31.1193011
  34.2075861  -1.6075738  31.1280255  35.6666951  -1.1927393  31.1159680
  75.2771727  57.1017877  28.6946441  76.0452773  56.9520586  29.3034684
  75.1052868  56.1361845  28.4425641  77.4576443  56.7740951  34.2446133
  77.5044039  57.0157871  35.2264878  76.4805002  56.9582256  34.1009906
   7.4763294  51.9129133  28.3207364   8.1113115  52.2252473  28.9645341
   6.7370408  51.5728709  28.8796784  53.2806215  37.3951553  76.5848404
  53.8726673  37.3280665  75.7917285  52.9336014  36.4520486  76.6348243
  14.4170307  65.4151652  30.1575144  13.5016659  65.5886784  30.4843649
  14.7099485  64.7374644  30.8494715  15.9789350  58.9266966  24.5503299
  15.4102044  59.2324946  23.7961309  15.2727561  58.4400477  25.0168748
  45.9092080   3.6138832  27.8149602  45.9853962   3.7762234  28.7436706
  45.1837069   4.2382239  27.5739970  22.8225463  67.9427763  45.6165291
  22.0805012  68.0931633  46.3044544  22.4475673  67.1358159  45.2302776
  36.6963721   0.0556382  30.5989842  37.6676882   0.2439467  30.3353776
  36.6890925   0.5692257  31.4252718   4.1918286  60.0729430  25.0701304
   4.4871432  59.7477014  24.2286294   3.3767907  60.5566351  24.8691764
  35.6462889  -3.7338048  19.5085280  34.8989320  -4.0819523  18.9875430
  35.1238997  -3.2207361  20.1885605  11.6116030  54.5038944  22.3746705
  11.3401728  53.7390475  21.8399238  12.2566318  54.9021693  21.6993873
   6.3100107  65.9080244  27.0819925   6.5786450  66.2207935  26.1842534
   5.7654459  65.0930526  26.7488512  30.6349046  -4.4756320  29.9903223
  30.7556595  -5.4285588  29.6492534  31.3598139  -4.5356514  30.7129821
  11.3455512  66.6190759  29.5194228  11.1412608  66.2565340  30.4459151
  10.5701885  66.2026581  29.0570124  15.7948404  71.8653279  18.3248903
  15.0739097  71.2982053  18.0033742  16.2350855  71.2494397  18.9349969
  38.7181773  -2.5761681  15.7239643  38.5986993  -2.4918872  16.7516452
  38.7661163  -1.6594838  15.4789570  19.1101194   6.1247344  19.3697358
  19.8141032   5.9494708  18.6916521  18.3680587   6.3001978  18.7518412
  31.3979698  -3.4906427  21.3007751  31.2186260  -2.5474194  21.6557914
  30.7044319  -3.6445451  20.6534892  14.5594635  63.2010442  28.3965802
  14.7817680  63.8999613  29.0607213  14.0681386  63.7957583  27.7529577
  16.7007694  65.6204218  28.6964300  15.7673022  65.6339306  28.9754283
  17.1757126  65.3992197  29.5401360  43.2588849   3.5207615  25.6631652
  42.7923846   3.0800796  24.9374873  43.9624576   3.9982925  25.1581058
  47.2224754  32.3117569  79.0830399  47.0518041  31.4463236  79.5590028
  47.2452830  32.8497982  79.9403973   9.2377750  42.4763439  19.9091130
   8.4249373  42.4755865  20.4050480   9.1144111  41.6823287  19.2910073
  74.8513466  41.4385561  10.8589051  75.6895086  41.2164561  10.3747075
  75.0989109  41.2085431  11.7450826   7.5364027  34.0371862  20.8241906
   7.2465341  33.5880752  20.0147177   7.8287277  33.2634460  21.3530268
   5.4336688  45.5093499  30.0367458   6.1122199  45.3847995  30.6941578
   4.6369308  45.2606963  30.5395511  13.7238800  58.6477883  16.3311004
  13.8044797  59.2899276  15.6257875  12.7550272  58.5770444  16.4591574
  12.8316603  46.3778578  11.4704777  13.0280481  45.5044317  11.8659768
  13.2272520  47.0314341  12.0420680  15.6071574  61.8990598  20.8510273
  15.7347693  62.4369277  20.0519503  16.0336040  62.4673782  21.5228167
   4.6013351  40.8918730  15.1823713   5.3113591  41.5623429  15.3801222
   3.8475322  41.3899594  15.5537907   6.3937885  47.2136126  20.6528819
   5.8613327  47.8592788  20.1640495   5.6956329  46.5687368  20.8872295
  77.7610822  37.3390270  17.3464712  77.4023562  37.2033898  18.2112757
  78.3604949  36.5288081  17.2611038   9.2315060  47.2979683  17.7394446
   9.8412765  47.2098468  16.9608552   8.4819448  46.7854161  17.3902867
  10.4033331  40.3504784  23.0514800   9.9671673  40.9250737  23.7206958
  10.5602989  41.0194031  22.3292004  15.5083819  35.8914406  14.6960572
  14.6001185  36.2124379  14.4803129  15.4400176  35.8408202  15.6473156
   7.0668350  43.8181585   7.6705512   6.9620106  43.0163197   7.1585372
   8.1057028  43.8824352   7.6524926  54.3756856  19.5122762  76.4489926
  53.5341891  19.7010315  76.0322722  54.2127638  19.5891859  77.4096925
  18.9280941  56.8581924  25.7165600  19.6230753  57.2035890  26.3463112
  19.5643931  56.2898898  25.1961229  75.8797428  53.3872852  20.8653478
  76.2673920  53.9278782  21.5678915  74.8683100  53.4807572  21.1119634
  77.3350919  57.8807190  30.6552154  77.3619526  57.0554059  31.1881754
  76.9626857  58.5155486  31.3420640  76.9637163  57.0283211  17.2839200
  77.2028053  56.1427120  17.6194091  76.4906749  57.4193282  18.0307959
   8.8751823  53.2984559  22.7596873   8.6777545  52.3395992  22.5833614
   9.0113292  53.2760482  23.7377095  22.5556941  51.7485649  19.4096687
  22.3186191  52.6899966  19.1003050  21.8939158  51.6645722  20.1228976
  17.9839445  42.9518069  23.3542746  17.8349741  43.9398657  23.3618836
  18.9575894  42.9527818  23.4440720   8.9323611  69.9012246  23.1161417
   8.8577438  69.0575774  22.5981962   8.3857442  70.4902187  22.5507716
  16.9727837  45.5100696  22.8211298  16.8618636  46.2575783  22.2387083
  16.0937930  45.1125697  22.8963692  26.2402405  50.0428068  14.2975021
  26.8639086  50.0042778  15.0517678  26.2238837  51.0010846  14.1379956
  13.0816833  40.1725082  18.4679171  12.0928905  39.9173339  18.4161863
  13.0580474  40.5005665  19.4125221  76.9506617  54.6418036  18.7165055
  76.1885560  54.3272155  19.2244843  77.5526052  53.8957475  18.8465104
  21.1918727  59.2850403  18.5644290  20.8875451  59.2851580  17.6163856
  22.1673155  59.4193001  18.4190708  23.9901257  59.0278042  29.5827551
  24.3528282  59.8583302  29.8687267  23.1220527  59.3642975  29.1882136
  50.9628305  20.9305006  79.2066955  51.9419566  20.6217177  79.2140419
  50.6524257  20.5753090  79.9998122  15.4210063  50.6997853  13.0810954
  14.8033881  51.3988527  12.7709759  15.6063587  50.9849263  13.9939848
  21.3602019  50.5269670  16.2741510  20.9664731  50.7030410  15.4464664
  22.3087376  50.4461816  16.0638169   1.6465440  57.4074195  23.0929538
   0.7756237  57.9217170  23.2265188   1.8492297  57.3680950  24.0817928
   6.6933797  50.3973917  17.5618158   6.2646732  50.1652161  18.4552412
   6.2355627  49.6913367  17.0289261   8.6867075  59.2575022  15.6849187
   8.8760049  60.1246035  15.2590280   7.8095762  59.5050984  16.1131863
  73.4493816  53.7828806  21.7846767  73.2247822  54.6316677  22.2771263
  72.5439528  53.4732203  21.6380376  30.1507403  53.2101700   4.9973093
  29.7816315  52.7931991   4.1863118  29.5070482  52.8449049   5.6466942
  78.6632152  53.8743657  26.4890183  77.7715117  53.8994633  26.9304151
  79.1639329  54.5468210  26.9975816   6.7216950  56.1380844  23.3860491
   7.6884775  55.9803448  23.4573696   6.7398482  57.0023268  22.8911346
  22.1384365  65.7142620  17.9837303  23.0640465  65.4345598  18.1831034
  22.2879933  66.6436512  17.7578050   6.8627707  68.6080998  21.1513326
   6.1484546  68.2761975  21.7445091   6.4807881  69.4515476  20.8672303
  12.8826008  24.9885932  18.6490547  12.5763339  25.8780093  18.3447806
  13.7155785  25.2629570  19.1615402  10.6638865  47.6227065  15.3092557
  11.2428392  46.8617438  15.0844671  10.2399033  47.7775340  14.4498077
  11.6531932  38.0144820  26.7854812  10.7932415  37.9220353  26.3248325
  12.1506108  37.3011983  26.3436058  16.7531196  40.6000719  12.2033764
  17.4129570  40.4127730  12.8752688  17.1902700  40.2158720  11.3971725
  13.0120692  53.0161094  17.1510459  13.8995945  53.4539167  17.1345993
  13.3275792  52.0912994  17.0233379  26.6991100  57.0460667  10.0914803
  27.0887795  56.5927216  10.8718463  26.7628371  57.9968287  10.3824806
   6.5784677  51.9782682  14.2440740   7.3600663  51.9342507  14.8514975
   6.7669203  52.7158777  13.7230744  14.1666557  56.2065603  20.8879919
  13.7549985  56.8141540  21.5228997  14.4073871  56.7764979  20.1167050
  17.7422745  56.9825900  21.7460495  17.2962831  57.8102031  21.5403782
  17.0163506  56.3377582  21.6187855   8.3160135  39.9051093  18.3922563
   7.6606984  39.8292776  17.6492452   7.7207388  39.6022226  19.1112568
  17.8080392  53.3510220  27.3670383  17.7939553  53.9768359  28.0968134
  17.7604762  53.9417152  26.6073857  22.9199149  48.7594967  10.1696810
  21.9501025  48.6083394  10.2707973  22.9553678  49.7352030  10.2827797
  19.9872686  39.2639740   8.4691261  19.6147937  38.6310574   7.8060357
  20.9425498  39.2046733   8.2040476   1.8361996  53.5173358  20.7153730
   2.4806296  53.3246295  21.4665976   1.0583340  53.1121525  21.1497953
  17.0169606  56.6792429  27.7258334  17.6869998  56.8412013  26.9345002
  16.3769833  57.3706543  27.5740470   2.9145145  51.6022404  31.1812266
   3.5260172  51.2696823  31.8836295   3.2728170  52.4118116  30.8476657
  25.4279081  56.8791237  29.2022994  24.9031228  57.5926673  29.6394521
  26.0700427  57.4967696  28.7439960   5.1243885  45.4360849  32.9868791
   4.7547758  44.6798981  32.4949780   6.0266224  45.0354658  33.1931713
  69.4203561  54.7580889  22.5801087  68.4690302  54.8167813  22.4506162
  69.4947025  54.8958971  23.5450962  33.4906723   4.9625430  17.4747517
  33.3968442   5.1952662  18.4275094  34.4114107   4.6339369  17.4873654
  18.9342386  62.8790648  23.7351731  19.4473186  62.7518728  24.5510557
  19.4873100  63.5323130  23.2343082   1.6944364  48.1161930  11.4954873
   1.9391429  49.0648358  11.3084473   2.6194414  47.7350260  11.3671024
  16.1522806  57.8329763  14.0812743  16.7067856  57.6207810  13.2785308
  15.5950811  57.0534971  14.1243431   9.8781710  55.5511363  29.0709087
  10.7396904  55.9995913  29.0007163   9.8088274  55.1273659  28.2344304
   1.2455946  49.3763101  22.5560308   1.8224159  49.9118045  23.1296672
   0.9260446  48.6813501  23.1885371  19.3371575  54.6117120  12.7233723
  18.4537184  54.4909588  13.1181644  19.1256118  54.4393119  11.7725812
  14.0833851  36.9899218  21.0090751  13.9318760  37.5756442  20.2776003
  13.8321361  36.1257500  20.5904109  11.2213486  49.7366934  16.9288412
  10.9077559  48.9261679  16.4481432  10.6801291  49.5853897  17.7668999
  10.3168934  59.0729333  23.7210794  10.2330329  59.3576411  24.6272883
  10.1150075  59.9631726  23.2346016  19.6560414  67.0483129  28.0757816
  19.6039729  68.0187700  28.1810067  19.5445197  66.8274260  29.0580296
  55.9756522  27.7372564  77.5953077  55.1704884  27.2819266  77.9716781
  55.6904206  27.7722117  76.6403621   4.2430055  51.6539610  11.4404027
   4.9136835  51.3688377  10.8435456   3.3987519  51.4898575  11.1098615
   6.8614036  41.8980887  15.8399202   7.3867791  42.7334734  15.6631080
   7.4423792  41.2496475  15.3064043   1.9488660  39.9973966  27.8760966
   2.4482747  39.6206799  27.0699464   1.1908390  39.3524864  27.8791235
  15.9149893  60.5515015  17.3935682  16.7054796  60.5214189  16.9198401
  15.3595573  59.9085718  16.9562003   2.6173491  49.9120530  19.9019271
   2.3109845  49.0039079  20.1322449   2.1221276  50.4264739  20.5696862
  76.4104103  49.2067882  24.9958280  75.7847036  49.2266995  24.2111460
  76.1197147  50.0717022  25.3930130  11.9930339  59.1660898  11.5828773
  12.9394888  59.2293194  11.4040595  11.6581462  59.4615491  10.7137728
  11.7681902  65.0610886  32.5837891  11.2860100  65.0618168  33.4614765
  11.1408724  64.5681895  32.0182872  76.3228237  61.8582445  33.6450542
  77.2804829  61.8883717  33.8412528  75.9490067  62.2447199  34.4755808
  24.8095798  51.1997090  17.9326166  25.4972849  51.8995513  18.0594039
  24.0955170  51.5018678  18.5278957  30.0722464  -4.8419497  26.5825819
  30.2753906  -4.8011883  25.6498265  30.7161404  -5.5089023  26.8996478
  20.3140841  56.0944849  29.7041147  20.5211136  56.6488304  30.4595830
  20.1784909  56.7830261  29.0104083  53.8263442  22.6808395  79.2102984
  53.0932579  22.9914287  78.6916613  53.8330688  23.2576786  80.0104536
   2.0768888  59.4988727  37.6899459   2.8194885  60.0316764  37.8757928
   1.3236539  60.0753152  37.6286999  63.3949861  26.4960888  71.6433115
  64.3300960  26.7320169  71.6690092  62.9675646  27.3215326  71.4596554
  11.4871012  54.6290233  11.4803753  11.6428063  54.5379190  12.4618243
  11.5016913  53.7239754  11.2115632   6.9778245  53.9947377  20.9565624
   7.5665747  53.9280484  21.7429624   6.2510353  53.3402947  21.2359072
  10.3837477  44.3626339  23.0973927   9.4337672  44.2250136  23.2865110
  10.6609478  44.8610515  23.9463098  23.9717666  56.9907414  14.2415920
  23.7383873  56.6363449  13.3694521  23.9247982  56.1508767  14.7802098
  17.9743904  48.2553721  17.1434755  16.9812725  48.1008300  17.0393503
  18.3411862  47.4825220  16.8101419  19.8821011  57.2352155   7.9928704
  19.9328978  57.1318565   7.0735607  19.8997898  58.2282050   8.1516357
  18.3503376  42.8330218  15.0145619  17.5427274  42.5948575  14.5465355
  19.0431259  42.7625265  14.3475464  17.3111788  48.3954880  25.5682608
  18.2718427  48.5499906  25.6098973  16.9397639  49.1428157  26.1061832
  14.3760068  48.1516853  13.0892410  14.8962458  48.9798036  13.1177419
  14.4664264  47.8146256  13.9501705  15.7843538  64.7458893  13.4690119
  16.1884269  65.6594662  13.6414384  15.5619032  64.8795441  12.5178018
   6.6559712  46.7523499  27.2960042   6.9524498  46.0046869  27.8704001
   5.6541923  46.5953885  27.3710330  14.6682684  63.5513288  15.6642312
  13.9002386  64.1486856  15.4210390  15.3065403  64.0259433  15.0730425
  10.2017338  44.0589407  13.7810749   9.6533191  43.3310940  13.3880838
  10.1822198  44.6366452  12.9906291   7.2471894  58.1403191  21.7710644
   8.1749703  58.2918295  21.5608052   6.8817857  57.7508306  20.9336956
   9.9685732  65.7674955  15.3284692   9.1293415  65.4790024  15.7072213
   9.7042725  65.4793878  14.3421574  64.8852640  54.2573062  10.6035789
  63.8531407  54.1235164  10.4018871  65.0868303  53.3225675  10.4246838
  48.1649681  31.0335456  84.0453717  48.1735315  30.0980728  84.2601379
  48.7738047  31.0072136  83.1980027   5.3783165  49.6200450  19.7971078
   5.6887682  50.0551318  20.6172111   4.4422390  49.9279842  19.7778088
  19.7829688  59.9390030   8.8695421  19.7494906  60.6091839   9.5289304
  19.0786182  60.2085855   8.2392178  19.2197432  47.8582251  13.3994884
  20.2361935  48.0620058  13.2776592  18.8833492  48.6604847  13.1106903
  25.4175320  45.2031864  16.0057656  25.3983822  45.2747071  15.0490341
  25.3757862  46.1413842  16.3105970  23.3777446  60.7292578   6.9728999
  23.2551299  60.8924823   7.9648706  24.1795394  60.1488565   7.0126832
   6.5969283  61.1609062  25.4794555   5.7505712  60.6093004  25.4028141
   6.5124748  61.6846291  24.6638407   8.7230652  51.8472847  15.8773902
   9.4559598  52.1542990  16.4849251   8.1808446  51.2908345  16.4737993
  17.5556224  65.3008634  32.4685473  17.9881927  64.4168315  32.3561842
  16.6443833  65.0355069  32.2434330  27.2810199   0.3952045  24.3897791
  27.3468670   1.3358284  24.2932074  28.0364179   0.1860708  24.8993066
  39.5877403   2.2170452  33.9909394  40.2011396   3.0265187  34.2512516
  38.9025662   2.7416679  33.5342531  32.0488183  -4.9789364  23.6225801
  31.6110161  -4.4911980  22.9390414  32.3801626  -4.2737465  24.2292691
  17.6320248  73.4595714  14.2607404  18.2142316  72.7080402  14.3510967
  17.4088930  73.7047766  15.1737626  31.4462654  67.1013902  21.0668371
  31.2415421  66.2687823  20.5566028  31.8966679  66.6911295  21.8883348
  16.1743999  67.8529596  17.6698982  15.9824940  67.6660943  16.7200123
  15.4788419  67.3125265  18.0684149  36.1240270  72.8148532  23.0259759
  36.7667756  72.0456192  22.9376838  35.3725245  72.3244617  22.5178724
  54.1293194   3.3046205  39.2637409  53.7965739   2.8587745  40.0677780
  55.0390015   3.5178599  39.4957601  30.7275301  61.5973512  10.1201782
  31.2710079  60.7729626  10.1000865  31.3933161  62.1221994  10.6597504
  13.4372486  67.4886995  26.6226307  13.5512316  67.6962900  27.5765944
  12.4451953  67.3927195  26.5719625  22.7803225  74.9003681  33.3658757
  22.7409943  73.8978650  33.2139697  22.1948428  74.9657002  34.0982382
  37.4235252  -1.9490325  18.0578268  36.6640178  -2.4852219  18.2773696
  37.9593223  -2.0680756  18.8934350  48.6770243   5.2487798  17.7380405
  48.6687002   6.1350337  18.1848376  49.3152689   5.5333687  16.9761916
  71.2349325  35.4024147  69.7109260  70.8129988  34.5819071  69.4250218
  71.7625262  35.0822930  70.5044597  17.8698110  70.9065427  31.5933917
  18.6140017  70.5065349  31.0259983  18.2141077  70.6948935  32.4728995
  24.8594422  65.5896239  24.3194510  25.1643312  64.6658942  24.2001047
  25.2591088  65.9643269  23.5038379  28.7150767  65.1112882  21.0931799
  29.6068780  65.2013113  20.7082409  28.9261363  64.3938081  21.7429271
   9.1039363  59.6606638  26.1587755   8.7397781  58.7610524  26.0260557
   8.2955443  60.1785550  25.9889954  45.0518026   2.3057260  18.1068586
  45.7828532   1.9892004  18.6482179  45.2806509   1.9700069  17.2263639
  29.6307664  71.2976965  10.4626602  30.4281294  71.5026054   9.9604251
  29.2708829  70.5239482   9.9516666  19.5959496  60.9068498  34.5185658
  20.1084778  60.7593279  35.3637365  19.3854635  59.9435561  34.3047771
  21.6719965  69.0423187  38.9225344  21.4145498  68.9801171  37.9548307
  20.9337572  68.4978295  39.3046694  32.9876910  -3.3338570  25.4313335
  32.7237911  -2.4845029  25.8869717  33.8833768  -3.4515724  25.8158780
  13.8882586  65.5402566  22.4833813  13.7772425  66.5055255  22.5556576
  14.4284211  65.3610932  23.2689903  20.4915396  56.7569549   4.1574125
  19.8430054  57.3753147   4.6108019  21.3210840  57.0733096   4.4415047
  17.2953422  65.7676547  26.0469210  18.1033869  65.6499827  25.5091698
  17.5952977  65.6240994  26.9520954  24.9899782  56.9746644  17.0581256
  24.8824097  57.4298328  17.9340173  24.0619348  57.0778718  16.7593862
  17.3702790  70.4897440  16.4466904  16.4679055  70.6262174  16.1386648
  17.3864571  70.9955311  17.2674233  33.5951240  66.0475499  11.4038370
  33.1340830  65.1602801  11.2923945  32.8657393  66.6228237  11.2588374
  67.1034905  17.8012029  64.6365433  66.5036650  17.6087150  63.9541810
  67.7122941  17.0467924  64.6674230  20.4699837  62.3200110  26.0110332
  21.2593603  62.8714094  25.7054433  20.1809180  62.8668494  26.7460689
  18.7155805  68.0305974  16.1718446  18.6112599  67.9194131  15.2288252
  17.9543757  68.5216844  16.4488101  70.5393494  24.0382530  66.1975428
  71.4772191  24.1145781  65.8105138  70.4424001  23.0753439  65.9789201
  14.9777205  61.6274139  34.2004428  15.6483133  60.9917529  34.5565314
  14.5779632  60.9397113  33.5741187  29.7231165  72.0750486  24.2587978
  29.2952021  72.3141547  23.4054508  29.9063782  72.9526158  24.6263423
  57.5335238  30.5680207  83.1047318  57.0502382  30.1576069  82.3349863
  56.8981122  30.4855204  83.7944208  55.3879738   8.1453860  17.7836019
  55.7396968   8.7992187  17.1563065  54.4468263   8.1709419  17.5166084
  56.7900500  20.4728074  76.9889065  55.9652747  19.9055476  76.8481094
  56.8996023  20.3729308  77.9432701  42.2137959  75.8870899  25.2425612
  42.7406029  75.5922565  24.4965655  42.6104851  75.3804531  25.9788233
  16.5048200  68.5356143  27.8962818  16.6922815  67.5710311  27.9324559
  15.6006819  68.5495454  28.3199019  19.6841986  72.5721976  22.8022045
  20.5623873  72.8015642  22.4421222  19.8073334  72.6061457  23.7407125
  42.4150888   2.7343799  17.9165986  43.4133102   2.6498663  18.0785980
  42.2101854   3.0400553  18.8452302   4.8246666  60.9038530  22.0327882
   3.9482102  61.2514736  22.3767993   4.6395530  59.9197505  22.1105058
  52.7237748  35.8282880  83.4225094  52.6049250  36.7661733  83.3460361
  52.7067734  35.7129161  84.4191870  17.7408832  73.2381462  28.8310509
  16.8991773  72.7588447  29.0174112  17.8405771  73.7745567  29.6268081
  47.0126441  16.9677418  15.6466785  46.2036431  16.9860248  16.1887088
  46.8480438  16.1051899  15.1511670  20.0396846  63.9691622  19.9617524
  20.1860061  64.5708157  20.7020150  20.1400785  63.1093305  20.4203088
  47.0562680   1.2292061  20.0464118  47.1567309   0.2346034  19.9761321
  47.9634039   1.5254586  19.9422487  21.7027454  71.8899026  11.4766749
  20.8270553  72.0688838  11.0715136  22.3032298  72.0176500  10.7127868
  21.7052041  68.0944538  16.1530174  20.9278702  68.4709381  15.7377175
  22.0583261  67.5255294  15.5007415  27.5793561  62.6837570  20.0729773
  26.9158328  62.4430142  20.7255842  27.8507677  63.6368043  20.3688071
  14.6731182  70.2393228  16.0420677  14.1967263  69.4991589  16.4468173
  13.8781068  70.7775764  15.7049253  18.4642223  70.3250834  34.4215770
  18.8767363  71.1854313  34.1218791  19.0562348  70.0443968  35.1104836
  11.1303419  63.2047209  18.3328605  10.1656807  63.0952048  18.0781055
  11.4637361  62.7086715  17.5516973  59.6041581  32.3157805  82.5016865
  58.6785590  32.6013853  82.2770716  59.8191520  31.8807291  81.6587369
  15.8846795  68.2640051  21.8034649  14.9474873  68.3772746  22.0798756
  16.3778746  68.4426480  22.6392571  15.7410423  67.7214308  24.7484538
  14.9329160  67.4838830  25.2663755  16.3847530  67.1767779  25.3178164
  13.3716422  60.4160605  29.2188845  13.6804357  61.2585381  28.8509762
  12.5261601  60.2780078  28.7630239  11.7354243  58.0281470  30.3433991
  10.7764782  58.1718498  30.5021711  12.0822319  58.8852009  30.6956877
  22.2234088  56.9559746  34.2288843  21.7789533  56.0558492  34.3219872
  22.7385875  56.8603613  35.0681512  23.8590404  63.3754091   6.3168077
  23.7105785  62.4183720   6.3643416  23.2930027  63.6269845   7.1043305
  27.7178080  69.6346951  24.0456292  28.4660315  69.1333315  23.6732138
  28.1247327  70.5616616  24.0233156  11.3381203  62.0827283  34.2747181
  10.9441645  62.9824396  34.0435326  11.5994964  62.2981219  35.1750316
  49.1861431  80.5347420  22.5258068  49.4540493  79.5923079  22.7173568
  49.4719680  80.9401196  23.4097129  41.6756360   0.6571381  25.5568639
  41.9408401   0.9026372  26.4528648  42.1626511  -0.2538800  25.5404030
  20.3840989  71.9952136  19.8712608  20.5150088  71.0895973  19.9897698
  19.7141204  72.2920053  20.4212920  57.5658430   6.4537877  29.4548253
  57.1978295   6.5263620  28.5171219  57.5695580   5.4891222  29.5344848
  26.5692980  65.4986725  26.5973856  26.4918466  64.5318460  26.7647568
  25.9677256  65.6172887  25.8593551  31.2971391  69.1455851  16.5009935
  31.4054418  70.0566924  16.1044923  32.0663388  68.7181469  15.9889051
  42.8773084  -0.1058730  16.7901861  42.4636777   0.6540936  17.3102985
  42.8348399  -0.7734829  17.4896854  25.6087168  54.3092060  16.5996627
  25.6338436  55.2547708  16.6677768  25.9024944  53.9570203  17.4008045
  23.7107969  59.6708577  17.9713195  24.3444244  59.2266722  18.6221003
  24.3619301  60.0542993  17.3561206  45.9524961   0.0167115  27.0300915
  46.1428994  -0.6930183  26.3918213  45.1671671  -0.3420270  27.5127967
  33.0434139  -4.3307778  31.5431999  33.5622973  -5.0202034  32.0003475
  32.8412322  -3.7062913  32.2550896  11.1783561  64.6000209  22.4426243
  10.8548703  65.0322920  23.2666375  12.1554998  64.9654053  22.4578466
  31.4056366  66.5448479  25.2288764  30.9069594  67.3493661  25.3928999
  30.6592997  65.8658484  25.3975658  28.2400111  70.0109581  14.0038988
  27.4366340  69.5474591  13.6637922  28.1876636  70.8481836  13.4953816
  40.6751040  58.6978976  12.1517770  41.5455893  59.1350390  12.2204807
  40.9589767  57.7636398  12.0368654  32.9578112  70.1550777  27.5766175
  32.4687728  69.6550313  28.2378595  32.3383744  70.8768336  27.4087840
  26.2919238  71.0140989  40.6889794  25.3220245  70.8878730  40.7383664
  26.5428406  70.2312767  40.1466555  18.7511230  62.8172648  17.1220882
  17.7907932  63.0567374  17.3601770  18.6051442  62.5930752  16.2012293
  21.4734779  53.9545293  18.3366454  21.4334213  53.6449936  17.4120930
  21.8217555  54.8660309  18.1694274  27.5174635  67.4400957  28.2413058
  27.3377404  66.6408726  27.6779484  28.0615566  66.9888158  28.9418151
  34.6004619  62.4487849   7.5541133  34.6802429  61.7513594   8.2059288
  34.3184856  63.1933374   8.1274580  22.1086033  69.4680525  26.9544377
  22.4289860  70.2277431  26.5236043  21.8331852  69.6680980  27.8432854
  25.3685245  72.6810666  22.9494908  25.4517408  71.7217757  22.6138631
  25.3187846  72.5007022  23.9119963  22.5480937  64.0258834   9.2160321
  21.7237567  63.7280861   8.7397726  22.4437315  63.5480117  10.0579628
  31.6763280  60.4567071  14.7728260  31.3635566  59.7774987  14.1488090
  31.3494880  61.2844800  14.3682935  71.6979574  34.9427054  74.7673023
  71.3659374  35.7990336  74.4155126  70.9219852  34.6354714  75.2794516
  31.9170754  70.4256601  19.2034393  31.4633938  70.0935285  18.4315719
  31.9486731  71.3558768  19.0380874  25.9503671  68.5398900  13.3829442
  25.0663867  69.0061831  13.2674383  25.6508431  67.6252152  13.2254955
  30.5317841   0.3679726  33.3523523  30.6948015   0.9870504  32.6232212
  31.3922640  -0.0320869  33.4630424  25.8216971  51.7666765   8.5138390
  25.0387521  51.4656167   8.0973948  26.0505372  50.9549956   9.0252852
  10.2178124  70.7520922  32.8983534   9.8213682  69.9292317  32.6216316
   9.6829835  71.4670495  32.5732368  46.3318817   8.2157082  24.6683282
  46.5183224   7.3116359  25.0501478  45.3761041   8.1779660  24.6282149
  28.7224014  68.1648657  16.2101644  28.3511024  68.6873659  15.5065725
  29.6946798  68.3430243  16.1318506  60.0700701  34.2267024  80.0349452
  59.5954452  33.4923728  79.7095691  60.9119187  34.2326435  79.4791746
  25.4261026  69.9473482  22.5074587  24.9297624  69.3114869  22.9263159
  26.3486952  69.6790831  22.5919746  28.1989389  76.2810706  20.2532467
  27.4885107  76.1501832  20.9250010  27.9332779  75.6100752  19.5817634
  26.0615047  74.9990423  13.2449507  25.7469561  75.7290297  13.7863749
  25.2516241  74.4384071  13.2923565  47.3809439   4.5288057  19.8848076
  47.8099242   4.7368620  18.9830752  48.2025260   4.5122983  20.4118333
  39.5497376   6.6780281  12.9225701  38.9584617   5.9719488  13.1749512
  39.9381332   6.9338154  13.7608286  55.0805477   4.3004369  26.7241447
  55.0691300   5.1031551  27.2636262  54.4861497   3.7347619  27.2632091
  58.7610021   5.2146827  22.3370658  58.3094088   4.5326241  21.7890618
  59.5733081   4.6977457  22.5434566  15.5295891  42.2956553  78.3094512
  16.4037559  42.4283605  78.7191210  14.9150277  42.6081547  79.0050839
  35.4587470   2.9028503  18.3897539  34.7848018   2.2299921  18.6021539
  36.2539148   2.2695490  18.2987071  28.9265572  71.6627703  18.9664545
  29.6657150  72.2357234  18.7442549  28.5410583  71.4275350  18.1128843
   6.9208492  36.2538901  66.7861505   6.5452648  35.5989971  66.1284034
   6.0536711  36.5247193  67.1608550  57.2607234   8.9428441  24.8927548
  57.9279650   9.5865627  25.2111758  57.3236003   9.0008456  23.9375312
  28.7716018  74.6644588  12.7855120  28.8603641  75.6403821  13.0343559
  27.7922460  74.5712377  12.9988788  24.8260178  65.0624080  18.9219646
  25.4454356  65.8390356  18.9500244  25.3738915  64.3796683  18.5085150
  16.2779079  32.7960925   9.7707835  16.1838550  33.2655387  10.6579935
  17.2534980  32.6499645   9.8097634  11.2265814  33.9639278  18.4097449
  10.8502241  33.4687426  17.6767206  11.1295274  34.8842947  18.0481104
   4.8434375  30.8334062  12.1665369   5.4107611  30.6620257  11.4268747
   4.8473113  31.8391873  12.1803005  12.3342623  40.1939514   3.7990097
  13.0822801  40.6294447   3.2742046  11.7902419  41.0239508   3.8229808
   9.8549614  39.5150461  12.0103298   9.2679226  39.9613936  11.3551222
  10.5064261  40.2295706  12.1191170  11.0979563  36.4491675  17.0245481
  10.9901281  37.3871122  17.3528463  11.0190174  36.5822375  16.0477438
  40.2311567  75.0117280  62.9954324  40.5944463  75.8568100  62.6165573
  39.6970666  75.3718993  63.7350166   8.8504271  27.6587666  15.3827514
   9.0959713  26.7403826  15.2920973   8.5511441  27.8937564  14.5130876
   6.9161086  41.4324231   5.7377819   7.6246539  40.7207658   5.4992437
   7.1941117  42.0888400   5.0235435   3.8304929  41.8843757  12.7761491
   2.9137829  41.6936291  13.0488294   4.2924360  41.3051824  13.4575520
  21.5932967  42.9892775  10.9613254  22.3618145  42.5100255  11.3398433
  21.5978679  42.5581564  10.0758439  16.8687961  33.2015197  22.3148723
  16.8531016  34.1374276  22.4371787  17.4137049  33.0204301  21.5603838
  18.9717881  32.7873502  10.4137624  18.8540010  33.5497568  11.0137022
  19.9078272  32.6963141  10.3244218  22.3637103  32.9656390  14.4703241
  21.9764746  33.8738552  14.4597036  22.9626107  33.1008987  15.2564781
   5.3313480  38.2420139  15.4840692   5.0613590  39.2209466  15.5540783
   5.5110518  38.2277499  14.5574949  29.0417234  46.5763132  -0.3865404
  30.0200715  46.5291101  -0.4916440  28.9680078  46.2334326   0.5551002
  27.6709699  47.3901836   6.1732855  27.4748483  48.3457816   6.0069328
  28.2566843  47.2137835   5.3865516  44.7455189  74.1707390  52.0966769
  44.8130632  73.5834965  51.3052201  44.7468796  73.5528330  52.8099276
  17.3740584  57.0296040  11.5798119  16.8359989  56.1773114  11.4803553
  18.2025632  56.7192911  11.1085529  18.3462294  50.5552072   5.0975822
  18.0153664  49.6227733   5.1707397  17.4829301  50.9518961   5.4585448
  39.1312974  76.4788657  64.8961584  39.7080730  77.1024625  65.3742064
  38.3632015  77.0382743  64.6902420  47.9151825  74.5192902  50.2721916
  48.4251251  73.6521189  50.0684815  48.6316353  74.9083513  50.8379361
  15.2411039  41.0901840   8.1527929  15.3130706  40.3559743   7.4381945
  15.5722055  41.8494642   7.6816274  23.6120471  55.9458527   6.6771801
  23.9986058  55.8480069   7.5955742  22.6292063  55.8998907   6.9162515
  18.7872952  44.5755877   6.4351947  19.6127666  44.2208160   6.7613310
  18.4769330  45.1100359   7.1785067  15.4540025  50.4674156   6.3747088
  15.2145315  50.7509465   7.3029989  15.0717814  51.2379285   5.8828362
  49.9815135  71.1223176  64.8912970  50.2005625  70.8389580  64.0326567
  49.3219865  70.4224129  65.1778829  21.8433719  48.8693935   1.0656764
  20.9804336  49.2710867   1.2465222  21.5759271  47.9223100   1.1221164
  25.6185659  35.8510719  14.4337189  24.6558949  35.8135088  14.7288934
  25.4208389  35.2729495  13.6094920  16.0502276  56.8433603   8.2204606
  16.1782283  57.7005688   8.6936020  16.6501799  56.2772508   8.6379377
  65.3434673  15.2806691  64.4977190  64.7559089  15.5706263  63.7988000
  66.0712494  14.8330174  63.9113356  26.3340845  58.6093303   2.1047427
  25.7451499  59.0548225   2.7579646  27.1734404  58.9038356   2.4764600
  17.6949001  48.2699664  10.7959781  16.9046178  48.4512341  10.2513875
  17.3673348  47.5437460  11.3420602  18.0037877  50.4391718  12.4957380
  17.8789256  49.9142631  11.6423887  17.0746167  50.6289869  12.7120241
  12.7345008  56.4244354   7.8602174  13.0447241  56.7672704   8.7712139
  13.2872399  56.9810868   7.3565416   8.8669551  46.6304038  10.9447959
   8.9678219  47.0757647  10.0495157   8.8637219  45.7009921  10.6633834
  24.6859937  49.4459399  -3.0978481  25.3933301  50.1163711  -2.9991227
  23.9011649  50.0489087  -2.9020311  32.3662369  47.6032210   2.8787960
  32.9930276  47.1818320   3.4130151  32.7705775  48.4960321   2.7543376
  32.2498599  52.6769391   6.7422881  31.7908326  51.8734971   7.0403732
  31.6912138  53.0192283   6.0730887  11.4187553  40.4191831  34.0589521
  11.9721225  41.2401496  33.7305546  11.6167242  40.5758570  34.9785735
  14.6048110  51.7223781   9.0128704  13.8562519  51.9655893   9.6112790
  15.0427337  52.5759428   8.8751176  18.2049952  54.3989517   4.4968990
  17.6238012  53.8312804   4.9923076  17.9940951  55.3071515   4.8537931
  19.9379871  53.0616413   2.6038720  19.3553929  53.4293261   3.3195988
  19.9172625  52.1028928   2.8540381   4.7610527  32.3066335  64.7979734
   5.1925794  31.4244706  64.7964866   4.0276289  32.1549300  65.4073947
  13.0264449  47.2012831   8.9826744  12.8871861  46.7061975   9.8471355
  12.4650755  47.9584233   9.0537661  24.5820867  37.5527255   9.9255789
  24.3157330  37.8270158  10.8269308  24.3073483  36.6016684   9.9055590
  16.4955303  43.0840087   6.8780450  17.3976114  43.5311488   6.8769942
  16.0582944  43.5537912   7.5780967  23.6393444  40.7168029   1.2588744
  24.0024584  40.5406828   2.0989743  24.2823544  41.4820522   0.9264853
  13.3216791  39.4272568  13.5828796  14.1813174  38.9752517  13.6989746
  13.1965332  39.3491472  12.6436604  28.0977704  52.0087956   6.9148916
  27.5174209  51.4410695   6.3263487  27.3927797  52.1605924   7.6518424
   9.0556150  43.9561614  10.1032176   8.9471327  42.9930958   9.9650644
   9.3648414  44.1999307   9.1880543  20.2876347  48.2040162  10.3524032
  20.2929736  47.1999660  10.3071772  19.3013223  48.2623804  10.5722535
  62.0173446  74.8531409  49.4591614  61.3906674  74.5253870  50.1919659
  62.7236478  75.2286876  50.0548078  60.4007116  10.0427083  65.1490820
  60.8736496   9.3090420  65.5030190  61.0152565  10.2666227  64.4082018
  28.7553984  63.6106921   9.6882702  29.5111804  63.0820239   9.3724408
  28.8128511  63.5275964  10.6474158   7.0088883  56.8214237  12.8372353
   6.1851901  57.1810669  13.1669144   7.6796272  57.3856031  13.1738347
  65.9645651  21.0036469  70.3127449  66.0526295  21.9142347  70.6253766
  65.2946357  20.9891422  69.6594388  26.3625404  51.4742794  -1.5140116
  25.5420071  51.8032674  -1.0090553  26.9641228  51.5062423  -0.6964106
  18.4275906  34.5636838  12.1198101  18.3069497  35.5244746  11.9617794
  17.5764600  34.3411618  12.5252838  25.8633895  52.9663779  14.1895101
  25.8094391  53.1953045  15.1513774  26.7743835  53.4237916  14.0605143
  18.2291912  37.7207851   7.0796696  17.4060023  38.2593926   6.9674974
  17.8245984  36.8510108   6.7572884  19.0707180  55.6558606   9.7684374
  19.3853140  56.2009484   9.0082831  19.9487335  55.1997660   9.8559802
  17.8854639  60.5172845   6.6861814  18.7219776  60.2767293   6.2343992
  17.2347611  60.2635571   6.0067992   8.6196560  50.5127905  12.0337401
   8.8087439  51.3748687  11.5821036   8.9355182  50.7385524  12.9204553
  61.5107485   7.6080388  65.7034147  62.4915853   7.5901547  65.8641140
  61.5288890   7.1366108  64.8281025  68.5130634  23.3014598  69.2876797
  68.1594901  22.9063087  68.4492250  67.6574610  23.6767052  69.6034338
  31.7840256  49.6507120   0.5110094  31.7906772  50.4922170   1.0062471
  32.7668386  49.4861414   0.5818090  18.8557552  48.1302668   2.2894885
  19.0990934  47.1713430   2.3679436  17.8667281  47.9270521   2.2176374
  23.4412392  45.9537748   8.4237085  23.9796388  45.9244336   9.2314834
  24.0943472  45.7820010   7.7117964  15.8077330  38.4062119  14.0441575
  16.0454147  37.4911289  14.3601104  16.7022783  38.8033807  13.9672774
  44.1324935  75.1799269  61.8533681  44.8352333  74.9318538  62.4726181
  43.8829045  74.2326981  61.5329790  26.9887756  40.0117802   8.8104808
  27.5710168  39.2777479   8.7891963  27.6322510  40.7035610   8.5227999
  10.8796827  40.6262323   8.1889873  11.6209604  41.1373423   7.8889497
  10.9630683  39.8614300   7.4867129  11.3150438  69.3963627  20.9710469
  11.1260524  70.1227751  21.5592411  10.6727290  69.5155179  20.2848816
  20.1595903  51.5648656  14.0473504  19.3207553  51.3488375  13.5917042
  20.7596851  51.5349649  13.2277015  66.5415715  29.5197751  55.9779847
  65.9200505  29.4665043  55.2675045  65.9004329  29.4041392  56.7466941
   8.6565028  40.3609023  14.4384330   8.5594926  40.9351808  13.6211705
   9.6045049  40.1509145  14.3533665  19.8776190  69.3820479  11.6972505
  20.5590354  69.3530294  11.0201953  19.9329289  70.2898328  12.0487793
  65.9144991   9.4631784  63.1464552  66.4456350   8.6795776  63.5472361
  65.2926391   8.8738040  62.6308380  36.6142952  78.3459246  65.3278774
  36.4342299  79.0698192  64.7031357  36.4810186  78.7291765  66.1848709
  68.5802510   9.9673763  61.4412133  68.0844767   9.1868790  61.7916360
  67.8497017  10.6402026  61.5210546  69.8044170  12.3040478  60.9461825
  69.3880090  12.5698621  60.1006434  69.6069096  11.3021770  60.9193656
  55.8035860  23.1131932  77.1217422  56.1575043  22.1797867  77.0873918
  54.8474427  23.0151602  77.2057973  10.9502613  56.0975207  15.4015146
  11.5273363  56.6146623  16.0007457  10.2994931  55.7909382  16.0617629
  36.0297007  39.8436856   6.0055642  35.3036147  40.0759456   5.3762432
  35.7365814  39.0079508   6.3775685  32.0269400  44.1472477  12.6850558
  31.0947654  43.8395068  12.6676978  32.2453181  44.0149511  13.6731112
  20.2753198  51.6122101   6.5747761  20.3941157  50.8975487   7.2223628
  19.6675975  51.2058316   5.9557694  22.1743512  44.3926165   4.6505832
  21.2116530  44.1976831   4.5563727  22.5197355  44.1157015   3.7664592
  22.8061259  53.9071128  13.8672766  23.5034236  53.2319391  13.8745345
  22.1290189  53.4731052  14.4080527  24.7115601  47.7063441   2.2902557
  23.9191432  48.0274714   1.7684597  25.3582236  48.3603571   1.9840883
  15.5137736  48.7241762   9.2050856  15.3910357  49.5925292   9.6017050
  14.6412072  48.5690711   8.8223907  13.6863328  43.3500646  -0.2921006
  13.1860687  43.5064841   0.4853305  13.1570893  42.7805480  -0.8200436
  18.0804558  39.5305509  10.2814061  18.5523761  39.8247441   9.5156382
  18.7428128  38.9329486  10.6948981  11.7173568  38.0616620   9.9109295
  11.5137069  38.5423913   9.0869315  11.1370801  38.4611176  10.5305431
  24.5576453  44.8515940  13.5369110  24.0585912  45.3386435  12.9016472
  24.5301701  43.9573493  13.0944030  47.7187487  47.8542468   6.0507766
  46.8569927  48.2504395   6.2972888  47.8087881  47.1766566   6.8063937
  36.5131155  50.1594239   5.7098528  36.1603325  50.7124459   6.4343349
  37.1273057  49.5488806   6.2560830  38.5627904  44.4090838   7.4011344
  38.5041147  44.8485615   6.5173764  38.0271508  43.6285879   7.1973520
  12.5468899  41.8900075  14.3519223  12.2658921  42.2075966  13.4436575
  12.8721182  41.0019179  14.1044427  14.0160531  50.3890866  16.7431322
  14.3606779  49.5637503  17.1130672  13.0568744  50.2865378  16.9485548
  12.5940324  61.6366843  16.5175881  13.3607043  62.0302584  16.0620727
  12.3324970  60.9182390  15.9032995   9.6897496  57.6481403  13.5933218
   9.2868673  58.2306180  14.2559228  10.3215423  57.1147146  14.1408119
  32.5249313  40.3186047  -3.7968986  32.9482658  40.6339335  -4.6544630
  32.1488665  39.4726615  -4.1290165  24.2846479  38.1290832  12.5665786
  23.7208065  37.4754678  13.1666094  25.1240189  37.9342240  13.0054162
  27.7658340  54.8203883  -1.1346315  27.9778876  54.7725855  -2.1108004
  28.2805200  54.0406492  -0.8266906  38.5351129  47.5623710   1.6691973
  37.6116523  47.2774422   1.6342495  38.8833357  47.1131102   0.8796586
  14.9766520  57.4118039  18.5304793  15.9416842  57.5638070  18.3415036
  14.6138537  57.8982733  17.7481485  20.6134518  53.6951427  15.3651569
  20.2932438  52.8955993  14.8976253  20.3239743  54.3729498  14.7180080
   2.7859900  30.2885845  28.0496226   2.2094279  29.5690015  27.8026863
   2.5094968  30.9962341  27.4229499  25.3757125  71.5133529  11.5897387
  25.4900300  71.7400310  10.6497719  26.2590398  71.7690335  11.9271502
  27.8025761  50.2789853  -5.4541042  27.5487538  49.4320951  -5.0166399
  27.2359999  50.2741948  -6.2216464  13.4032013  18.5448838  63.2129253
  13.8465531  19.4228035  63.2131546  12.4657695  18.8012796  63.3012021
  66.5089844  37.5073794  73.2745838  65.9152720  38.2392372  72.9683733
  66.2503016  36.8357357  72.6414426  16.9968383  58.9274140   9.7975184
  17.5252046  59.7917843   9.7208276  17.4814592  58.5305127  10.5651877
   2.0063270  36.4508319  64.4404253   1.0657063  36.3915382  64.5971240
   2.1972336  35.5916770  64.0445925  35.4318372  71.2000435  14.1326662
  34.7210558  71.5100225  13.5861622  34.9007721  70.8814274  14.9276671
  34.4909943  49.5981069   0.7115831  34.8123830  49.5103325   1.5906831
  35.0452284  49.0344400   0.1925931  77.6766332  27.5898219  64.3216258
  76.7907413  27.2539520  64.4593758  77.5925711  28.5607712  64.5606617
  14.7334653  23.7383438  54.3355454  14.0966475  23.6520941  55.0366578
  14.5493877  24.5002390  53.8439088  32.1050758  57.5198673   3.3300652
  31.7644305  56.6685357   3.7194665  31.7834246  57.4464913   2.4441571
  12.6625728  39.6584118  69.8518678  12.1160718  39.7043172  69.0170766
  13.5308163  39.8847905  69.4983195  27.6586900  55.0199344   3.1419242
  26.9688983  54.6482481   2.5129399  27.1581031  55.0032807   3.9860848
  72.0848119  27.9669494  69.2252106  72.2275705  28.4130927  68.3783127
  71.1115989  28.0994793  69.3228244  35.4238106  60.3318048   2.6323991
  35.0928877  59.4111802   2.4460516  34.6171871  60.8684216   2.5536992
   6.9729832  24.1482871  63.1155446   6.8665695  24.9222825  63.6932605
   6.8800829  23.4260809  63.8225672  32.9761577  58.4034075   7.3026238
  33.8437482  58.4153281   6.8962690  32.4675263  58.8363479   6.5551856
  25.3215362  63.5464427   3.4668760  24.7915053  64.3003089   3.7393191
  24.6063119  62.8189871   3.5253242   8.9026656  25.7174508  55.8062072
   7.9510285  25.9014926  55.8784209   9.0095485  24.8677524  56.3113224
  27.3306537  65.6985752  12.5492635  27.9858320  66.4231826  12.4377142
  27.8901525  64.9485311  12.2898757   7.6492324  36.3258343  71.8064567
   7.5784731  35.7763900  70.9738725   7.5948110  37.2166116  71.3584886
  78.1411378  35.7723839  67.5267339  79.0387032  36.1258015  67.7982638
  77.6272129  36.5668787  67.5911750  25.6292401  59.1787015   7.3175145
  25.6993674  58.3108051   7.6926782  26.2020209  59.7627263   7.8828754
  15.8376706  63.1210922  18.1672623  15.8272553  62.1442060  17.8432708
  15.0547297  63.4181149  17.6026966  68.9067764  30.5123332  64.6740434
  69.7068863  29.9857514  64.6560243  69.0679781  31.2432974  64.0240942
  25.0597122  68.3427717  16.2188526  25.6802604  67.9314922  15.5370977
  24.2130604  68.2251215  15.8169548  21.1367116  68.4984858   9.1686498
  21.9266070  68.1610001   9.6069201  21.0154620  67.8486563   8.4658346
  23.5194074  66.3569843   8.0078444  22.7611526  66.5767984   7.3738508
  23.0432782  65.6061145   8.5092310  36.2820111  50.1878412   2.9551705
  36.5481516  50.0669879   3.8512288  35.2920168  50.2372921   3.1042539
   4.5507431  20.1600500  61.4754074   3.8703498  20.6409918  60.8830549
   4.1037540  19.2889476  61.5465333  71.8798559  28.8342737  66.2916323
  72.5593567  29.0490693  65.6526328  71.2895081  28.2613316  65.7165355
  21.8978105  47.0387281  -1.3897152  22.6138345  47.5238680  -0.9394340
  21.5236148  46.5310522  -0.6621965  26.7712187  62.4287656   1.3472661
  26.0395730  62.8798224   1.7538352  26.3991810  62.0171002   0.5336326
  44.0434528  62.8259114  13.6498088  44.9651511  62.7532844  13.3276197
  43.8692455  63.7904083  13.5793263  16.9472623  50.3948995   0.3928032
  16.6071173  49.6306910   0.8934483  16.3726015  50.5317917  -0.3106681
  10.4024588  18.9153206  57.4275661  10.0891171  17.9822685  57.5460668
   9.6058983  19.3987381  57.6397665   6.7276161  26.2288602  64.8540653
   5.7254774  26.4706130  64.9463339   6.9824611  26.3001660  65.7865999
  28.5867038  56.5738174   0.8816789  28.1166990  56.3582343   1.7627175
  28.0962263  56.0045739   0.2815069  23.0645472  66.3010946  14.3587027
  23.9748206  65.9278732  14.5463253  22.9216344  66.0190557  13.4575837
  14.4903312  59.2251684   9.7893587  14.0907843  58.3495728  10.0161857
  15.4126017  59.0991027  10.0380377  75.6395326  30.2401307  62.2794749
  75.5109425  31.2441854  62.4647113  76.6039679  30.1484151  62.4459987
  67.9038797  33.7134935  71.3027660  68.5710172  34.1804753  71.9113144
  68.0230421  34.3056073  70.5411049  39.7408148  70.1331119  13.5985147
  39.4633458  70.1558189  12.6476955  40.0314590  71.0657851  13.6467476
  34.8418118  57.7385481   2.2076190  34.0837769  57.5574799   2.6851679
  34.4748590  57.9064772   1.2841873  15.5141058  70.3138196  13.5352340
  15.2282333  70.2289018  14.4885102  15.2242377  69.4257302  13.2152230
   8.1282677  42.0371783  73.7419171   7.7785368  41.2653330  73.2356118
   7.8929269  42.7267903  73.0549946  26.8384740  68.1894026  10.7771537
  26.6861079  68.6817752  11.5991856  27.7246076  67.8179022  10.9962275
  69.3014177  28.5369033  72.6798033  69.8536983  29.2728619  72.4120362
  69.3967206  27.9222043  71.9497833  28.5122319  70.8450071   6.0103924
  28.5604831  70.7036927   5.0136423  29.5005218  70.9847765   6.1433095
  20.8689678  59.7815701  13.5273947  21.7041620  59.7072490  14.0590152
  21.1533763  59.3279946  12.7079580  38.8270042  67.3679103  12.8119535
  38.7954104  67.9178272  13.6260075  38.1783877  67.8073657  12.2772180
  24.1357171  56.3877346   9.4688027  23.7556538  56.2389356  10.3695847
  25.0772473  56.5273706   9.6819445  33.5940978  68.1274476   7.1396248
  32.6859078  68.2533014   7.5288705  34.1240353  68.3010016   7.9558180
   0.9343249  27.8267106  57.9737575   0.0060737  27.9263920  57.7676264
   1.2199267  28.7238002  58.2064781  34.5869010  46.4404225   4.1734918
  35.3736702  46.0803375   4.6023238  33.8448247  46.0956156   4.7196993
   5.6280037  31.1976131  68.3370844   6.0826591  30.7526360  67.5454476
   6.2967890  31.0173625  68.9970038  15.2988037  64.5627794  10.8415504
  14.3949175  64.7883760  10.7592898  15.6879002  64.7487935   9.9693040
  25.4757983  62.7946619  10.5034517  24.7480609  62.2535604  10.2319599
  25.5697090  62.5442009  11.4569701  38.2031109  55.1566150  12.6974208
  38.2301252  54.1554999  12.6088267  38.4563688  55.1638843  13.6851556
  34.0104875  69.7873654  24.7690966  33.8412730  69.2202886  25.5626485
  33.1090924  69.7806714  24.3710485   5.8007081  36.1028635  62.3300281
   5.3992045  36.0429595  61.4427069   5.1264466  36.7225823  62.7236180
  22.9897964  50.1067824   4.3824328  22.1921022  50.1559183   3.9095198
  23.1289189  49.1193971   4.3882869  22.9433497  62.5113349  14.3080875
  23.2364563  61.5881757  14.3871126  23.8171116  62.9517394  14.3509421
  20.4370279  54.5091487   6.5424763  19.7012601  54.7375332   5.9582348
  20.5453228  53.5579847   6.4957560  11.9490807  17.5367177  55.1493222
  12.0362729  16.8648580  55.8399177  11.2814975  18.1260547  55.4786496
  20.3690177  63.3684666   7.2176429  20.1286457  63.9221325   6.4788261
  20.4182460  62.5363948   6.7396897  30.1353621  55.7418947   4.1335292
  30.3187754  54.8175282   4.4636119  29.1930452  55.7377722   4.0262265
  29.3012053  76.5310664   9.6405164  29.9217888  77.2569912   9.4326046
  29.8865834  75.8339143   9.8596816  29.4299931  57.3557534   7.2230493
  30.2475581  57.5747647   6.6998065  29.3620177  58.2840616   7.6513883
  28.3757734  69.7296864   8.4909153  28.3726826  70.0079023   7.5741566
  28.0135767  68.8329214   8.4491578  21.8708225  72.2601185  14.7351758
  21.7182010  72.2847923  15.7067182  20.9955973  71.8175125  14.4954452
  19.1852259  71.1704192  14.5735306  19.1418776  70.3998895  14.0519265
  18.5787033  70.9178304  15.3345838  20.1460648  58.8196158  16.1116929
  19.1778822  58.8407240  16.0431746  20.4967412  58.8630383  15.2298782
  11.8299934  32.9164020  71.1957549  12.7137014  33.0846002  71.5601993
  11.3124865  33.6032987  71.6089563  15.1837190  66.8336838  15.4398577
  14.4401050  66.2953241  15.7891278  14.8099329  67.2735591  14.6564323
  53.8946100  45.5887012  10.3964810  54.5650827  44.9098990  10.1120331
  53.2837462  45.4219925   9.6441766  12.8358979  61.3405611   9.3784847
  13.5056605  60.6548798   9.5086880  13.4071681  62.0429436   9.0122721
  38.4616421  60.1939958  11.7681022  38.9408175  60.8307040  12.3898924
  39.1888136  59.5477285  11.6076086  27.1886725  67.3510378   7.6345625
  27.0992369  67.6506006   6.6777875  26.7935614  66.5135686   7.5072501
  75.4970664  26.4976745  59.1317191  74.8920041  25.9528909  59.6854515
  75.2897997  27.4022724  59.3824924   3.1178093  28.4895431  62.8431769
   2.5236997  28.5446456  63.6909373   3.4284674  27.5742660  62.9601321
  37.4369598  53.8233208   7.7073227  36.9178043  54.5772586   7.3270558
  36.7701360  53.1646074   7.8901267  20.1323597  25.2821300  70.0517686
  20.3831225  24.4551912  70.5982389  19.2675354  24.9892518  69.7082958
  19.2593126  60.8979669  19.6549778  18.9202740  61.3447382  18.8673281
  19.9164792  60.3136019  19.2396632   8.5192460  17.2814258  59.6879907
   9.2760103  16.7206469  59.4496397   8.9267102  17.9986000  60.1742290
  32.6294230  53.6740638  -1.6876451  32.1482932  53.4282385  -2.4614070
  33.3026011  52.9751156  -1.5921858  33.6485908  61.7585947   5.0422971
  33.6017116  60.7686960   5.1087377  34.1022376  61.9887680   5.8684054
  30.1967945  58.6308113   0.4122020  29.8880593  59.0133730   1.2498926
  29.6968414  57.7969244   0.4372876  26.4819828  63.1381975  17.7805613
  25.9859628  62.3746863  17.4939439  26.9354758  62.8656932  18.5795375
  27.0191771  61.1210073   8.7298687  27.5078067  61.5835872   8.0141570
  26.6174367  61.9124497   9.1726406  31.6462261  52.0380322   2.0789660
  31.4227618  52.5680198   1.3346032  31.7416282  52.6048824   2.7937086
  21.2246579  30.4833684  67.1637295  21.0496517  30.9871176  67.9640707
  20.4469415  29.8753518  67.1236705  14.3011411  66.3656033  19.1119145
  15.1231258  66.0894992  19.5638873  13.6852911  65.7660788  19.5450762
  12.8110873  67.9601377  17.5656528  13.3708731  67.2722081  17.8847723
  13.0647072  68.7355234  18.0801643  37.0989912  52.2708259   1.7591022
  36.6944156  51.5013612   2.2896149  37.8295363  51.6959629   1.3634612
  33.8463795  54.5320831   8.0393954  33.0242983  55.0949185   8.2506679
  33.3289130  53.8736151   7.5150199  42.9541293  71.2338937  19.7868607
  42.5067425  72.1516468  19.8588275  42.6315110  71.0238386  18.9261750
  70.3552375  37.4620372  73.9230714  70.2747253  37.7908218  74.8795931
  70.5314781  38.3602386  73.5198078  36.7004769  64.0862498  10.1529001
  37.0571098  63.2017127  10.4261639  36.9588788  64.6204429  10.9029269
  77.3990767  27.1481784  61.7956036  77.6786740  27.4285545  62.7009888
  76.5152237  26.7970067  61.9810688  51.2306154   8.7758478  26.9540084
  50.8222637   8.4122592  26.1548835  52.1836418   8.6238724  26.8800407
  58.0406533   5.3650317  19.1043730  58.7735380   5.6735052  18.4625740
  58.5530603   5.2827447  19.9208146  31.0148825  70.8016415   6.8643843
  31.5545117  70.9410874   6.0134596  31.4133177  71.4920649   7.4190801
  39.5684914  68.5187435  24.6791607  39.1558585  69.3611036  24.9667728
  38.9199303  67.8718345  25.0476296   9.8814082  39.6560699  72.5493079
  10.8378395  39.4356971  72.6647887   9.9358317  40.6168461  72.7349620
  37.0331378  61.0871662   9.5236682  37.2920689  60.6842366  10.3628537
  36.0216953  61.0608559   9.6355393  31.3928134  73.1070024  19.1036808
  31.7323148  73.4950977  19.9370397  31.0796671  73.9508233  18.6966337
  34.8699215  74.4104971  18.4240503  34.0404278  74.7267628  18.8987763
  34.8275515  73.4364106  18.7238455  39.2466615  76.5143836  19.0073285
  38.6802791  77.2848858  18.8545796  38.6536344  75.7912370  18.8262718
  35.6349648  79.0039737  18.4992572  35.0108462  79.6462994  18.0956499
  35.3082141  78.9231591  19.4354724  41.4967040  77.7354583  17.3764962
  41.0321769  78.4411010  16.9016184  40.8231384  77.2431981  17.8511440
  21.7107115  69.2479259  19.5483043  21.3090611  69.1780094  18.6403088
  21.0810277  68.7667837  20.0307883  40.7537454  64.2195633  10.0571750
  40.8701665  63.3566387   9.5911186  40.6312609  64.7859505   9.2348510
   9.5745430   5.1494250  53.8578602  10.3646823   5.6582621  53.6482832
  10.0330293   4.2679527  54.0943086  12.9843275  11.6094079  53.7710742
  13.1221716  11.0749413  54.5864649  12.4194140  10.9312453  53.2767684
  69.7154570  14.8623234  56.2729592  70.6611965  14.6979881  56.1718403
  69.6416151  15.8504243  56.1396189  19.4886011  50.7593280   0.4647007
  18.4885294  50.7445288   0.4136462  19.6039539  50.5254247   1.3637565
   7.0794278  20.9417603  61.3298425   6.2221218  20.4956024  61.2324377
   7.1841602  21.0236374  62.3216018  10.6903762  15.1952039  59.3726528
  11.2000251  14.6572923  60.0483811  10.0362626  14.5191727  59.1046978
  12.5326845  15.7974936  57.2793618  11.8417041  15.8038173  57.9815453
  13.2664802  15.4394031  57.8820553  42.3043563  73.2015904  64.0088815
  41.5443366  73.7062015  63.6673414  42.9328273  73.3267411  63.2360273
   9.0447053  13.2963606  58.8368653   8.3991160  13.3951834  59.5304274
   8.4813450  13.1795323  58.0404625  18.7125139  58.7393861   4.5972148
  18.4566708  58.9034585   3.6413923  17.9413582  58.1261984   4.8340080
  35.1100669  37.2112018   6.2476142  35.5955353  36.4063007   6.4560978
  34.4276440  37.1837644   6.8957700   7.9632504   7.7165528  42.3110045
   7.1013925   7.3225705  42.2670058   7.6613632   8.5404794  42.8616552
  41.3408867  45.2535254   2.6911624  41.8543957  44.9375003   1.9396775
  41.0132704  44.3971138   3.1068175  30.0928706  43.5753957   2.5365034
  30.0485756  42.6673245   2.1483151  31.0739764  43.7157940   2.5128155
  34.0503748  45.0121456   1.0199627  34.2409409  44.4116665   0.2957458
  33.5151029  44.3796440   1.5936865   6.4464344  19.8184172  55.2385633
   6.9445928  19.7147417  54.4082276   6.2746969  18.8784294  55.4820995
  14.8952351  31.2890954  70.5497499  14.8597092  31.8494773  69.7625469
  15.7091038  30.7602647  70.3749571  34.2322461  51.6019343  -1.3204854
  34.2455172  51.0762933  -0.4628141  34.2106216  50.8192733  -1.9300556
  36.8393919  61.0967753   6.3701502  37.3821775  61.7218322   5.8233043
  36.1122482  61.6910273   6.6998957  25.2444433  55.9168969  -0.8873247
  26.1162987  55.4277881  -1.0061963  24.7689302  55.5186741  -1.6196020
  25.7834867  52.3421411   4.1572464  25.6998608  53.1969191   4.7214595
  25.5361379  52.7514121   3.3061987  78.1074856  26.0938758  43.1122129
  77.6853836  25.7842683  42.2631163  78.1807757  27.0459813  42.9369721
   4.1040974  25.8533157  63.0668881   4.9860002  25.8057681  62.5781822
   3.6434282  25.1363788  62.5776154  34.7770630  45.0057420  -5.8900319
  35.7306991  44.7902533  -6.0089162  34.6204501  45.4850967  -6.7693841
  33.9865248  43.1550495  -0.7807603  34.4220851  43.5525742  -1.5427354
  33.5411637  42.3658033  -1.0858203  25.4995531  39.6248190   5.8489446
  25.1915592  38.7361363   6.2777734  24.8475102  40.2234688   6.2180275
  51.4797448  49.0104140   5.4482727  50.9836011  48.6193129   4.7151534
  52.3271164  49.2503739   5.0030280  44.9464987  52.3969622  11.0438442
  44.4535851  53.0022974  10.4093323  44.4273967  51.6399416  10.9798128
  27.7177269  64.5474237   3.9954406  27.2706343  65.3803883   4.2237783
  26.9033446  63.9942574   3.7647237  30.3122018  53.7147263  -0.3183056
  30.3807209  54.7145227  -0.3237048  31.0931700  53.5078069  -0.8016565
  30.9830237  48.6130451  -3.3539461  30.2109312  48.1799413  -3.0005372
  30.5548510  49.1928033  -4.0242744  47.8724680  56.6664079   5.9729343
  47.8987281  57.0565501   5.1409191  46.9826903  56.7436521   6.3307857
  -0.1787165  -0.2884082  -0.2192999   0.4397296   0.9081513  -0.3421200
   1.7663538   0.1955337  -0.4952489  -0.7374001  -1.3225558  -0.4861537
   0.2601956  -0.0206004  -0.2882545  -1.0967722  -0.5543485  -0.3892137
  -0.0080926   0.3289476   0.0477509  -0.3663008  -0.6760878  -0.1026127
   1.8008245  -0.4996921  -0.2583789   0.0765603   0.2288154  -0.0266876
   0.2109085   0.0201712   0.1963246  -0.0216463   0.0562798  -0.2878525
   0.1135361   0.3592690  -0.1100947   0.3455519  -0.0513207  -0.1733780
  -0.2582728   0.0907101   0.2881297  -0.7506555  -0.8038262  -0.2170061
   0.3782535  -0.2860324  -0.1004914  -0.7949630   0.1132370  -0.2060833
   0.0269386   0.4154777   0.0201206  -0.0548163   0.3551730  -0.5787879
  -0.0103509   0.3779145   0.2143030   0.0707742   0.1182179   0.1477898
  -0.5279540   0.2221622  -0.0286987   0.1059384   0.0096655  -0.2061883
  -0.2461806  -0.1230419  -0.0876483   0.3279125   0.2127766  -0.1098204
   0.1853420  -0.1064164   0.0801387  -2.4624733   0.8953364  -0.4939167
  -0.0008137  -0.3887424  -0.2410458  -0.0754579  -1.0217171  -0.6345331
  -0.3739026   0.2224007   0.0148836  -0.0236213   1.4077418   0.7589791
   0.0049127   0.1530056   0.2679421  -0.9115866  -0.9028802  -0.1909462
   0.6397273   0.2189849  -2.0832407   0.2051369  -0.6276300   1.0057840
  -0.0033791   0.3181222  -0.1125875   1.5321411   0.6216671  -0.1154991
   0.1991800   0.0606012   1.0039197   0.1186411  -0.5132124   0.2268049
   0.1118309   0.3749304  -0.7500195  -0.1574852   0.0734817   0.6703699
  -0.8158757   1.8870494  -0.1961115   0.2674058   0.0378705   0.2088882
  -0.0196267  -0.0957000   0.1286573   0.0731080  -0.3231264   0.0117559
   0.4727472   1.4568671  -0.0531511   0.0667286   0.2591312  -0.1042056
  -0.3549999  -0.7672287  -0.1785789   0.2204620  -0.0898041   0.2668398
   0.2952734   0.6921467  -0.4808448   0.3118987  -0.0151519  -0.2115851
  -0.2244224   0.2094704   0.2202166   0.1065243   0.2504210  -0.2274342
  -0.3295632   0.2483562  -0.6473900  -0.1369578  -0.0480845   0.2771310
   0.3514438   0.4744057  -0.4025966   0.0773914   0.0297731   0.2850615
  -1.7104310  -0.4906753  -0.9345689  -0.1123539   0.0849326  -0.0316970
   1.4657478   0.4252381   0.6129943   0.2891558   0.0362493   0.0856882
   0.3182049  -0.1009536   0.8690665  -0.0820406  -0.0752439  -0.0170635
   0.1194802   0.1044223  -0.2315349   0.2116827  -0.0111763   0.2897470
   0.5887792   0.6139921  -0.2165349   0.0471739   0.4637924  -0.1706074
   0.9647129   0.7441887   0.3768120  -0.1424448  -0.0670141  -0.5639852
  -0.5801462   0.1440912   0.7048690   1.1795804   0.2138159   0.3710144
  -0.0925892   0.0544777   0.0238628  -0.8761970   0.9950760  -0.1922308
  -0.5124471   1.7509281  -0.0090249  -0.3637813  -0.2671067   0.0657465
  -0.5456826   0.8247006  -0.2853107  -0.5972268   0.1661847   0.4203353
  -0.2346665  -0.1049222   0.1580839  -0.5323953  -0.0633763  -0.3665276
  -0.1071385  -0.0669110  -0.2108790   0.3516744   0.0083080   0.4967086
  -1.3212856   0.3497977  -0.7172242   0.4412472   0.1723331  -0.3778605
  -0.0287797   0.3566070  -0.2119603  -0.5769872  -0.2964664  -0.9415403
   0.2402868  -0.2828944  -0.8184036  -0.0417938  -0.0498292  -0.1179959
  -0.1812152   0.1587407   0.0354676   0.2439579   0.1606444   0.1619052
  -0.5848241   0.9154996   0.3284719   0.0930540  -0.0931128   0.0929677
  -0.8526007  -0.4229282   0.7708022  -0.1708331   0.2329716  -0.7688391
  -0.3720810   0.5475005   2.0508161  -0.0069206   0.6628822   0.5856486
   0.2033449   0.0229304  -0.1286149   1.7517281   1.0094634   0.3458616
  -0.4181209   0.9581348  -0.2898768   0.3425895   0.1088103  -0.3221761
   0.0283725  -0.4790164  -1.2686016   1.0750016  -0.5573537   0.2122628
   0.0987095  -0.0832560   0.0387964   0.8070735  -1.6565477  -0.6343145
  -0.2098010  -0.1635191  -0.9972499  -0.2363097  -0.3497321   0.2517232
  -0.8218233   0.4481489   1.7451958  -0.4045102   0.6575643  -0.8013327
   0.1100864  -0.0527547   1.0371426  -0.4306535   0.1935349   0.0374263
  -0.0292365   0.3379959   0.3964196   0.3285538  -0.0662251  -0.0655700
   0.1052134  -0.4484057  -1.0466196   0.1241024  -0.3043728  -0.2941668
  -1.7077536  -0.0241238  -0.1233719  -0.1282406  -0.3377675  -0.0096579
   1.1306383   0.7422069  -1.2381852  -0.2030567   0.4692023  -0.1009089
   0.4576944  -0.1069451  -0.0462013   0.2738738   0.5740019   0.4768329
  -0.0014619  -0.4041865   0.0918160  -0.0617424  -0.3807345  -0.2835273
  -2.0922991   1.1365363   0.6137953   0.6025888   0.5516790  -0.4645238
  -0.0607927  -0.4913182  -0.1181532   0.0537433  -0.7697702   0.2149920
   0.1154826  -0.0850792   0.1662817   0.0854439   0.0828988   0.1920035
  -0.4545101  -1.1657736   0.9852893   0.2977466  -0.2297631   0.9698118
   0.1418228   0.1473112   0.4648436  -0.7156021  -0.5194834  -1.4734378
   0.2366285  -0.5215591   0.3291981   0.0667331   0.1732575   0.0012349
  -0.1367796   0.3853500  -0.1745940  -0.2706451   0.5063774  -0.2548146
  -0.4297529   0.4114589  -0.5706494   0.0439152   0.3402641  -0.1529490
   1.7642710   0.3688580  -0.2663193  -0.0057431  -0.1089063  -0.0577908
  -0.1580151  -0.1655501   0.8206936  -1.1905710   1.5120086   1.9092277
  -0.0372452  -0.3426210   0.0813149  -1.1400996  -0.8392747   0.1972815
  -1.0906127   0.6375186   0.0739199  -0.0773113   0.0467694   0.2464570
  -0.0326705   0.1090321   0.7036456   0.3176817  -1.4042994  -1.3019749
  -0.2596292   0.1052049   0.2753922  -1.5415742  -0.4505041  -0.5444244
  -0.2779018  -0.2924191  -0.1556774   0.0501836   0.4231248  -0.2453420
   0.4979547  -0.3479123   0.6748373   0.4007389  -0.2328972  -0.0053191
   0.0102746   0.1052749  -0.1678316  -0.7664853   0.7538850   0.6734333
  -0.0869672   0.0754683  -0.5342896   0.0755797   0.5914533  -0.1327964
  -0.0829078   0.1616832  -0.2346526   0.1641164  -0.1759010   0.3568851
  -0.5429358   0.9560679  -0.3215474   0.0592943   0.1577973  -0.5249619
  -1.6830508  -0.5533727  -1.4371057  -0.1801015  -0.3248889   0.0496242
  -0.1263209  -0.4915946  -0.0785680  -0.9997744   0.1521013   0.0400885
   0.1977495   0.2272978  -0.4772878   1.3017867  -0.3568626  -0.1739598
  -0.0423023  -0.1245245   0.1302128   0.0937481  -0.9195539   0.0644150
   0.8022752  -0.2917356   1.1437474  -0.2143447  -0.0966976   0.3999127
   0.4484427  -0.0750137   0.0174244   0.6414365  -1.0875318  -0.4249398
   0.5640222  -1.1004693  -0.3069830  -1.5178589  -0.3874578   1.1393970
   0.1057068  -0.1151558   0.1249901  -0.0681588  -0.1595076   0.2425169
  -0.1926539  -0.0260653   0.1217908  -1.5252554   0.1250324  -0.7050238
  -0.0443006  -0.0981072  -0.1249910   0.6237536  -1.5406026  -1.5358052
   0.3556045  -0.0433179   0.0351159   0.5029754   1.2202202  -0.7083606
   0.0492931   0.1690871   0.3132312  -0.1945944  -1.1528813  -0.8774561
  -0.1272662   0.8728792  -0.3472036   0.5710522   1.5944564   0.3563112
  -0.1230178   0.0768747   0.3023991  -0.2102345   0.0724498  -0.3083469
  -0.3739464   0.0693010   0.2363748   0.3515764  -0.2593192  -0.1602122
   0.3303859  -0.2958699   0.1428858  -0.9417562   0.4995076   0.0639690
  -0.0828672  -0.3117835  -0.0239752   0.8292574  -0.2283999  -0.9125425
   0.1343566  -0.1695944   0.0229924   1.3863280   0.2562849  -0.0173365
  -0.2530983  -0.0051195   0.1460299   0.8694262  -0.6007902  -1.1368307
   1.1690484  -0.5980433   0.5562460  -0.0942854   0.1434927  -0.7610335
   0.1117772   0.1141580  -0.2325970   0.3212697   0.1664094  -0.3630698
   0.3549907  -0.4065834  -0.0159497  -0.1206087   0.0065052   0.3190735
   0.2500979   1.5274198  -0.5653196   0.0428073  -0.0138810   0.6158343
   0.6664917   1.4021643   0.0902237   0.1777290   0.1587254   0.3148427
   0.1743672  -0.2226004  -0.1082525  -0.1942352   0.0200855  -0.0341951
  -0.2329067   0.1512444  -1.0888208   0.3068366   0.1949237  -0.1511402
  -0.6063569  -0.7570770  -0.4029709   0.2536447   0.1447115  -0.2180400
  -0.2795747   0.5739168  -0.0003828   0.8299487  -1.3473392   1.9121873
  -0.1191141   0.1234021  -0.0483587  -0.8960976   0.5642224  -0.5374678
   1.2303452  -0.2643917  -0.6250138  -0.0645594  -0.1249085  -0.1355782
   0.1874058  -0.1011347  -0.2688524  -0.2845872  -0.2139367  -1.2095989
  -0.5903934  -0.3114448   0.6029873   1.2918263   0.4348528   0.5702799
  -0.0014627   0.0297507   0.0709424   0.1017676  -0.0575059  -0.1343147
   0.1710410  -0.1259495   0.0714605   0.4787615   0.0181421  -0.8742365
  -0.4109015  -0.3039958   0.1140366   0.0437034  -0.4535238   0.2292925
   0.0104658  -0.1897025  -0.1037368  -0.6773326   0.1025829   0.8445484
  -0.3948214  -0.3677497  -0.2522168   0.4033742  -0.0377063  -0.1352658
  -0.0577720   0.1624599   0.2001614  -0.0324761   0.0802858   0.0010742
   0.0111167  -0.2594810  -0.1183302   0.1396150  -0.0418025   0.1702097
  -0.0886712   0.5672386  -0.1555174   0.5016795  -0.4511465  -0.1119927
  -0.2680548  -0.1110666  -0.1827962   0.2991241  -1.1320389  -1.1056279
   0.1945179  -0.3146137  -0.1310904   0.2172663   0.4482946   0.2102600
   0.2995375   0.2277302  -0.3115829   0.0158713  -0.1282726   0.1348213
   0.2033409  -0.3390762  -2.6114958   0.2455250   0.1849472  -0.1483250
   0.4500698   0.2185169  -0.6274834  -1.9102713  -0.4750038   0.5444434
   0.0175024  -1.1440076   0.0892758   0.1385787  -0.1030661   0.0992078
  -0.3106588   0.1565985  -0.1105453  -1.0457921  -0.5803918  -0.3597066
  -1.0922826  -0.9532370   0.5631953   0.0985737   0.0405705   0.1654769
  -0.2915237   0.4038249   0.1878916  -0.2200361  -0.2919572  -0.2227321
   1.3302495   0.7421977  -1.1891384  -0.2846670   0.2467314   0.0820039
   0.2402166  -0.0583705  -0.2445807  -0.1981997  -0.3459275   0.0252607
   0.0771019   0.5221072  -0.0437713   0.0474704  -0.7912946  -1.3157216
  -0.1728327  -0.2521186   0.0486544  -0.1443338   0.0591560  -0.0535205
   0.2002089   0.2231770  -0.0895445  -0.8105442   0.4126720   0.9138361
   0.3029719   0.1737570   0.2621344   0.8777868   0.0416411  -0.8047076
   0.0415125  -0.2086017  -0.3265381   0.8709942   0.3430909   0.2590670
   0.0030907  -0.2509133  -0.1825212  -0.0790140  -0.0526525   0.3102803
   0.2511355  -0.0777074   0.0792503  -0.0562115   0.0144002   0.3111878
  -0.1474303   0.6524106  -0.3920310  -0.2389283  -0.5279079  -0.7373150
  -0.1318240   0.0304170  -0.1265441  -0.2286550  -0.9004719  -1.0522273
  -0.3039172  -0.7626358   1.0398108  -0.0377715   0.0214579  -0.0367236
   0.6005391  -0.0680038   1.0220429  -0.3563898   0.0416610   0.1248859
   0.0724742  -0.3402859  -0.3166372   0.8043354  -0.3058862  -0.2704868
   0.0813352   0.0242784  -0.1044976  -0.0032313  -0.0988842  -0.2966150
  -0.2189896   0.0300765   0.2167408  -0.8505226   0.6411968   0.0227354
  -0.0027568   0.0192037   0.0126818  -0.7210535   0.0883388  -0.1988434
  -0.6901891  -0.6026437  -1.9214095  -0.2479168   0.0409872   0.0921054
  -0.0732347   0.0831117   0.0881498  -0.2105993  -0.2836836   0.0644613
  -0.4833709   0.3176029   0.5634143  -0.3841461  -0.1786479  -0.2606710
  -0.0428610   0.0227146   0.4041497  -0.0041465  -0.3928801  -0.0590619
   0.1514524   0.0630690   0.5389844  -0.1815388   0.8079548  -0.3405407
  -0.5657668   1.1229175  -0.6526615   0.1970953   0.1297075   0.0430773
  -0.1977048   0.4574844   0.1327652  -0.0965848   0.1359266  -0.1437827
  -0.7323490  -0.4780925  -0.0034521   0.4377978  -0.0375565   0.4081640
   0.2317946   0.9818028  -1.1334003  -0.0146284  -0.1290920  -0.4559538
  -0.1231660   0.3344361  -0.0560558  -0.2814186  -0.1291505  -0.2437647
  -0.1743154   0.1096784   0.1927398  -0.7254096  -1.2004205  -0.5061139
   0.0737191  -0.2336983  -0.1472762  -0.1087182  -0.8774698  -0.8208940
  -0.0540028   0.0480192   0.0948906   0.3899048  -0.4075994   0.3439120
  -0.8460075  -0.4282609  -1.1350239  -0.0059927   0.2285230   0.1453104
   0.0833829  -1.3795153  -0.6288455   0.0544517  -0.5083380   0.1975362
   0.3818236  -0.0616625   0.3447344  -0.2210541   0.5847595  -1.5836415
   0.5860658   0.0372546  -0.0576953   0.4319975  -0.5965505  -0.3360708
   0.2109941   0.3745852   0.2428489   0.4599946  -1.0968319   0.2668609
   0.1746438   0.1046071   0.1763600   0.9560547  -0.0918475   0.6476232
  -0.3117785   0.0677426  -1.3528417  -0.5466697   0.1564324  -0.7782661
   0.2005670   0.1177876   0.0463735  -0.0518905   0.2332905   0.2214087
  -0.0160047   0.4343839  -0.1525724  -0.9658055   0.2124563  -0.0715655
   0.0699021  -0.2667832  -0.1016734  -0.9227544  -1.2809321  -1.0308550
   0.1539591   0.0138895   0.2280715   0.5442826  -0.2043233   0.2677721
   0.4884718   0.1059627   0.0956312  -0.2221871  -1.3447083  -0.5400863
  -0.0723449   0.3339702  -0.0822358  -0.4540310   0.2439234  -0.5191709
   0.0556439   0.1910727   0.1921153  -0.8105253   1.0433992  -0.5272685
  -0.4048007   0.0113427  -0.1774915   0.0577227   0.1162693   0.1181286
   0.2834689   0.3896191   0.0761800  -0.1978312   0.6264018   0.8079297
   0.3126574  -0.2875980  -0.3858434   1.3244266  -0.6013067   0.8495288
  -0.4414487  -0.2361624   0.3791108  -0.1784138  -0.3819939   0.1937993
  -0.6661319   0.0682818   0.9286356   0.4743119  -0.1197073  -0.0225527
   1.4278672   0.4405035  -0.9775821   0.8017695  -0.3072851  -1.7811106
  -0.1598819  -0.0797997   0.4499438   1.8232466  -0.1099139   0.1464124
  -0.9406673   0.0501185   0.2194570   0.1541612  -0.2391560   0.2848224
   0.3054230  -0.5496712   0.9197300  -1.3907481   0.5228756  -0.2531448
   0.1674658  -0.1596757  -0.0135315  -0.4750379   0.3269972  -0.0107101
   0.2763061   0.7837329   2.1559645   0.1736352   0.4647202   0.7536901
   0.1176452   0.2325814   0.2032815  -0.2594618  -0.0438669   0.2256649
   0.5152619  -0.0951839   0.0628502   0.6088162  -0.7379183  -0.0749442
  -0.2627039  -0.0726599   0.0802856   1.2302348  -0.3649220  -0.0276231
  -0.1932164  -0.1616146   0.1261541   0.1605653  -0.7735462   1.3472348
  -0.0548388  -0.3026750   0.5100470   0.2272925  -0.2047696  -0.2250451
  -0.6540962  -0.1480740   0.1333490   0.1679965   0.1089551   0.3193125
   0.0867482   0.2580008   0.0147805   0.0157769   0.0372134   0.4781142
   0.1002244  -0.2798016   0.1867975  -0.0888233  -0.0497448  -0.4817381
   0.1803112  -0.7205121   0.5939733  -0.0492277  -0.0511677  -0.3021878
  -0.3752734   0.1419704  -0.1638224  -0.8394850   0.3034447  -1.3639163
   1.4926342  -0.0582838   0.7716700  -0.1253269   0.3346834  -0.1535692
   0.7714239   0.3660085   0.8337122  -0.0953718  -0.5052428  -0.4966527
   0.0855418  -0.0490741  -0.0273420  -0.0264057  -0.2815637  -0.0901902
  -0.0382537  -0.1029506  -0.4830455   0.1903360  -0.3737414  -0.4965838
  -0.1525270  -0.3569180   0.2161069   0.6875740   0.2100881  -0.6072764
  -0.2651678   0.1340406   0.1936665   1.6448878  -0.3603838   0.2881835
   0.0285322   0.2183529   0.3374596  -0.0133899  -0.1018009   0.1581479
   0.0866777  -0.1369359   0.1003000  -0.2508511  -0.1779639  -0.0857178
  -0.0070480   0.2995241  -0.3118049  -0.0363289  -0.7819095   0.3074868
   0.0569412   0.2329298   0.1696596  -0.0248566  -0.2436496   0.1059536
   1.7258107   0.3858953  -0.9398724  -0.3758271  -0.0839016   0.0389737
   0.0427442   1.4997144   0.5881759  -0.0897586   0.0451650   0.2959096
  -0.4911032  -0.6171589   1.4192469   0.1990565   0.0535802   0.0700147
   0.0584787  -0.0930446  -0.0499977  -0.0466077  -0.2686607   0.1383426
  -0.4438034   0.8114361  -0.2467235  -0.2951395   0.0573050  -0.1148305
  -0.2982771   0.3645764   1.1035227  -0.2068566  -0.0705751   0.3149807
   1.3441894   0.1688204   0.2772412  -0.0941111   0.1274833   0.1594041
  -0.5335149  -0.2250706  -0.0954818   0.6625933  -1.3592147  -0.4486033
   0.3108391   0.0995288  -0.3723433  -0.2086114  -0.2584629   0.9199489
   0.9201247  -0.3594089  -1.9741438  -0.1890909  -0.0765636  -0.1201817
  -0.2946586   0.0448810   0.4466298   1.3010415  -0.7677771   0.9236751
   0.1883629  -0.9240373   0.3175028   0.2050867  -0.2724569   0.1434169
   0.3782412  -0.2659461   0.0995214  -0.1216511   0.0236764   0.4369532
   0.1826125   0.4669014   0.1061399   0.4111133  -0.0282959   0.3089513
  -0.6319092   0.4658715   1.1503036  -0.8590925  -0.0399712   0.2867590
   0.1189382  -0.0341278  -0.0482423  -0.6028355   0.4351469   0.4030539
  -0.2590604  -0.7496997  -1.8081678   0.2420687  -0.1753691  -0.3486560
   0.6219710  -0.0758756  -1.1282211  -1.0441814   0.5264410  -0.2229114
   0.1204539   0.0744516  -0.2322996  -0.1444277   0.5354323   0.2941638
   0.3148014  -0.0455706  -0.0459598   0.1303422  -0.1954477  -0.0309748
   0.0867141  -0.0739087   0.0594848   0.3545928   0.5325412   0.2265572
  -0.1839495   0.0528401  -0.1393644  -0.5787130   0.8756732   0.0482612
  -0.0677395   0.0282173  -0.0881468   0.4475251   0.7510827  -0.3697562
   2.1875723   1.0833501   0.2934678  -0.3423816   1.3229982   0.5507028
   0.0201620  -0.6215083  -0.0190501  -0.1041501  -0.0078036   0.0041330
  -0.1021383  -0.0809884   0.0069412  -0.1623760   1.0686303   0.0009217
  -0.1641068   0.3301953   0.1310716   0.7305937  -0.1988344  -0.8772294
   0.2268925   0.1759614  -0.1717695   0.3954609   0.7908872  -1.1572706
  -0.1620921  -0.4134080   0.0443226   1.2665925   0.1913636   1.0410263
  -1.1898299  -1.0013307   1.4628279  -1.0073814   0.3705132   1.1257526
  -0.1279614   0.2078823  -0.1921590  -1.1056540   0.1310709   0.2503794
   0.4103931   1.8706249  -0.8779647  -0.0047565  -0.2547562  -0.1556170
  -0.9283302  -0.0132191   0.3972113  -0.9472466   0.6435721  -1.3549319
   0.1528003   0.3660942  -0.8017757   0.1779678   0.0734522   0.3312103
  -0.3841356   0.0895625   0.1688161   0.0239119  -0.0951411   0.1113732
  -0.4389632  -1.4227193  -1.1899687   0.1953450   0.2141035  -0.2187896
   0.0064865   1.1580621  -0.1355495  -0.1102114   0.1865869   0.2830149
  -0.7514054   1.0412503  -0.5872881   0.0296702  -0.0917498   0.4726585
   0.7965624  -0.7023473  -0.5435622   0.1416371  -1.6081438  -1.4397638
  -0.9467614  -0.4521890   1.5150826  -0.0908722  -0.0722721   0.1094947
   0.4991300  -1.1324843  -0.9249463   0.0693645  -0.5508144  -0.2413781
   1.1443389   0.3685014   0.2677890   0.2005055  -0.1502292  -0.1254044
   0.0510189  -0.4124046  -0.1578948   0.1257805   0.0702266  -0.4070761
   1.0438325   0.7690602  -0.7270677  -0.4232382  -0.2136472   0.2147349
   1.2540212   0.9219488   2.1033606   0.2039957  -0.1351356  -0.1680154
   0.0680393   0.2532642   0.5990420  -0.7632738   1.0438241  -0.7847157
  -0.0076624  -0.3502793  -0.0513774   0.4680449   0.5384815   0.7544644
  -0.1978411  -0.4332096   0.1420749   0.2360823   0.3337536   0.0207656
  -0.2725029  -0.9082744  -0.4283180   0.2006860   0.2967579  -1.8963725
   0.0960184   0.3989316  -0.2449698   0.4444355  -0.9066326  -1.3112273
  -0.0260866  -0.0629518   0.0341743   0.1980323   0.0302155  -0.1031237
   0.5670283   0.9851678   0.7641524   0.0474451   0.4487627   0.4282837
   0.2356061   0.0232565   0.0702787  -0.7999368  -1.1520061   0.5091232
   0.2071787   0.0304928  -1.2763734  -0.1006213   0.1318829   0.0460860
  -0.1009517   0.1911562  -0.2238530  -0.3303362   0.1116839   0.6490721
   0.6979434   0.0754147   0.8634496  -0.3594330   0.1962142  -0.0381867
   0.5851351   1.1438722   0.5014051   0.1445223  -0.1192758   0.1441907
   0.2542015  -0.5770348  -1.4288361  -0.8109386  -0.6373694   0.5890739
   0.1089639   0.1657949   0.0303846   0.6350015  -1.6314008   0.7474741
  -0.1847986   0.3258337  -1.0282032  -0.1626767   0.0038290   0.0090078
   0.0972597  -0.1903265  -0.2603278   0.1268692  -0.0326894   0.0344302
  -0.0365563   0.2010838  -0.2056852   0.1183855   0.0786115  -0.1511267
   0.2424182   0.1086457  -0.1883438   0.8845180  -1.2497604  -1.1017085
  -0.0913128   0.0400491   0.1649800   0.0377413   0.4836672  -0.1293443
  -0.2737019   0.2331556   0.2062118   0.5274383  -0.5846614   0.2679355
   1.6894531  -0.5791293  -0.0718214   0.5207418   0.5299390   1.1744059
  -0.0703534   0.0360955   0.2898713   0.0117138   0.1376823  -0.0955066
  -0.0104551   0.0042018  -0.0516662   0.2560553  -0.0620060   0.9109932
   0.0402612  -0.1195406   0.2598071   0.0877283  -0.0184999  -0.8522622
  -0.0927189   0.2099572  -0.1952962  -0.7820216  -0.2423853  -0.1410835
   0.1328139   0.4980066   0.0723917   0.4754555  -0.4513177   0.8524987
   0.4506105  -0.0147425   1.6634742   0.2423550  -0.0828227  -0.2656683
  -0.2033689   0.0521514  -0.5689500   0.0652700   1.7958018  -0.0858081
   2.1542299  -0.6004942   0.8560227   0.2343746   0.4294929   0.0429461
   1.1207143   1.5161996  -0.7844943  -1.8329911  -0.5075062  -0.5994994
  -0.0056566  -2.3647831  -0.6570494  -0.0407927  -0.0129003   0.1666381
   0.2348450  -0.1630459   0.1715487  -0.2518306   0.1150810   0.1044593
   0.5750700  -0.1815412   0.2614350   0.0572935   0.1437439  -0.3037679
  -2.1746543  -0.0203810   0.1842221   0.1054572   0.0207680  -0.4567869
   0.5258573  -0.1551826  -1.0312051  -1.5662527  -0.0547161   1.1606341
   0.0568902   0.1758298   0.4315437   0.2868451   0.1226046   0.7987863
  -1.0601236  -0.2214082   0.0732961  -0.0506746  -0.1396786  -0.1710117
   0.3092302  -0.1337437   0.5999032  -0.3200096   0.5875822  -0.5182546
   0.1459615   0.0615625   0.0126453  -1.8064217   1.1732343   0.3518147
  -0.3913794   0.4175425   0.5530439  -0.2770515   0.1779776   0.0538631
  -0.0653554  -0.1527723   1.1529088  -0.6670772   0.1626803   0.5015287
  -0.8164185  -0.2774528  -0.3279963   0.2011348   0.1285588   0.0743700
  -0.0888506  -0.3312571  -0.0473939  -0.3499244   0.1241031  -0.1161059
   0.1124511   0.9021576   0.0305216   0.0764581  -0.3397641  -0.1198195
   0.7944149   0.2135063  -1.6170574   0.2388221  -0.0948283   0.2811101
  -0.4866382   0.9402902  -1.3147425   0.3972578  -1.0489279   0.5855064
  -0.1310226  -0.0023007   0.0003221  -1.3307129  -0.5192723   0.0112338
   0.3928780   0.4073855  -0.7478187   0.1983863   0.0032363  -0.2553512
   0.1426873   0.6478254   1.9108753  -0.1010906  -0.1654822  -0.9025241
  -0.0896474   0.3461197  -0.1131286  -0.4380241  -0.1393983   0.7897957
   0.0659005   0.0961342  -0.0614262  -0.2325169   0.0958587  -0.1552079
  -0.2547009   0.7465306   0.2422833   0.4520215  -0.0943174  -1.2950381
   0.1889395   0.1537340  -0.0091424  -0.7785590  -0.0748582  -0.7811420
   0.0508795  -0.3826947   0.7776298  -0.0327121   0.1827150   0.0967911
   0.0621735  -0.1151561  -0.1053456   0.1651943   0.0527389   0.3384771
   0.8774689   1.2144298   0.1796801  -0.0435248  -0.1988993  -0.0839055
  -0.2011811   1.3557045   0.6934795   0.2571876  -0.4777579  -0.0920209
  -0.1983865  -0.2552455  -0.0257116  -0.2163095  -0.0600034  -0.0174255
   0.1181852   0.0158322  -0.0914676   0.2134914  -1.3664753  -0.3849378
  -0.0048212  -0.0946741  -0.3361373  -0.1343791   0.2380844  -1.3657383
  -0.5354577   0.5609657   0.0144805   0.1204464  -0.5869786  -0.3140660
   0.7770694   1.1093962  -0.4688314  -0.1236488   0.1813982   0.0449894
  -1.0994276  -0.3349539  -0.1625605   0.2002304   0.0797498   0.1627393
  -0.4778309  -0.6065229   0.3267598  -0.2546836   1.7600805  -0.2266332
   0.5208833  -0.3640730  -0.5165010  -0.0092263  -0.1001723   0.0557992
  -0.6500121  -0.2606824   0.9792229   0.9345892  -0.2130127   0.7986241
  -1.2310533   0.2730757  -0.3314097  -0.1044670  -0.0341683  -0.2438863
  -0.3064043   0.1891319   0.1882710   0.0109870   0.0032792  -0.1169609
   0.5182626  -0.2083610  -0.7997738   0.1907320   0.1947067   0.1985272
   0.6131552  -0.6564757   0.2312406  -0.1709681  -0.1573863  -0.0549082
  -1.3050215  -1.0456787  -1.2109217  -1.0318860   0.9131663   0.1668191
   0.0100076  -0.0186018  -0.0368150   0.2366756   0.9291191  -1.1190228
   0.3185479   0.0788068  -1.2310011  -0.3798154  -0.1763199  -0.1496354
  -0.6503873  -1.1525140   0.2623299  -0.9601649  -1.4627416   0.2163003
   0.2066284   0.0657293   0.2669231   0.1497973   0.4661266   0.1668399
   0.0024855  -0.1581137  -0.2108317  -0.1811368   0.0312325  -0.1781614
   1.0858285  -0.7877196  -0.6161622   1.0315686  -0.4081029  -0.0452057
  -0.1882570  -0.2241928  -0.0852327   0.3766613   0.5735024  -0.4513182
   0.2535140  -0.0000801  -0.1366376   0.0522450   0.0986050  -0.3745197
  -0.1944717   0.1209825  -0.1583171  -0.0733179  -0.2833081   0.1987736
   0.5348636   0.1565874  -0.7237225  -0.0818352   0.0202228   0.3687263
   0.0837854   0.4289699  -0.8092111  -0.3550154   0.4099234   0.0782523
   0.9388186   1.2243345  -1.5577456   0.1990989   0.0292494  -0.1564689
  -0.4667010   0.1989288  -0.0142029  -2.3686143   0.9119657   1.3659835
  -1.1301167   0.2757882   0.0886957  -0.2849352  -0.1707201  -0.0024589
  -0.1706450   0.6006466  -0.3678549  -0.0135836  -0.0445843   0.1687578
   0.0421380   0.1487666  -0.2770230  -0.1425194   0.3160525  -0.1426547
  -0.1274128   0.8524964   0.7553012   0.1160067   0.0909681   0.0698134
  -1.0094147  -1.0198226  -0.4982803   0.0129902   0.0355853  -0.0195630
   0.9713286   0.3236353  -0.0490447   1.4468474   0.6272380   0.3018365
   0.0297332  -0.1819509   0.2455311   1.6113470   0.7878219   0.9997742
  -0.2744623   0.5227047  -0.0852835   0.0133057   0.1620342   0.1748384
  -0.4489832  -0.4595582   0.3725888   0.6798524   0.0573423   0.1381569
  -0.3001120   0.0076348  -0.6099729  -0.3237557  -1.3676019   0.7898427
  -0.6723325   0.2357759  -0.7212678  -0.4471855  -0.7899961   0.0259165
  -0.2113327   0.1509050  -0.0599636  -0.0117093   0.3980594  -0.0393116
   0.1240846   0.1533520   0.4205704   0.1160292  -0.1769383  -0.3536221
  -0.0955564  -0.0409986  -0.1873918  -1.4294154   0.5248600   0.3620536
  -0.0195639   0.1695671  -0.0916315  -0.1843763  -0.5523558  -1.0392354
  -0.1998055   0.2555589   0.2239884  -0.3179325  -1.1387204  -1.1842595
   0.4541384   0.4172603   0.4769415   0.2622842  -0.3213430   0.8793896
  -0.1485296  -0.2568087   0.2466638  -1.3700584  -1.0958853   1.3172866
  -0.1915380  -1.2779536   1.4061667  -0.3440390  -0.2601700   0.3079378
   0.5450914  -1.3060712  -0.4997541   0.3173936   0.2540974   0.5597104
   0.4514164  -0.2246707  -0.3177538  -0.0903179  -0.0063606  -0.0445631
  -0.2196358  -0.0830044  -0.1366580  -0.0015490   0.0470688   0.1008494
   0.6254087  -0.9829122  -0.2698163  -0.6059631   0.2350833  -0.2612273
   0.8682742   0.6093886   0.2664805   0.2041010  -0.1933903   0.0115962
   0.3677488  -0.2467218  -0.2671005   0.2614681  -0.2416536   1.9146875
  -0.2207789   0.3979330  -0.0011985  -0.2256556   0.9099355  -0.4808660
  -0.0216477  -0.2885061   0.3698916   0.4040287  -0.9354855  -1.3140120
   0.1692688   0.1832229   1.8040424  -0.5619865   0.1003282   0.4212633
  -0.1346774   0.1802425   0.1248895   0.7583488   1.5291778  -0.4588219
   0.2686998  -0.1127601   0.4538919   0.8768971   0.9026476   0.6005032
   0.1689537   0.0371694   0.3062312  -0.0346566   0.2156356  -0.4326671
   0.2108815  -0.1308348  -0.1153787   1.3838524   0.1791867  -0.1704148
  -0.1111779   0.0356192  -0.1593666  -1.1991945  -0.1073335   0.1301352
  -0.0091029   0.1374370   0.0576961  -0.7090333   0.9114509   0.4753344
   1.2958723   0.2681723   0.4316981  -0.7249385   1.1637921  -0.4571708
   0.3166540   0.0816891  -0.1419378  -0.2880715  -0.1376723   0.0721233
  -0.2552649   0.0501086  -0.2468070   0.2689270  -0.0941166   0.7033053
  -0.3678426  -0.8789926  -0.2110691   0.8402558   0.2828347   0.3456001
   0.1246660   0.0674753   0.0596247   0.6906713  -0.9397218  -0.0632165
   0.4426764   0.3407395   0.8653624  -0.0580800  -0.4490428   0.3761564
  -0.6435587  -0.3634925  -0.6241280  -0.6608221  -1.2036818   0.3734454
  -0.2670481   0.0563929   0.2838142   0.6294779   0.2901480   0.3426721
   0.3283982   0.3693051  -0.0413073  -0.0011568   0.0990543   0.2677011
   0.2995424   0.1264016   0.0353342  -0.3845755  -1.2009083  -0.6066587
   0.2918857  -0.0468490  -0.0464971   0.7820922   0.6688843  -0.4949306
  -0.0310196   0.3947248  -0.1979398  -0.9137601  -0.1751705   1.2063820
   0.3059766   0.1564981   0.0962429  -0.7279391  -0.3219674   0.5479355
   0.7844633  -0.3561030  -1.2517204   0.2035489  -0.7903287   0.9592574
  -0.1325233   0.1936700  -0.1664837  -0.7829881   0.4036470   1.1624405
   0.2475842   0.1455357   0.2627622  -0.0543670   0.1454940  -0.0470636
  -0.1403488  -0.1211090   0.0569901   0.8447678  -0.3401236   0.6116527
   0.0528722  -0.0449569  -0.1228174  -2.0554881  -0.4302359   0.7738027
  -0.3169984   0.0471432   0.2093492   0.7767711   0.9139493   0.3957672
  -0.5244497  -1.4201834   0.0670635  -0.1231196   0.4990409  -0.2457140
   0.8124345   0.1782657  -1.2898051   1.3928075   0.2022732  -0.3483367
   0.0665838  -0.0621685  -0.0587998   0.9676801  -1.2709734   0.1339685
  -0.0631574   0.1492451  -0.6360432   0.1725724   0.0738574  -0.1273380
  -0.2771159   1.9970289   1.1731307   0.1476496  -0.2765601   0.0600439
   0.0417584  -0.1450635  -0.2977184  -1.1378468   1.0124015   0.0570076
   0.5966993  -0.0967248   0.5237441   0.0477781   0.0943244   0.0544776
  -0.5143572   0.6937329   0.5974858   0.9115265   1.1462345  -0.7954267
   0.1482252  -0.0613751  -0.1389478  -0.1874714  -0.1037085  -0.1849118
  -0.0199319  -0.3474307  -0.3300584  -0.5209193   0.2224058   0.9024479
   0.2598678  -0.1398545   0.3643957   0.6800171   0.1740599   1.5445295
   0.0433280  -0.2097061  -0.1060461   0.1728856  -0.9437823  -0.3100123
  -0.0877239  -0.2436406   0.4222433   0.6492362  -1.4737430  -0.7807189
  -0.2602743  -0.4979668  -0.3755206   1.7212241   0.4527180  -0.3335779
   0.0000497   0.3553928   0.2005783   1.0152702   0.1300220   0.3463861
   0.4868866   0.2815086  -1.0340996   0.6359971   0.0563077   0.1525356
   0.0175330   0.2260007  -0.4237467   0.0478871   0.1503424   0.3314214
   0.0437215   0.3582444  -0.1711892   0.0434011  -1.5351782   0.0253168
  -0.0161089  -0.0055977  -0.1330673  -0.3384075   0.1019088   1.1540744
   0.3476449   0.3676558   0.4166911  -0.4195116  -0.8539357   0.5900982
  -0.0714837  -0.1913276  -0.2090206  -0.0940155   0.5380064  -1.2053047
  -1.2291307  -0.4155196   0.5739548   0.3528086  -0.9330788  -0.0437878
   0.5591317   0.1493309   0.2256947   0.4629910   0.1808503  -0.0632330
   0.5376257   0.2382329  -0.4382734  -0.4328162   0.2372126   0.2020032
  -0.2556311  -0.1705538  -0.2013370  -0.0473316  -0.0415211  -0.0197378
  -0.2544773  -0.2553341  -0.1184958  -0.7430325  -0.3956189   0.3375070
  -0.1391445   0.2257483  -0.2826478  -0.4971065   1.0085099   0.1188007
   0.4366572   0.0457037   0.0257784  -0.3771003  -0.2053770   0.6101479
  -0.3240308   0.5454143  -1.2044059  -0.1576493   0.0566310  -0.7050409
   0.0096187   0.0304876   0.0492611   0.1095838   0.1840458   0.2004374
  -0.0458442  -0.2155334   0.1734370  -1.1964871   1.6033685   0.5064112
   0.1757764   0.1756704  -0.0737225   0.4709144   0.4004230  -1.3014044
   0.1307760  -0.2469476  -0.0937910   1.4019888  -0.0852961  -0.3411178
  -0.9875731  -0.9140761  -0.8786316  -1.4442587  -0.7090031  -1.1530254
   0.0904409  -0.0672022   0.4205956   0.1264559  -0.0132641   0.0619184
   0.3840825   0.0880979  -0.1282058   0.7550770   0.1590936  -0.6326979
   0.2548355  -0.2955512   0.0346820  -0.4515583  -0.3794668  -0.6378896
   0.0682417  -0.0476153   0.0169756  -0.2584154   0.9887208  -1.0715483
  -0.5675488   0.5343211   0.0304904  -0.2079845   0.3567833   0.3647683
  -0.7733172  -0.1495051   0.5896381  -0.3401665  -0.0785008   0.9823468
  -0.1296401  -0.0090985   0.3304406   0.1816835   0.2198848  -0.0233951
  -0.0224474   0.0113971  -0.5860979  -0.0196657  -0.3230377  -0.0641815
   0.4329666   0.4658451  -0.3177366   0.0905930  -0.1607711   0.0031907
   0.9537629  -0.1523022  -0.9903703  -0.1267431   0.0110381  -0.0233981
  -0.0914752  -0.2457101   0.6258223   0.2963292   0.1268525  -0.0612230
  -0.6587131  -0.4876094  -0.9828502  -0.7860223   0.2895295   0.4720759
  -0.2795080   0.0707121   0.0716207   0.4662698   0.9982848  -0.3918762
   0.4031588   0.8528250   0.7844246  -0.0239203   0.0926399  -0.1124729
  -0.0877434  -0.0148020  -0.1702329  -1.6162683   0.7039149   0.1887231
   1.1720841   0.3389889   0.8791390  -0.7923080  -0.4377831  -1.9199875
   0.1913431  -0.3490209  -0.1878684  -0.3789627  -0.3330080   0.1382332
  -0.2574496  -0.0849728   0.0257887   0.9976134   0.0817477   1.3407351
   0.2169008  -0.3019251   0.2783169  -0.5270482   0.5098603   0.7817312
  -0.1369142   0.0004260  -0.4031408  -0.1945022   0.0898343  -0.5597323
   1.5587243   0.6165482  -0.4723321   0.4346808  -0.0107132   0.0525751
   0.7881577   0.3200548   0.6366070   0.1597387   0.4550223  -0.2087735
  -0.0127151   0.4038652  -0.1475260  -0.1896964   0.0846852  -0.0902709
   0.2351138  -0.0844331   0.0656056  -0.2948722  -0.1300114  -0.2304038
  -0.1113251   0.2973456  -0.3519401  -0.0011450   0.1541676  -0.5724394
  -0.0104658  -0.2188553  -0.0401924  -0.1622067   0.2092919   0.3494213
   0.1461166  -0.1145234  -0.6196196  -0.4298856  -0.3692844   0.2558327
   0.5567074   0.5769472  -0.3319151  -0.0506231  -0.0374451   0.3712398
   0.4159085   0.0991124   0.3030695   0.0177894  -0.5940423  -0.3818982
  -0.4130668   0.4497361  -0.0184239   0.0714329  -0.1511612  -0.1202660
   0.0577963  -0.1278444   0.1382342  -0.0089751   0.2991975  -0.2953057
  -0.0804555   0.1479934  -0.4929865   0.2396246   0.0032131   0.1027197
  -0.0674603   0.1190751   0.1083484   1.3584558  -1.3622930   0.6463062
   0.1807069   0.0405989   0.1243580  -0.5602093   0.4468338  -0.2571267
  -0.0872404   0.1799329   0.0473348  -0.1753902  -0.4862334  -0.4926425
  -0.2116984  -0.7003935  -0.3610105  -0.7855286  -0.0769905   0.5228227
   0.0937555  -0.1281521  -0.2542787   0.3270787   0.0449288   0.0838376
  -0.0959585  -0.1536415  -0.0663525  -1.0192291  -0.0889616  -0.1941702
  -0.1625583   0.2313317   0.2922677  -0.7881934   1.0498088   0.4331461
  -0.0576579  -0.2472991  -0.1736551   0.0627334  -0.4573287  -0.4946206
   0.3687831   0.7738981   1.2664320   0.1087595   0.0111581   0.4228091
   2.5269228   0.8493308  -1.4026171  -0.3691460   0.1812234  -0.0287190
   0.5853423  -0.2573626   0.2732023  -0.4008122  -1.1502159  -0.6206381
   0.2177682   0.4686315  -0.6735229  -0.0403298   0.2107487   0.1874567
   0.7105861   0.3207851  -0.0933108   0.3646731   0.1404472   0.0280089
   0.0469968  -0.7153677  -0.8787643  -0.1434910   0.1800108  -0.0529380
   0.1492592   0.0542680  -0.2023798   0.3119394   0.1056044  -0.2443176
   0.2262580   0.3884788  -0.2524771  -0.0947307   0.0903054   0.0000420
  -0.6755917   0.1249022   1.4180480   0.0744989  -0.2491506  -0.0137119
   0.3649456   0.8898028   0.6912241   1.2606033   1.2814326   1.6523553
   0.2662281   0.2475356   0.3258884  -0.2972132   0.1730248  -0.2730303
  -1.1765807  -0.8590644  -0.0140948   0.0638564   0.2439046  -0.3147865
  -0.0757991   0.7082900   0.1536042  -0.7907376  -1.0564259   0.9861471
   0.0938276   0.3165320   0.1755893   0.0937618   0.4807334   0.4892898
  -0.1559720   0.1207160  -0.3312198   0.1017964  -0.2901698   0.4079341
  -0.0447316  -0.2301280  -0.6989965  -0.3412481   0.4859098  -0.7189329
   0.1125406   0.3293201  -0.4137055   0.0817571  -0.5056195  -0.1462513
  -1.7120567   0.1437355   0.2424797   0.2746614  -0.0582324   0.1272270
   0.0219622  -0.3015753  -0.0984462   0.0741803   0.1372171   0.0321970
  -0.1670400  -1.2677908   1.8371500   0.0996083   0.5367516   0.5341233
   0.4070992  -0.1973445  -1.2270332  -1.2320892   0.1321311  -0.0461871
   0.1853607  -0.0258152   0.2134559  -0.1889224  -0.0816291   0.0430639
   0.1907258   0.0087179   0.4382684   0.3929734  -1.2759628  -0.2538446
   0.4498613   0.1684760   0.0622696   0.1765203  -1.2575597   0.5104589
   0.0523268  -0.2784939   0.1921878  -0.5044811  -0.4198218   0.7528870
  -0.3527547  -0.8516381  -0.3640115   0.0707926  -0.1685819  -0.3132662
   0.2172318   0.2143318   1.3527103  -0.1266872   0.5807771   0.1791068
   0.2887070  -0.8335565   0.4381125   0.5429933   0.8623838  -0.7026622
   0.9338949  -0.0417695   0.5791682  -0.0389161  -0.0145964   0.0604806
  -0.8015174  -1.0410183   0.4961255   1.3673479   0.4677942   0.8303170
   2.1355537   0.4367064   0.8634852   0.0284748  -0.0250625   0.5083342
  -0.0710404  -0.3923579  -0.1856796   0.0273043  -0.0358110  -0.4872222
  -0.0583801   0.0731120  -0.1073590  -0.0888804   0.0863268  -0.6552963
   0.0498952  -0.0350214   0.4318218  -0.2992602  -0.1454780  -0.5164045
  -0.0139598   0.2960581  -1.5154476  -0.0655860   0.0535571  -0.2998340
  -0.4172005  -0.1469763  -0.0556275   0.2111442   0.5434696   0.6403431
  -0.7968410   1.4042256   1.2649719   0.0473252  -0.0637607  -0.5813619
  -1.1627558  -0.6249131   0.2732348   0.3872926  -0.5145057   0.3289363
  -0.3030717  -0.1385475   0.0845979   0.0189481  -0.0102727  -0.0425251
  -0.0101272  -0.1314946  -0.6021368   0.3780533  -0.1397437   0.0206914
  -0.2856606  -1.9457624  -0.3029140   0.1139557   0.3263651   0.0906769
   0.0578949   0.2517660  -1.1188356  -0.2625682   0.4256565   0.2110765
   0.1521399   1.1489346   0.4634595  -0.8193320   0.5083957  -1.0399844
  -0.6001110   0.6742972   1.0220478   0.1530599  -0.0228141  -0.4880281
  -0.0706198  -0.5103932   1.4408463  -0.2825025   0.7055765   0.9642878
  -0.1941274  -0.1868985   0.0801397  -0.9608823  -0.6942040  -0.9439784
   0.4693040   1.5523374   1.4683562   0.5411584   0.1734754  -0.4705145
   0.2942121  -0.1661583   0.0248026  -0.0384223  -0.0822967  -0.1298347
   0.1914082   0.0278319   0.3884764   1.2345346  -1.0609882  -0.4582683
   0.2213460  -0.0633857   0.0210221  -0.0785941   0.5189249   0.5198999
   0.0245359   0.1345753   0.3725976  -0.7934461  -1.2065471  -0.0817013
  -0.7823001  -0.0460658   0.2899878   0.3476095  -0.1029747  -0.6861609
   1.2396424  -0.8646507  -0.1459317   0.5023541  -0.2733015   0.6220914
  -0.1930795   0.0759878  -0.1075898  -0.2081091   1.1384593  -0.8882140
   0.1669893   0.5548645  -0.4832341   0.1311878   0.0651282  -0.0925446
  -0.5984824   1.1057916   0.3080492  -0.4157191   0.2470431   0.1432453
  -0.1028137  -0.0281407  -0.2473231   1.8919849   1.0507790   0.0066709
   0.1114384   0.2614467   0.4644348  -0.3115156  -0.0090373   0.4642333
  -0.6259084   0.1292309  -0.3782291   0.0075760   0.8197690   0.5252266
  -0.0276748  -0.0877307  -0.0125145  -0.0793736   0.1262579  -0.2738929
  -0.3666109  -0.1373735   0.0807707  -1.4635834   0.3428473  -0.7567152
  -0.3567319   0.2020252   0.3744239  -1.6200702  -0.5081447  -1.3854942
  -0.0447324   0.0715922  -0.1077474   0.1185747   0.3371710   0.1528195
   0.4439608   1.1485764  -1.2709423  -0.0356681   0.3278196  -0.0391985
   0.2062311   0.2846550  -0.0934977  -1.3393431   0.2149175  -0.5107543
   0.0618608   0.1018447   0.3768290  -1.1528737   0.4849356   1.2226071
  -0.5970481  -0.2159023  -0.1295477  -0.2776155  -0.3107483  -0.0618903
  -0.0911420  -0.8257190  -0.1389233  -0.0910236  -0.6251967  -0.6293800
  -0.6854407   0.6113618   1.4864203  -0.0933286  -0.0308580   0.1893729
  -0.2189191   0.7745896  -1.3534905   0.3200611   0.2453329  -0.0043517
  -0.1748110  -0.2850210  -0.0334220   0.2825450  -0.0025474  -0.0449756
   1.0044253  -0.8347333   0.0246488  -0.2598148  -0.4227947  -0.1627415
   0.9446805   0.2847082   0.5178466   0.0405805  -0.1589747   0.0476139
  -1.0987104   1.4934344  -0.5005341  -0.2829334   0.4144891   1.3553940
   0.2175392   0.1138041   0.2153237  -0.1685374   0.9037175  -1.6847432
  -0.3042184   0.6217428  -1.3716309  -0.1341350   0.2201790  -0.2244033
  -0.1433943   0.2106302   0.2325585  -0.2800010   0.1158717   0.4520715
   1.6625588   0.1036710  -0.0950893  -0.8316695  -0.8318268  -0.2662223
   0.3208179  -0.0069759  -0.6083077  -0.3310356  -0.0844433  -0.2367435
   0.1057081  -0.0771916  -0.1961948  -0.6737494   0.2461032   1.1625216
  -0.1610660   0.0173818   0.0440923   1.0481643  -1.0827709   0.2685599
   0.0892499   0.3190828   0.0344472  -1.2004776   0.0676294   1.0784239
  -0.1577308   0.1400216  -0.4749561  -0.5103025   0.0139022  -0.4545426
  -0.4901695  -0.0062705   0.2738745   1.3855687   0.6259607   0.1545076
  -0.0122325  -0.1350479   0.2020619   0.3318607   0.1920832   0.9905362
  -0.0799535   0.2921954  -0.0597688   0.2167541  -0.3141121  -0.0205554
  -0.0034903   0.2593995  -0.4132839  -0.1926887  -0.0314744   0.3687356
  -0.6079432   1.4402581   0.2783453  -0.3672319   0.2537677   1.2404927
   0.2206371  -0.2255768   0.0451388  -0.1102673   0.7397405  -0.0982139
  -1.8609731  -0.1542091  -0.8116411   0.2722091   0.4508662   0.3285417
   1.1820534   0.0463780   0.4380921   0.1865439   0.3316874   0.6639077
   0.1175043  -0.2319463  -0.2140168   0.3090768  -0.0151349  -0.9813776
   0.1681249  -0.0093332  -0.0052270  -0.2147641   0.3200541  -0.1464498
  -0.1939918  -0.0311579   0.3454801  -0.8328326   0.8847262   1.4807981
   0.1732474   0.0329615   0.0405486   0.2155082  -1.4776663   1.1952829
  -0.0102998   0.3484130   0.4282177   0.5040425   0.5005519  -0.8974052
   1.8772992   0.1327182  -0.9757728   1.4542517  -1.9264127  -1.0884432
  -0.0966287  -0.1411536  -0.0346502   0.2379953   0.2261388  -0.0360233
   0.0334125   0.0225607   0.0324203   0.4578194  -0.6121529   1.0141391
  -0.1639643   0.0042883  -0.0023933   0.5009099  -0.3551753   0.4680508
   0.1051834  -0.4373011  -0.4303832  -0.8853996   0.4938061   0.4479047
   0.0153408  -0.1258340  -0.0889427   0.5797381   0.2326199  -0.2704130
   0.5549357  -0.8518932   1.2451178  -0.7982158  -0.4728197   0.5868483
  -0.5137392  -0.0932833   0.2555964  -0.3831684  -1.0096653  -0.4457482
   1.2196123  -0.8057539   1.1104029  -0.4463386  -0.4038215   0.0706359
   0.1127144  -1.1288522  -1.0423722  -0.3711368   0.0330759  -0.1507575
   0.4021116   0.5335684   0.1379791  -0.0209462  -0.0189116   0.0203181
   0.1196588  -0.3521080  -0.1027964  -0.0894830   0.1007867  -0.3695372
   1.5024860  -1.1617132  -0.8901578  -0.1259940   0.0798510   0.1293366
   0.5907026   1.1262120   0.4073833  -0.3273536  -0.2133451   0.0827315
   0.2440865  -0.6296321   0.4131704   0.1782345  -0.9968392   0.6814565
   0.3051131   0.4187357  -0.2114733   0.5478893   0.8824417   0.1885063
   0.8622086   1.0915238  -1.0322407   0.0147903  -0.1582615  -0.1871405
  -0.7680622   0.5104727  -0.8920666   1.0853855  -0.4444884  -0.4874161
  -0.1255208   0.0946105   0.2581329  -0.1570827   0.4565523   0.5523823
   0.1656294  -0.0971603  -0.1895402   0.2136550  -0.4948207   0.3208703
  -0.3670052  -0.2249687  -1.7624241   0.3975852  -0.2384297  -0.3660988
   0.1822052  -0.0751482  -0.3996510   0.6303736   0.2545026  -0.7254548
   0.1860902   1.4528147  -0.8391035   0.0379043  -0.1091100   0.0386315
  -0.0706957  -0.3269833   0.3923447   0.1621077  -0.2926993  -0.1134594
   0.7721235  -0.3901871   0.0737273   0.3516150   0.1671210   0.2403489
   0.2332757  -1.2852199   1.2765916  -0.0315449   0.2944775   0.1911864
   1.0610133   1.3290959   0.7612716  -0.0729949  -0.2415405  -0.0333463
  -0.9605722  -1.7355660  -1.2399720  -0.0257862   0.2457779   0.0652725
  -0.0808906   0.2906029   0.1005601   0.3128794   0.0732186   0.0939696
  -0.5614768   0.5350736   0.0697612  -0.0599318  -0.1092893  -0.2329689
  -0.0445735  -1.3228133  -0.0081345   0.5607275   0.0922328   0.0401093
  -1.2758142  -0.0939749   0.7801370   0.4684036   0.9124389  -0.0881453
  -0.0654624  -0.3486433  -0.1309359   0.9863318   0.3867035   0.5980000
  -0.7921692   1.2978281   0.3195279  -0.0707544  -0.4334828  -0.0592517
  -0.1835557   0.1884053  -0.1522950  -0.0924371   0.0231929  -0.3325252
   0.0956334  -0.0495382   0.1006701  -0.1948191   0.1390704  -0.0276509
   0.1596320   0.2646370  -0.3188571  -1.9306458  -0.8969558  -0.5793710
   0.1856383  -0.1262112  -0.2024382   0.2499380   1.8025356   1.3182865
  -0.0042333   0.1990822   0.2539362   0.5026803  -0.5419035  -0.1277531
  -0.0000252  -0.5646231  -0.1805124   0.1150405   0.4650310   0.0704982
   0.1826373   0.1582171   0.1448948  -0.1254200  -0.0109973  -0.0853461
  -0.3213961  -0.2820999   0.3612167  -0.1455599  -0.2914488   0.2138107
   1.0794640  -0.2839461   0.1333762  -0.0702040   0.0684448  -0.2311684
  -1.1199761   0.0829539   0.8656711  -0.1786600  -0.1238350   0.0383053
  -0.0623604   0.2445913   0.1644835   0.0081256  -0.0508718   0.0350079
  -1.8186040   0.7437897  -1.1296729  -0.0607191  -0.0084733  -0.1087477
  -1.6728767  -1.3521017  -0.4953242  -0.2117864   0.2412778   0.0692450
  -0.1725622   0.2138636  -0.6743082  -0.2261753   0.0038478   0.0130152
   0.4228549   0.3517925  -1.4267797   0.4190973  -0.4138801  -1.2448704
   0.1507157   0.0133008  -0.7654335   0.0008363   0.5485053   0.0849805
  -0.2790018  -0.1733646  -0.0202745  -0.0657274  -0.3826617   0.2839942
   0.0939355  -0.0436920  -0.1923762   0.2218583   0.2402948  -0.0702284
   0.5102940   0.0854628  -0.5169976   0.0153981   0.3781753   0.3049247
   0.7081593  -0.1250232   0.0415128   0.0121642  -0.6571153  -1.0886589
   0.2109881  -0.0576070  -0.0625797  -0.0079633   0.2111412   0.0256223
  -0.2710584   0.2017748   0.2873741   0.0132936  -0.1957769  -3.4380423
   0.0709432   0.0618458  -0.0304962   0.5972654   0.0654471  -0.0000866
  -0.1594942  -0.1063467   0.1902251   0.1940946  -1.3683635   0.1315966
   0.3271741   0.7323188   0.4503592  -0.3420241   0.1691162  -0.0433783
  -1.1515477  -1.0603867   1.1264041  -0.0347176  -1.0968300  -0.0803195
  -0.3061203  -0.0262808  -0.2420687  -1.7254621  -0.0705990  -0.6217819
  -0.2068024   0.6290004   0.0336143   0.0064713  -0.2873840  -0.1456335
   0.3497280  -0.5853920  -1.0318152   0.0374509  -0.0430312   0.1709782
   0.0203546   0.0739109  -0.0730903   1.7910781   0.9419938   0.1330721
   0.4386175   0.1782884  -0.4883420  -0.3927948   0.1608680  -0.0787712
   0.4712590   1.3075627   0.7709097   1.7551685   1.1426226  -1.3015392
   0.0854224   0.1248388   0.1525911   0.3781747   0.0582662   0.2535706
   0.5002839   0.0465089   0.0687378  -0.5354264   0.9610585  -0.9493498
  -0.1513495  -0.0279313   0.0594165   0.6723107   0.2007810  -0.1679832
   0.1408616  -0.0043238  -0.1111987   1.7491100  -0.3582422  -0.3750285
   1.2584265  -0.3540563  -1.3146730  -0.1757088   0.1634506  -0.1297627
  -0.0987310   0.3720425  -1.3199487  -0.7657751  -0.1063512   0.0220339
   0.3906264   0.0790196   0.2074951   0.1125605   0.0829393  -0.0348069
  -0.0777465   0.1562071  -0.0471058   0.0231439   0.2050652   0.0260720
  -0.1297249  -0.5247870   0.1046598  -0.1622953  -0.1579617  -0.1286658
  -0.0904627   0.4099764   0.5887982   0.0405307  -0.0999341   0.1437641
   0.1892993  -0.2461432   1.0176004  -0.1401952   0.1888622  -0.1180000
  -1.1368561   0.1158662   0.3040251   0.2135579  -0.2232432  -0.2588585
   1.1960901   1.1054210  -1.0898096  -0.2516848  -1.0774640   1.2684441
   0.1770160  -0.0966509  -0.3628634   0.1440712  -0.1810048   0.2818336
  -0.4083993  -0.0171270   0.7062364   0.3169521   0.2948680  -0.9956055
  -0.1481669  -0.0255541   0.3530827   0.5053262  -0.5394639  -0.7663544
   1.2134960  -0.4221265   0.1811191  -0.1962582   0.1914445   0.3053110
   0.0872815  -0.0046563   0.0065094   0.0810257  -0.2180346  -0.0901013
  -0.2531321   0.4844729   0.1182081   0.3845721   1.3879480   0.1316384
  -0.3630628   0.2318446   0.2346463  -1.1765235  -0.7701043   0.8797241
   0.0375330   0.0819245  -0.2133733  -0.4187344  -0.7279162   0.8957819
   0.3052947  -0.1179633   0.2140374  -0.9138732  -0.1579834   0.7643608
  -0.5586101  -0.2518485  -0.2090656   0.8506564   0.1345763   1.0253243
  -0.0341099   0.3267619   0.1611114  -0.4259286  -1.0428150   0.5205158
  -0.3723004   1.2764168   1.0476493  -1.5254088  -0.5782579  -0.8032272
   0.1655452   0.4131151   0.0298293   0.3135201  -0.0837784   0.0553243
  -0.1179495  -0.0646716  -0.1671745  -0.3847608  -1.3643394  -1.0683827
  -0.4078505   0.1486974   0.2894067   0.0485165  -0.5453769   1.9413270
  -0.1149329   0.1748046  -0.0483335  -1.2853923   1.0388237   0.3322331
   0.0786207  -0.0764709  -0.6321030   0.0234104   0.2010628   0.3390750
  -0.0941212   0.0941321   0.3963137   0.4566612  -0.4089393  -0.1911859
   0.0268994   0.2867018  -0.2842988  -0.1346141  -0.1245543  -0.0274164
   0.0383585   0.0788378  -0.0453796   0.9506195  -0.6686220  -0.3994842
   0.1287463   0.1624022  -0.3989811  -1.2491306   0.7213144   0.8704342
  -0.1305000   0.1513883  -0.3392833   0.0901489  -0.2404449   0.4189845
   0.9564721  -0.4557318   1.2263277   0.3836697  -0.0346311   0.0885424
  -0.0414456  -0.6520338   0.7468259  -0.1051310  -0.0825482  -0.4423039
  -0.1326663  -1.0003636   0.2730895   1.2138427   1.2460876   0.2330438
  -2.2633377  -1.7141860   1.0018201  -0.0523051  -0.2760903   0.2089078
   0.5105236  -0.1473464   0.5763556   0.1611137   0.9579684  -0.5738186
  -1.2842229  -0.2372636  -0.8258163  -0.0479735  -0.1470645   0.2988562
   0.1587180  -0.1830757   0.1991995  -0.3080444   0.1910798   0.2795576
  -1.6091519  -0.0928047  -0.0361005  -0.0487483   0.0393334   0.3138182
   0.7266504   0.0147510  -1.3404194  -0.1761151   0.0854912  -0.0624881
  -0.3800807  -0.7391269  -0.6438852  -0.2369783  -0.8594137  -1.0266499
  -0.0869535   0.4201353  -0.1987198  -0.3283053   0.1282247   1.3032046
   0.6870203  -0.4942535   0.1362042   0.0190030  -0.1997244  -0.1198991
   0.0443208  -0.1653123  -0.0859231   0.2928901   0.0186894  -0.7068112
   0.3434858   0.7916577  -0.4601431   0.6257267  -1.7337154  -2.3270447
  -0.0717775   0.0606590  -0.1752561  -0.0534276  -0.3024610   0.0227762
   0.0253429  -0.3000939   0.0286344   0.8590701  -0.0836539   0.2291849
  -0.0775043  -0.0999362  -0.0691653  -0.1107723  -1.6760460   0.3393631
   0.0135998  -0.4631408   0.1867030  -0.8069323  -0.6966779   0.6935390
  -0.7393311  -0.0658327   1.0413138   0.0653261  -0.0222998  -0.0605303
   0.0441293  -1.2978242   0.0260125  -0.0761299   0.2516352   0.2697753
   0.0101322   0.1212335   0.0477532   0.0494943   0.1002828   0.1168328
   0.0749069   0.0158110   0.5555436   0.0657772  -0.1537845   0.1543244
   0.0774899   0.1353389  -0.1818738  -0.1907511   0.2049898   0.2964358
   0.1183730   0.1648848   0.8205099   0.4798432  -0.3402711   0.4875593
  -0.0147144  -0.1793138  -0.1918280  -0.2456683  -0.2735953  -0.4682318
  -0.2993142   0.1584265   0.3014122  -1.3296390   0.7277537  -0.2708812
  -0.2218098   0.2405061  -0.1589949  -0.7727644   1.4012762  -1.2861696
  -0.0964016   0.0777760   0.0939922  -1.5965908  -1.4235893  -0.6230038
  -0.2761325   0.2983642  -0.3271636   0.0779326   0.0446863   0.0752399
  -0.0750190  -0.2562756   0.1622285   0.0937134  -0.9708314   1.2165602
  -0.0613166   0.0545439   0.0187436   0.1151429  -0.9303775   0.3500956
   0.2423514  -0.0446713   0.0653104   0.1293624  -0.9644577  -0.7203940
  -0.6058767   0.1187233  -1.0936196   1.4488028   0.0610766  -0.3938886
   0.1052786  -0.0655589   0.0887281   0.1815717  -0.1349913  -0.0930714
  -0.0745904   0.2904016   0.1651377   1.1060595  -0.2226049  -0.3527183
  -0.1456021  -0.2353130  -0.2471731   0.1049857   0.9874701   0.3010308
   0.0291914  -0.1297153  -0.1270527  -0.3182848  -0.1643094   0.3813276
  -0.0517230   0.0295041  -0.0017913  -0.8588702   0.3256793  -0.4539924
  -0.1608538  -0.8205448   0.3772541   0.4488786  -1.2087207   0.3368384
  -0.3289130  -0.4301133   0.1618032  -0.8439728  -0.5070305   0.7711364
   0.1904961   0.2072542  -0.0373276  -0.1094645  -0.2038911  -0.1796251
   0.1750839   0.0170602  -0.2336778  -0.2252378  -0.0530209   0.0793084
  -0.2195243  -0.2678598  -0.0835152  -1.1785340  -0.1251582  -0.7531567
  -0.2047007   0.0646760  -0.5329876  -0.9318501  -1.1084694   0.1653110
   1.2188941   0.3806986  -1.5680052  -0.0734663   0.3934205   0.1397685
   0.1396566   0.2476670  -0.1972719   0.6447994   0.8254811  -0.3370470
  -0.1262693  -0.1151069  -0.2735477  -0.1990050   0.7659041   0.3836254
   0.2504023   0.0768710   0.5706160   0.5362214   0.1411183  -0.8665381
   0.2272493   0.0228252   0.2368361  -0.5966325   0.5538168   0.0715551
   0.1877306  -0.1146075   0.2763815   0.1270917  -1.1983719  -1.2929028
   0.0298598  -0.1739707   0.2230011  -0.0426068   0.2107712  -0.1592155
  -0.2088071  -0.2371032   0.2480153   0.2807694   0.4545499   0.1509152
  -0.3469121  -0.4257928   0.1264172  -0.9240025   0.5131395  -0.9155621
  -0.2713814   0.1984675  -0.0506210  -0.1592247   0.6054189  -0.1729401
   0.2743750  -0.0214012  -0.0493695  -0.6269701   1.1562554  -0.6062329
   0.9971686   0.1778729   0.1295419  -0.5595431   1.2683283   0.6308444
  -0.2831211   0.2806939  -0.3490469  -0.9217357   1.6856369   0.4717239
  -0.1453640   0.2442285   0.1398634   0.1607455  -0.0752902  -0.1350904
  -0.0360514   0.0357930  -0.0989723   0.3100908  -0.3567093  -1.0395904
   0.2863974  -0.0386729   0.0106413   1.7068356   0.3903247  -0.3075195
   0.2626766  -0.0381236   0.1356591  -0.1046715  -1.0107358   0.5361726
   0.0397159   0.5045305   0.1631195   0.2258041  -0.0953510  -0.2184554
   0.9923584  -0.9617205   0.1163554   0.1705512  -0.2730679   0.7296762
  -0.0854797   0.0700356  -0.3462047   0.0197181  -0.0785599   0.0067585
   0.6006496  -0.4857547  -0.7730566  -0.1344633  -0.4019926  -0.2484359
   0.7963925   0.7338863  -0.1563260  -0.1499838  -0.1029130  -0.1219781
  -0.0109614   0.1273561  -0.1722813  -0.0431140   0.3827137  -0.3570072
  -0.0848698  -0.0463489   1.6101737   0.2045510  -0.0402994  -0.0467530
  -0.4911441  -0.1778578  -0.1480253   0.0395032  -0.1787245   0.0307777
   0.0487153   0.6091127   0.0806857  -0.3112580   0.3489462  -1.0629155
   0.0223190   0.3734012   0.6043701   0.6658342  -0.1848148   0.9755573
   2.1493320  -0.4910191   0.9330660   0.2123175  -0.4280944   0.0390637
   0.5231610   0.2926529  -0.4695885   0.1558091  -0.7051511   0.0238217
  -0.2970711  -0.1967467   0.1275348  -0.0100946   0.5292902   0.2917850
  -0.2574127   0.1265404   0.2690204   0.0884829   0.0380098   0.2429237
  -1.4591722  -1.3037385   0.6374620  -0.5642858  -0.3227125   0.0975843
   0.1871131  -0.2956782  -0.0198926   0.4356429   0.2574017   0.4030855
  -0.2574415   0.2655569  -0.2372461  -0.1313773  -0.2093948   0.0306483
  -0.3024542  -0.0128638   0.1106033   0.2681700   0.1133822   0.3042716
  -0.8288575  -0.8619699   0.3449222   0.0208602   0.1968174  -0.1472316
   0.2184625   0.8801700   0.0214224   0.2297071   0.3165201   0.0178662
  -2.1538302   1.0288508   0.2390614  -0.6740411   0.6330553  -0.8287152
   0.1193761   0.1587173   0.0879519   0.3988177  -0.4061108  -0.0171839
   0.3068134   0.3264638  -0.0585666   0.6576598   0.2014450  -0.3079773
   0.5495350   0.7957422  -0.3338403   0.3239097  -0.9131632  -0.6954808
   0.0282977   0.0430180  -0.1657142   0.5524594  -0.0412157  -0.7090992
  -0.4577627   0.6084320  -1.0120470   0.0922975   1.1208486   0.3557334
  -0.1979987  -0.0066692   0.0597935  -0.1582504  -0.2487703   0.2341752
  -0.0478557   0.4350293  -0.0192575  -0.7447849   1.5687880  -0.1492878
   0.0060088  -0.1443742  -0.0789332   0.3782632  -0.9462549  -0.0893372
   0.2666897   0.0081560   0.1660748  -0.2766229  -0.5904147  -0.0304783
  -1.0385304  -0.2718305  -0.8293595   0.2880551  -0.0556078   0.0910871
  -0.9765492   1.7246597   0.2280261   0.1251207   0.0912436  -0.0040260
  -0.9734658  -0.8356974   0.4427592   0.0666112   0.4502425  -0.2206420
  -1.7632368   1.7095059  -0.0787837   0.1512224  -0.1323332   0.0752363
  -0.8423106  -1.3442541  -0.3086028  -0.7001879   1.6328476   1.0793730
  -0.6349127  -0.2126377  -0.2406504  -0.1883966   0.0251231  -0.2433788
  -0.0173996  -0.0961483   0.1145510   0.1806439   0.1369955   0.1317722
  -1.6489864   0.8586406  -0.1762646  -0.1633944   0.1429421   0.1347979
   1.4572284  -0.4794294   1.1888594   0.1772161   0.1820536   0.4615043
   0.5146280  -0.1511728   0.8096769   0.1788214   0.7195319   0.6445239
   0.2191672   0.2438679   0.1953995   1.5288899  -0.5014786   0.1449413
  -0.0204310   0.1927454   0.1232877   0.1651741   0.0777648   0.4349927
  -0.1702360   0.0651537   0.6386208  -0.0636492   0.1404035   0.0491373
  -0.9627431   0.4663005  -0.7881788  -0.2099511   0.2704404   0.4800929
   0.0138757   0.2430091   0.3498998   1.7831944  -0.5698834  -0.1802443
  -0.2599057   0.3144858   0.4347150   0.2291499   0.0120183  -0.2128608
   1.1767965  -0.0827699  -1.4064203   0.0989730   0.2692141  -0.5770991
   0.2956688  -0.1772107  -0.4339368  -0.1624412  -0.5792138   0.8583002
  -0.2043839   0.0621029  -0.0250820   0.3061814  -0.0262360   0.1888199
  -0.3357547  -0.0168282   0.1893040   0.4394527  -1.2329411   0.6226294
   0.2166533  -0.2607631  -0.2724695  -1.1508238   0.5734164  -0.0468704
   0.1128393   0.1107484   0.2527190  -0.3373581  -1.7239536  -0.9100117
   0.0007819   0.0211718   0.1104488   1.7050430   0.9203729  -0.4714440
   0.5033320  -0.3249590  -0.0418450   0.3807338  -0.5829713   0.6269259
  -0.0722361  -0.2060672   0.2561561  -0.3480134   0.7191598  -0.2931353
   0.4963222  -0.4700340   0.8785632   0.2897506   0.8232989   0.1093562
  -0.1327168  -0.1952002   0.0169222  -0.2782443  -0.0009726  -0.0744457
   0.0224344   0.1294465  -0.4451432   0.3045633   0.7647778   0.1755812
   0.1934550  -0.0197799   0.3157648   1.1615654   0.3576277  -0.4233790
   0.3239567  -0.2619072   0.2400635  -0.5229007   1.3650572   0.0574307
   0.4636312  -0.7817474   0.8566281   0.2077145  -0.0683168  -0.1269727
   0.7496499   0.7337266  -0.1094906  -0.1555169   0.9370638   0.7327145
   0.1977835  -0.4051719  -0.1192397  -0.6568768  -0.2100176   0.1531452
   1.4014845   1.1078773   1.3843882   0.3354559   0.0556178   0.0319956
   0.1585381   0.4671330  -0.0926606   0.1329142  -0.1334538   0.1135044
  -0.2919209   0.1647170   0.2979373   0.6588756  -0.7227139   0.4671281
   0.8767538  -0.4229560  -0.2273104   0.0262214   0.2063372   0.1003456
  -0.7961453  -0.1556108  -1.2504268   0.5152787  -1.2771465  -0.5725944
  -0.1878478   0.0243402  -0.1651777   0.1268551   0.3059071   0.0517374
  -0.2572597   0.0962689  -0.0412955   0.7383295   0.6558453   0.3514396
  -0.2253161  -0.1562603   0.1972795  -0.2870205  -1.2792796  -0.0418684
   0.2180225   0.3528257   0.1734924   0.1785644  -1.8105893   0.5503803
   0.2149460   0.1837073  -0.0319150   0.4651817  -0.3723417  -0.0529503
   0.2811975  -1.3184872  -1.3982710  -0.7531150   0.0694536  -0.3732448
   0.1687233   0.1227813  -0.2118374   1.2573882  -1.7524418  -0.1220208
  -0.3631775  -1.2516175   0.2041110   0.0809758  -0.0692067   0.8869658
   0.2582834   0.1970271   0.1891606  -0.3082818  -0.0806147  -0.0542740
   0.3095760   0.1825870   0.1222473   0.1171863   0.0513448   0.2402766
  -0.0583599  -0.6161872  -0.0817022  -0.8967287  -0.2971118  -1.2526960
  -0.3833688   0.1061917  -0.0756870  -0.1235796  -0.0666780   0.1395728
   0.2383674   0.3070331  -0.5855496   0.0000723   0.0453132   0.1717454
   0.6387549  -0.7149834  -0.0972977  -0.2803886  -0.2024283   0.5836237
  -0.3189657   0.0295732  -0.0907916   0.5145678   0.2817165   0.2359576
  -0.0149338   0.2196814   0.1251467  -0.4215164   0.0373123   0.0630544
  -0.0384569   0.3148979  -0.1128122   0.0243152   0.6150573   1.0953060
   0.3226411   0.1538228  -0.0393934  -0.5701026   1.5027341   1.1577014
   0.0722734   0.2249881  -0.1057446  -1.7314957   0.4731707  -0.8138741
   0.5329932   0.1540269   0.0549944   0.2105831   0.5032086   0.0757008
   0.0313205   0.0535344  -0.1557376  -0.0073866   0.1151620   0.2606470
  -0.2316628   1.3670682   0.2495925  -1.1628383  -0.3966479   0.4370500
   0.1043598   0.1771311  -0.5508352   0.1227754   0.1385848  -0.0899286
  -0.1427442  -0.2395677   0.3058271  -0.3211411   0.0867086  -0.8780712
  -0.1740718   0.0500841   0.0464794   0.0007145  -0.5387338  -0.1775641
   0.1802872  -0.1534035   0.1098455  -0.4749657  -0.8562937  -0.1361557
  -0.6767423  -0.5706730   0.8702533   0.0435495  -0.1742820   0.2699902
   0.1351602   0.2598482  -0.0225914  -0.0655382  -0.3020066   0.0802759
  -0.4694071   0.1705601   0.3913309   0.4980132  -2.1548315  -0.4451010
  -0.0068486  -0.0579324  -0.2778059  -0.2276522   0.1277561   0.1234196
   0.7314188   0.4685958   0.5657556  -0.0964851   0.1226875  -0.0419372
  -0.8215191   0.4519101  -0.2386072   0.0381070  -0.4286413   0.0613352
  -0.2893053  -0.4873417   1.8833115  -0.1788303  -0.1625143  -0.0849588
  -0.1368527  -0.2664357   0.1527461   0.0217835   0.3628775   0.1960584
  -0.0115363   0.0897806   1.3202165  -0.1256058  -0.1613204  -0.1974411
  -0.9964816   0.3900810   0.3906661   0.1119866  -0.3143597  -0.0648115
   1.1571661   0.3693257  -0.0625598   0.2461001   0.0493702   1.2959042
  -0.3310033  -0.2268290  -0.3293071  -0.1095600   0.0377193  -0.2799604
  -0.0566369   0.0063635  -0.0891440  -0.4813435  -1.6116817   0.2712502
   0.8801523  -1.1282891   0.0354685   0.0288492   0.4067030   0.1567533
  -0.4363699  -0.0453283  -0.2323843  -0.0500625  -0.1283851  -0.0113098
  -0.6225021  -0.3550643   0.5444863  -0.2618946  -0.3570554   0.0015530
  -0.8945170   0.6668651   0.2983944   0.2355099  -0.3128125   0.3887650
   1.2582675  -0.5871910   1.8494833  -0.0080543   0.6643902   0.6919532
  -0.0180225  -0.2515276   0.1435661  -0.4858615  -1.2280395   0.1993817
  -0.1091336   0.1335093   0.0804877   0.7441556   0.3432084  -0.4237062
  -0.9719705  -0.5356085  -0.1335899   0.9558278  -0.4241128   0.3532465
   0.0245852  -0.0343394  -0.0237199  -0.8483781  -0.7301299  -0.6134915
  -0.9842040   0.2129921  -0.0459389   0.0313820  -1.1152121  -0.8816501
   0.0464890   0.1140739  -0.1491931   0.0999517   0.1118548  -0.0792797
   0.2727970  -0.0644081  -0.5113127   0.9023146  -0.1595736   0.1081445
   0.3907060   0.2741470   0.0535055   0.5290704  -0.7640197  -1.4708917
   0.1165441   0.1775354   0.2168451  -0.7458788   1.0305469  -0.4270979
   0.2445950   0.1371868  -0.4473934  -0.2836478  -1.2265242  -0.2719823
   0.2971518   1.2210623  -1.0763332  -0.1259944  -0.6183254  -0.5175806
   0.2505510   0.0385974   0.2874938   0.1011694  -0.2950185  -0.9921950
  -0.5068377  -1.4312252   0.2734533  -0.0493838  -0.4590381   0.0527395
   0.3724683   0.1884632   0.0868534  -0.1785984  -0.5190531  -0.8551404
   1.2874741   0.1266482   0.1008219  -0.1974541  -0.0744429   0.0632224
  -0.0796065  -0.1439284  -0.0570659   0.1100155  -0.2448710  -0.0533262
   1.2329756   0.0124400   0.1254244  -0.1742564  -0.0479119  -0.5304668
  -0.3975579   1.2681305   0.3489937  -0.0323956  -0.1997155  -0.1557706
   0.8140492  -0.4213380  -0.9869807  -0.2094577  -0.1017255   0.0839369
  -1.2177875  -0.4034357  -1.3052738   0.0257415   0.1073570  -0.5291898
  -1.2044684   0.5374636   0.2797633   0.0617348  -0.0709324   0.0502292
   0.2288243  -0.3512933   0.0913961   0.3333300   1.8954436  -0.7981647
   0.0656705   0.2390317  -0.3424376  -0.6253366  -0.7278045  -0.5663641
   0.0527124  -0.0968230  -1.0301040  -0.8974675   0.5905659  -0.6200672
   0.0128274  -0.2635915   0.3663490   0.1035223   0.1155658   0.0236872
   0.1552680  -0.0276175  -0.0552680  -0.1271182   2.2053613  -0.8576562
   0.2066324   0.1147908  -0.3093439   1.9040629   2.8760956   0.7741745
  -0.3924381  -0.5008979  -0.3218997  -0.1946173   0.8150775   1.4565788
   0.4964072  -0.4213593   0.0285250  -0.1429974   0.0751894  -0.1227467
  -0.1432107   0.2236167   0.4752349   0.4541511   0.3931981   0.1403135
   0.0073195   0.0744741  -0.1194458   0.1033576   0.1300206   0.0370873
  -0.5910305   0.5953600  -0.3240782  -0.4249170  -0.0119190   0.6066162
  -0.2768028  -1.0700628  -0.7694297   0.1753134  -0.2297259  -0.0610170
  -0.2071878  -0.4874531  -0.0800836  -0.0249027   0.0638313  -0.0111386
   1.1782388  -0.1523682  -0.6668101   0.3459132   0.1941805  -0.1548896
  -0.2868273  -0.9305478  -0.1574145  -0.0824191  -0.0510491   0.0308422
  -0.1699915  -0.6221651  -0.4549650  -0.4311890   1.4132920  -0.9379015
  -0.0929497  -0.1644994   0.1396450  -0.0705935   0.0264952   0.1742069
  -0.0597277  -0.1916030  -0.1002197  -0.2344602   0.1645650  -0.1068284
  -0.0006654  -0.0889606  -0.0059149   0.2033002   0.2594905  -0.1863369
  -0.6418938  -1.5385276   0.6071601  -0.1525163  -0.2506048   0.3788694
  -0.9703159   1.2276520   0.1538564  -0.0756938   0.1979571  -0.2796709
  -0.5769589  -1.0609107  -1.1415973  -1.5939161   0.3951121   0.0829943
   0.1541321  -0.2359960   0.0207186   1.0745731   0.6219534   0.6617283
  -0.1066881   0.2580225  -0.5767761   0.5663589  -0.0706544  -0.0270991
  -0.2242513   0.2157653  -0.0388939  -0.0560703  -0.0508749   0.1262788
   0.1626279  -0.0722649   0.1125967  -0.0164634   0.0669754  -0.1485222
   0.0975970   0.2030813   0.3017903  -0.6820162  -0.5858878  -0.2830870
   0.1284342  -0.0701671  -0.0385472   1.1406203   0.8430413  -0.3267103
   0.3598076  -0.4435883  -0.2941101   0.1367477   0.0959758  -1.1160446
   0.8363024   0.8138771  -0.4551366   0.5621346  -0.3825259   0.2345363
   0.0762367  -0.2538441   0.0004536   0.1399461   0.2226959   0.1414651
   0.2508734   0.0607051  -0.1074406  -0.8973243  -0.1274452  -0.9620024
   0.0419227   0.0873826  -0.0522421   1.1234225  -1.3255387   0.6012180
  -0.2090577  -0.1149075  -0.2573759  -0.3158493   0.3246591   0.0177947
  -0.7450471   0.2423424  -0.4194676  -0.2309285  -0.1630313  -0.0159581
  -0.2621000  -0.0315315  -0.1972122   0.3038579   0.0066317   0.1630303
   0.2882269   1.4054791   1.1751684  -0.0788441   0.1553341  -0.0639974
  -0.9298312  -1.4181096   0.4238164  -0.1269084   0.2306723   0.2787581
  -0.1436183  -1.2958473   0.4525392  -0.1553133   0.4689768  -0.2690943
   0.3499290   0.1924382  -0.1160451  -0.2024626  -0.0158022   0.2558493
  -0.4971657  -0.1170159   0.3371667   0.1224394   0.0101999   0.1193025
  -0.7630424   0.9124668   1.7161317  -0.2359439   0.0378311  -0.1425179
  -0.2127433   0.3516131   0.8775711  -1.4615009   0.0093322   0.1821151
  -0.1478997   0.3345543  -0.1139124  -0.0685356  -0.4673120   0.4109354
  -0.6758853   0.9386181  -0.2076989  -0.0791282  -0.0510988   0.2091461
   0.5699185   1.2278017  -0.5268510   0.5044490  -0.0645027   0.2016951
  -0.2646750   0.2007699  -0.1148622   0.1455688   0.0509427   0.0401611
   0.4003647   0.6482469   0.0531069  -0.2812444  -0.2645293  -0.0722452
   0.6090345  -0.8823136   0.1811347   0.0062504  -0.1373457  -0.2191514
   0.0188828  -0.1792981   0.1639827  -0.2718422  -0.0521025  -0.0274738
   1.0401997  -0.0786779  -1.1829693  -0.0011057  -0.3451700  -0.4147334
  -0.4349905   1.0302592   0.0066021  -0.0276600   0.1660704   0.0107499
  -1.3090456   1.1219614  -1.0151187   0.0127160   0.1413220   0.1997965
   0.3345186  -0.0220065   0.7336628  -0.5073654   0.8223114   1.0805366
   0.4644980  -0.6418937  -0.1386967   0.1339025  -0.0560466  -0.2554402
   0.5037680  -0.6891184  -1.0482215  -0.2344020   0.1256730   0.1319148
   0.1461838   0.0868819   0.1303297   0.2029809  -0.2320405   0.0740570
  -0.8275957  -0.8631468  -0.0368046   0.2689308   0.0678427  -0.1641968
   0.5106262   0.9099730  -0.8174613   0.0038303  -0.2629099  -0.1744474
  -1.0561642   1.6245014  -1.0604683   1.0651020  -0.3218481   1.2929212
   0.0117901   0.0424985  -0.0233126  -0.1776133   0.1693708   0.0531554
   0.2813257  -0.2063916  -0.0319943  -0.2510531  -0.2181128  -0.2643427
   0.0780162   0.1542791  -0.2181078   0.1479727  -0.0356844   0.0418060
  -0.2639852  -0.1522305   0.0566897  -0.5392942   0.3668997   0.6139379
  -0.1458103   0.8531140   0.3629008  -0.3078189  -0.0303624  -0.2959143
   0.2944127   0.6907554   0.7987215   0.4473804   0.1627753  -0.2059608
   0.0237717   0.0534070   0.0439791   0.9845790  -0.8681574   0.0594267
   1.0499908   0.3015619   0.3112404   0.1093423   0.0751640  -0.4255985
   1.2843531   0.6447880  -0.2863197  -0.3811639  -0.1634293   0.4410022
  -0.3812330   0.0752893   0.0634207  -0.0635236   0.0386517   0.1140066
  -0.2996195  -1.1029396   0.8802846  -0.0460694   0.0870469   0.1452418
   1.7803160  -0.0527738  -1.0412152  -0.2852766   0.1980532  -0.1523585
   1.1642804  -0.5349704  -0.7785381  -0.1516913  -0.9779591   0.9278536
   0.6091033  -0.0791015  -0.0698658   0.2580030  -0.0690574   0.0758194
  -0.3642986  -0.0648042  -0.0675384  -0.1249419  -0.1254840  -0.0402460
  -0.0736173  -0.1140940  -0.3577750   0.1182387   0.1286610  -0.1871531
  -0.3487481  -0.3783806   0.0798046  -0.2218214  -0.1232733  -0.1515118
   0.3573307   0.6391625  -0.0115677  -0.4214038   1.2128201  -0.1724096
   0.1759877   0.0845542  -0.0674196   0.8954047   0.7892241   0.6734280
  -0.3446987  -0.1555145   0.1442342  -0.1905887  -0.0571195  -0.3138255
   0.2313973  -0.0984852  -0.0885550   1.4518975  -0.1019013  -0.4671801
  -0.0635103   0.4114946   0.5115127   0.2778985   0.3627943  -0.1654382
  -0.1350009  -0.0415157   0.2021218  -1.0611474   0.7594818   0.0596478
   0.4041855   0.0679364  -0.0706560   0.6794471  -0.5343775  -1.2036022
   0.8385255  -0.4716151  -0.6680260   0.0148043   0.1027917   0.8444967
  -0.1219258   0.1372316   0.1461482   0.1477657   1.2420481   0.8314108
   0.4583684   0.1551915   0.9813265  -0.2362785  -0.0484747  -0.1751999
  -0.9243660   1.2530874  -0.3466276   1.3654173   0.0879207  -0.5318132
  -0.4467475  -0.1378807  -0.5018171   0.1125946   0.2889506   0.1390617
  -0.0984274  -0.0463989  -0.3472421   0.0524799  -0.3090719   0.0450766
   1.1624911   1.7335262   0.0771449   0.3547280   0.1311164  -0.2150643
   0.4079810   1.3221448  -0.4358013   0.1330615   0.1918268   0.3209389
   0.0512968   1.4258308  -0.2982972  -1.1901369  -0.7535343   1.4155641
  -0.1099578  -0.2310434  -1.5707954   0.0081459  -0.2685944   0.1822309
  -0.1550892  -0.1170920  -0.0137821  -0.0911396  -0.1641330   0.1056735
   0.4458667   0.6301809   0.6471243  -0.2075487  -0.1450953  -0.0520193
   0.9237611  -0.7484233   0.3260886   0.0223793   0.2912561   0.2817594
  -0.2946807  -0.3918921   1.1357285  -0.7899688   1.5916033   0.1342234
   0.1585525  -1.0484428  -0.2746458  -0.4069850   0.1687465   0.3138250
   0.4454399   0.3196159  -0.0034250  -0.2596659  -0.4127877  -0.2214409
  -0.4319239  -0.2128286  -0.9268306  -0.4082227   0.0882492   0.2039452
   0.2987042  -0.2711641  -0.3106788   0.0708658   0.2623431   0.1507793
  -1.0485982  -0.3416128  -0.5542504   0.9450602  -0.6302296   0.0357884
   0.0471717  -0.1850203   0.0062304   0.2619465   0.0101730  -0.5009443
   0.6001966  -1.1252660  -0.0551289   0.0510500  -0.0761098   0.0885752
  -0.7512869  -1.4162243   0.4623187  -1.5585372   0.8500677   0.4949737
  -0.2830672   0.0059404   0.1335070   0.8786140  -0.2475854  -0.9933697
   0.0566080   0.1337562   0.5283290   0.0979832  -0.0763277   0.1431584
   1.3603533   0.0815845  -0.4938329  -0.6125458  -1.3274213   0.7395031
   0.1997969  -0.5269562   0.2143474   0.5068073   0.3468101   1.5545795
   0.4488341   0.0806967  -0.6069020   0.0580347  -0.2947147   0.3628301
   0.0615254  -0.1034186   0.1349705  -0.2090729  -0.2024514   0.2001191
   0.1192082  -0.6450403  -0.0085793  -0.1212347   0.2362976  -0.4947304
   0.3850391  -0.3723498   0.1080199  -0.8598804   0.0415345  -1.0979013
  -0.1012424   0.0583223   0.0915389  -0.3464889  -0.1081736   0.0470144
  -0.2683659  -0.0184108   0.2656233  -0.9045950   1.0049445  -0.1666460
   0.1810374  -0.1714557   0.4031536   0.1058906  -0.0267227  -0.5018218
  -0.0150843   0.1357184  -0.0805478   0.2786304  -0.8650623  -0.1875581
   0.5608280  -0.1069214  -0.6198539  -0.2774155  -0.3892529   0.0500284
  -0.1579167   0.2358654   0.1383570   0.1117286   1.4959235  -0.2168705
  -0.0006855   0.3456796   0.1451656  -0.1159518  -0.0071266  -0.5500341
   0.0410023  -0.0187162  -0.1223383   0.3246006  -0.5446326   0.4436364
  -1.1239437   1.2094276  -0.1119306  -0.1934624  -0.3360672  -0.0760297
  -1.7120334   0.0157387  -0.1341853   0.1935622   0.1839099  -0.2834282
  -0.2533589  -0.4565118   0.0484245   0.3362483  -0.1503775  -0.0424446
  -0.0498719   0.2559754  -0.1685757   0.1024799   0.1586638  -0.1136429
  -1.0029150   0.5719740  -0.1569897   0.2112830   0.2155709  -0.4695801
  -1.1697584  -0.6671087  -0.6159807  -0.0981307   0.1554074  -0.0042167
  -0.6236872  -0.4419655  -0.3795341  -0.0026045   0.1535908  -0.0214309
  -0.0511915   0.5308031  -0.7614546  -1.0166869   0.1375291   0.3919951
  -0.9068990  -0.5259231  -0.5167576   0.2033410  -0.5137241   0.3796704
   0.1907167   0.2911076   1.3281658  -1.3535496  -0.5353474  -0.3451792
  -0.0700500  -0.1924861  -0.1172328  -0.5847397  -0.9715421  -0.9726461
  -0.0306576   0.3341812  -0.3855506   0.4361300  -0.8518087  -0.0636275
   0.0315440  -0.1351074   0.1022294   0.1981671   0.2974233  -0.2120563
  -0.2230414  -0.0547772  -0.1087081  -0.2310882  -0.2799556  -0.5747524
  -0.2431287  -0.2541392   0.0366867   0.6451991   0.9410525  -0.0194337
   0.1534750   0.0088886  -0.0307752  -0.9664389  -0.6486223   1.8683121
  -0.3095239   0.6257296   0.8190853  -0.3274151   0.2112988   0.0381696
  -0.6253021  -0.2565217   0.4468277   0.1796891  -0.5286105  -0.0463159
   0.2376135   0.3663570   0.1006811   0.1085571  -0.0290090   0.0120286
   0.3080572  -0.4676822   0.1028625   0.0860587   0.0977030   0.3778417
  -0.5833700  -1.7575152  -0.4683145  -0.1693861   0.1630962  -0.2078111
   0.7182374   0.3964836  -1.3045478  -0.1657082   0.1055434   0.1698591
   0.6776089   0.7672511  -1.1488080  -0.5601416  -0.7765917  -0.3162886
   2.6183134  -0.0355786   0.1481519   0.1719667   0.0537710   0.3839243
   0.1054641  -1.5967630  -0.5856627   0.2168553  -0.2622559  -0.1686125
   0.2417669  -0.2207076   0.0253908  -0.2551222   0.3899523   0.2451237
  -0.2986854  -0.8177437   0.5379691  -0.0771919  -0.3323446  -0.2447236
  -0.9979501  -0.0332483  -0.4568374   0.4481362   0.7480763   0.1643318
   0.5137626   1.6282062  -0.6222880   0.6311745  -0.7672675  -1.1471923
   0.0783731   0.0369956   0.0082889  -0.9248980  -0.2991965  -0.0668775
  -0.5877179   1.3970062   0.2605837   0.0017894  -0.1321528   0.3256523
  -0.2147364   0.3119369  -1.0612818  -1.0561270   0.6122078   0.7612476
  -0.0026993  -0.0781031  -0.0349321   1.3597614  -0.6851903   0.1239073
  -0.4065819   0.0841461   0.1578705  -0.1495638  -0.1180710   0.1155653
  -0.3786344   0.6108345   0.2670117   0.1680337  -0.6172579   1.4990096
  -0.0304450  -0.2664240  -0.0854968   0.6775565  -0.3760747  -0.1662918
  -1.3641350  -1.9047235   0.8583866   0.2512836   0.2175215   0.2253428
   0.1539906   0.3686953  -0.4219311   0.1033138  -0.0419176  -0.1540358
  -0.9221335  -0.5476075  -1.3735464  -0.1467606   0.2713723  -0.1218925
   1.1669932  -1.2341093   0.0043579   0.0113636   0.0490750  -0.2681776
   0.2993554   0.4181158   1.2879404   0.0238381   0.0525648  -0.0599439
  -0.4923531   0.0042725  -0.5405304   0.3866026   0.2070031   0.1819100
  -0.9531920   0.1429415  -0.6551852   0.1043223  -0.2593466   0.2731550
   0.8211209   0.2353692   0.5324673   0.3106415   1.3686791  -0.5378759
   0.0661598   0.0085654  -0.2145589   0.1695652   0.1736069  -0.0979743
  -0.0299415   0.0962153   0.0503711  -0.0913299   0.2747849  -0.0816230
   0.5237392  -0.1735870   0.3140083   0.3425779   0.1012812  -0.2940829
  -0.2284931  -1.5878334  -0.1178403   0.4406764   0.1742648  -0.3869717
  -0.0729186  -0.3002787  -0.1011121  -1.2455559   0.1737552   1.6174527
  -0.0625490   0.0971414   0.3672358   1.6066510   0.1018858   0.8530382
  -0.2966052   0.0326739   0.6174632  -0.2363919  -0.1119316   0.1010729
  -0.0886223   0.0391969  -0.1213286  -0.0601504   0.0402269   0.1208123
  -0.5131229  -0.0107753   0.1625421  -0.0932253  -0.0040255   0.1603494
   0.0700316  -0.0748500   0.5450361  -1.8383483  -0.1012129   0.5152649
   0.0623336  -0.1913117  -0.1453937   0.0815174   0.0476291   0.2779493
   0.5357065   0.1204117  -0.1977205   0.2231285  -0.7972073  -1.9812934
   1.5486481   1.6421468  -0.4589313   0.2040470   0.2130310   0.5684251
  -0.6687358  -0.2342120   1.0409551   0.7931431  -0.8051203   0.6358985
  -0.0892363   0.1303104   0.0527077  -0.0900940  -0.1361623   0.0593054
  -1.5883891  -0.2908670  -1.0178864  -0.1693533  -0.2200583  -0.0272171
   0.2205858   0.2299190  -0.4713155   0.4395881  -0.0755099   0.0660765
   0.3470755   0.1247726  -0.2610939   0.1198838  -0.0087939  -0.1994428
   0.0318477   0.3567501  -0.4636777   0.0551730  -0.0890348   0.1093460
  -1.7702336   0.5482578  -0.1724694  -1.4753194   2.4404773  -0.1358571
  -0.2404583  -0.5592290   0.0408030  -0.4606302   0.4638200   0.0089963
   0.1972252  -0.0750406   0.0499497   0.9623434  -0.7548823  -0.1535648
   0.1228632  -0.0660317  -0.0607425   1.6508549  -0.0484042  -0.2911984
   0.3879353  -0.0405639   0.3041770  -0.1639405   0.1116906   0.9999562
   0.7855925   0.9122760  -1.0475494   0.3693030  -0.3720986   0.2584710
   0.5661930   1.4642039  -0.2752550  -1.6236035  -0.4518982   0.3543694
   0.3406734   0.3905087  -0.1922642   0.3221631   0.1832473   0.2066972
   0.1149124   0.2078455   0.1858110  -0.3350873  -0.0822691  -0.1081362
   0.1079174  -0.0976605   0.0975733  -0.3794875   0.0581828   0.3555809
   0.0535570  -0.1207920   0.0964425   0.3658491  -0.1389026  -0.0001464
  -0.4117425   0.9397302   1.6284306   0.0618840  -0.3039318  -0.0303388
   0.2627334  -0.1341350  -0.7155682   0.0808718   1.0166219  -1.6542817
  -0.8481083   0.5919307   1.4480638   0.2192281  -0.0570893   0.2901102
  -0.1190375  -0.3532651   0.1774344  -0.0530128  -0.0918928  -0.1374435
  -0.0991398   0.4842032  -0.7347542  -0.2083054   0.0540964  -0.0884798
   0.2568796  -0.4225651  -1.4479674   0.0003809  -0.0334875  -0.2234134
   0.1669257   0.7386053   0.6554727  -0.3968378   0.3386830   0.3517576
  -1.4438159  -0.4187249   0.7574185   0.1666450  -0.4019781  -0.1654769
  -0.0330932   0.0058668   0.2907614  -0.0244551   0.3324057  -0.2032043
   0.9308141   0.1721316   1.2625693  -0.0656870  -0.0374265   0.1388658
   1.1888034   0.8161572   1.2073839  -1.3890458   1.0169676  -1.0177018
  -0.1460565  -0.0187048  -0.0795421   0.1802298  -0.0981843   0.1216612
   0.2197425   0.5853295  -0.0552714  -0.7277474  -1.0236476   1.4204405
   0.1860336   0.0952580   0.1405566   0.3275754   0.2724861  -0.7959800
   0.0120653  -0.3405674  -0.3370794  -0.8037718  -1.7616425  -1.2867502
  -0.1947709   0.1774746   0.4181850   0.1838494   0.5736971  -0.2319590
   0.2198301   0.0656708  -0.1664469   0.8342103   0.5378578  -0.3644262
   0.1908079   0.1066106   0.2337322   0.1331848   0.0839912   0.8121501
  -0.2500711   0.9247687  -0.2851264  -0.1131367  -0.0335268   0.1861867
  -0.5805160  -0.8417149   1.0650824   0.1850719  -1.4347665  -0.4409994
  -0.2907985  -1.7588100   0.5932415   0.3821271  -0.0171072   0.1101281
   0.1052240  -0.2584436  -0.1179991   0.0699723  -0.3952803  -0.2009930
  -0.0312012  -0.1020581   0.7557659   0.1828343  -0.0976822  -0.1894431
   0.2624225  -0.8789740  -0.4398555  -0.3871091  -0.0934290   0.1164048
   0.0659051  -0.5123568  -0.2304124   0.9088818   0.4608588  -1.3906417
  -0.0575556  -0.5764484  -0.0365390  -0.0609704   0.2932887   0.1767351
  -0.6808009  -2.1028062  -1.0601444  -0.0051655   0.0707990  -0.0261325
   0.3610235  -0.7327247   0.8887737   0.2478503  -0.1609360  -0.0191936
  -0.1600485  -0.0837286  -0.5549110  -0.4120383  -0.5469630  -0.3906311
  -1.0007339  -1.0023327   0.5215252   0.0281324   0.3826222   0.0082806
  -0.0268160  -0.6954566  -0.1073671   0.1340245   0.0631351   0.0354733
   0.1279902  -0.0217800   0.0396281   0.1052090   0.3006981   0.3461478
  -0.1536661  -0.2099765   1.1459257   0.0126718   0.3901347   0.3127204
  -1.0953574  -0.4652258   0.4495388  -0.1366810   0.2997016   0.2766092
  -0.4975531  -0.5195587  -0.0880378  -0.4426790   0.6975514  -0.3805618
  -0.2728849  -0.0907302  -0.1710622  -0.1754709  -0.5405345  -0.5986930
  -0.0790375   1.8175525  -1.0156099   0.0077189   0.1003532   0.0841797
   0.2019739  -0.2888015   0.1752005  -0.3851929  -0.5020819   0.0412660
  -0.7961986   1.2303563  -0.0873650  -0.1782366   0.1260882  -0.8695955
   0.0074690   0.0871883  -0.0292042  -0.2305502  -0.0431742   0.2111632
  -0.1362265  -0.0715004  -0.2164218   0.3718893   1.7870558   0.3715052
  -0.2660642   0.0847402  -0.2221560  -1.1076004  -0.4999816  -1.4188356
   0.0005890  -0.1878305  -0.3131291   0.4923645   1.3228763   0.3841744
  -0.1978854  -0.0097565   0.0212562   0.8663919   0.0314716   0.0555750
   0.3288929  -0.1643289   0.7563983  -1.3908990   0.3361348   0.7178716
  -0.0214331  -0.1179232   0.0678983   0.2426022   0.1785266  -0.6351703
  -0.1000335   0.2469286  -0.1937970   0.0851537  -0.0641942  -0.1917300
   0.2389320  -0.1179312   0.1074102   0.3738586   0.8287392   1.2126986
   0.0406850   0.2840360  -0.0846668   1.2915677   0.6514632  -0.4372208
  -0.1690722   0.1095283  -0.2694499   0.0691659   0.2207588   0.5354502
   1.0806952   0.1019995   0.1915854  -1.3233914  -0.3338211   0.0697567
   0.1524520   0.1256562  -0.1203737  -0.0984231   0.0345066  -0.1247651
   0.6203294  -0.0490866  -0.0242566   0.2470722  -0.9454727   0.2082875
  -0.2282445  -0.3605186   0.5481312  -1.2744103  -0.5481129   0.9415496
  -0.3705599  -0.0126253  -0.2052207   0.3762451  -0.3607144  -0.9673297
  -0.2668763   0.1596262  -0.0943292   0.1232624   1.3128309   1.2021124
   1.3795162   0.7811755   0.2887141   1.6006917   0.0885167  -0.5026249
  -0.2569582   0.1931630  -0.0925873   0.7212298  -0.0618042   0.1486202
   0.1271174   0.0775762   0.0240502   0.2428354   0.0223024   0.1415096
  -0.0469521   0.3562584  -0.0566673   0.3346138  -0.0366966  -0.1348379
  -0.0233530   0.1073181  -0.4926889  -0.4169528   0.4442416   0.3217581
  -0.0477456  -0.1200374  -0.0154249   0.0102563   0.3117284  -0.2032776
   1.3463983  -1.4489132  -1.1581076   0.1361491   0.0593464   0.3429391
  -1.1618365   0.7155636   1.2285259   0.1779306   0.8600350   0.7129185
  -0.1852610  -0.0553124   0.0301221  -0.2319137   0.9580468   0.2129732
  -0.0062713  -0.0622927   0.2273718   0.2049544   0.1874399  -0.2398647
  -0.2434544   0.1505301  -0.1843620  -0.0990226  -0.4189801  -0.3027272
   0.8739137  -0.1866524   0.0804555   0.7755347  -0.7644251   1.1446822
  -0.0666257   0.5584691  -0.6123624   0.3162764   0.7085102  -0.2869633
   0.6505479   0.0164812   0.6890470   0.0501543   0.4716968   0.0479845
   0.3472707  -1.2099557   0.6706116  -0.3557169   1.1026751  -0.2787726
  -0.4328418  -0.2332848  -0.0243933  -0.8041534   0.5291815   0.4260306
   0.1152596   0.4508419   0.2364078  -0.1167961  -0.0269917  -0.0163683
  -0.2781698  -0.0553622   0.3648689  -1.0889588  -0.0659554  -0.4280862
  -0.0083907  -0.0589513  -0.0309360   1.7001333  -0.1569756   0.3369621
  -0.1255277   0.9154153   1.4204511   0.1785955   0.4911633   0.0569730
   0.2402487   0.0144221   0.0455770   0.3243752   0.0082210  -0.0419018
  -0.5396630   0.9255490   0.3939071   0.0699042  -0.1465729   0.0539116
  -0.4340157   0.8097471   0.5102504   0.2481515  -0.2198363   0.4755014
   0.3314728   0.2285707   0.1952180   0.0858478  -0.3952867  -0.0168135
  -0.1329021  -0.0975395   0.1609327  -0.6871755  -0.0669426   0.1588324
   0.3541143   0.1205464  -0.1456580  -0.0383255   0.0623876   0.1744705
   0.1135230  -0.1311568  -0.2212684   0.4301067   0.8487841   0.4643604
   0.1518884  -0.0001271  -0.0409656   1.3904588   0.5258345  -0.1195251
  -0.0534339  -0.0342924  -0.5351471  -1.0740355  -0.8862296   0.7828766
   0.6414653   1.0798707   2.0911445   0.2337939  -0.0614996   0.2335596
   0.4297849   0.8991053   0.7197553   1.0197219   0.6797560   1.3473054
   0.1484454   0.2248211   0.2425534   0.0547004  -0.2969520  -0.0566725
   0.0996054  -0.1018851   0.8249718   0.0968132   0.1743930   0.3158257
  -0.8247425   0.0249247   0.5076975  -0.0113991   0.0410371   0.0659404
  -0.1485692  -0.5362097  -0.1233964  -0.5830919  -0.3261075  -0.9641255
  -0.6637531  -0.2361153  -0.3199613   0.0462729   0.0814649  -0.0575944
  -1.7155546   0.3588182   0.1020992   0.7384973   0.5908545  -0.2749966
  -0.0451287   0.3943165  -0.2320534  -0.2414903  -0.0915667  -0.0779124
  -0.1527034   0.2704142   0.0103775  -0.1541913   0.2928710   0.0402052
  -0.3941385   0.1837210  -0.2525070   0.8284365  -0.4215592   0.2536789
   0.2010301  -0.0753321  -0.1004421   0.2686396   0.0619204   0.3731528
   0.3524393   0.4816019   0.2562638  -0.3767883   0.0776331  -0.1017108
   0.0272621  -0.0051848  -0.0621901  -0.0103862   0.1121663   0.1799692
  -0.0021556   0.0410785   0.3520479   0.3726822  -0.0165439   0.0085107
   0.0632169  -0.0418366   0.1694034  -0.5290351  -0.0179526  -0.2478833
  -0.4723622   0.1665314  -0.1631614  -0.8994540   0.2121354   0.7247317
  -0.1259522  -0.3773937  -0.2383168   0.8990566  -0.3166078   0.5357751
   0.6717002   0.1864028  -0.2743874  -0.0997119  -0.1277918   0.4608201
  -0.1339994   0.1573315   0.8511345   0.3717438  -1.9357941   0.0337942
  -0.1551099   0.1974283   0.2971463  -0.3361015   1.1030639   0.3947340
   0.3858234  -0.4232052   0.1296212  -0.1377197   0.1944505  -0.0405268
  -0.2310401   0.1843674  -0.0951333   0.1293005   1.1500189   0.2183148
  -0.0315044   0.0179885  -0.0609400   0.0397028  -1.1996369   0.1176978
  -0.0877662  -0.1808880  -0.0200875   0.6216300   1.4317606  -0.0559878
   0.4847506   0.0375800  -0.7853575   0.0255221   0.0888154   0.2689132
   0.1572370   0.4467259   0.1449895   0.6250768   1.0454721  -0.1045325
   0.2517235  -0.2974001   0.1648381  -1.0145175  -0.4292920   0.1133625
  -0.2472265   0.0343152   0.1351268  -0.5533402  -1.6253916   0.0740003
  -0.1500923  -0.1283660   0.0127503   1.6678106  -0.1588517  -0.7847469
  -0.0720991   0.3366760  -0.3791315   1.1091484   0.5792719   0.0327033
   0.2382925  -0.1084095   0.1894939  -0.4090545  -0.0726283   0.1777234
  -0.1606416  -0.0187216   0.1214195  -0.0183974  -0.4762113   0.2240001
   0.5499978  -0.0428198   0.4126771  -0.4407868   0.5057299   0.6257388
  -0.2317679  -0.1869426  -0.1772630   0.3100884  -0.2502107   0.7924406
   0.4076720   0.6687002  -1.4669576  -0.0434742  -0.0647435   0.0581443
   0.5193566  -0.5559226  -0.2845383  -0.2095117  -0.9445756   0.8446762
  -0.1692883  -0.4360176   0.2252717   0.7040015  -1.1255362  -0.2630365
  -0.0721386  -0.0185325   0.2197604  -0.0593031  -0.0843677   0.0348470
  -0.2363329   0.1668112  -0.0196441  -0.8434545   0.5368404  -0.3291034
   0.2952979   0.4008836  -0.1623709   0.3823867  -0.9023024  -0.3869126
   0.0016188   0.0078540   0.2162767  -0.6451836  -1.2060962  -1.2492856
  -0.5805758   0.1576587   0.2496918  -0.2339712   0.2720766   0.1145614
  -0.0508388  -0.7919884   0.2476597  -1.7854130   0.5392485   0.7964097
   0.2268225   0.3060744   0.2236106  -0.0706469   0.0764198  -0.1699230
  -0.0122876   0.0682300   0.1083050  -0.0399783   0.1827705   1.0187694
   0.3737163   0.9045721   0.6040328  -0.1833384   0.0831287   0.1527967
  -0.1626410   0.1861097   0.2346821  -0.0153082  -0.0200286  -0.2384899
  -0.6816898   0.8178206   0.1030823  -0.1795206  -0.0869769   0.1654217
   0.2268160   1.0809917  -1.8561296  -0.0966316  -0.0615676   0.1670470
   1.0427034   0.2857137   1.1799052  -0.9421188   1.2110520   0.0718332
   0.1349114  -0.1434238   0.1578952   0.7358315  -0.2289278   0.2031154
  -0.5095184   0.0015489  -0.2222325  -0.1016221   0.1049600   0.0621243
   0.1174183   0.0531960  -0.3291023   0.3727897   0.0894623  -0.5812624
   0.1850531   0.1930933  -0.4243126  -0.3808297  -0.0404175   0.2350774
  -0.0081589   0.0192229   0.2038430   0.4065150  -0.7021642  -0.1400985
  -1.1836230  -1.0238110  -0.8409160  -0.1749784  -0.0834376   0.2714081
   0.0993962  -0.0902249   0.1305854  -0.2420924   0.1742802  -0.0258015
   0.3660513   0.4899228  -0.8897791   0.0246681   0.3474568   0.3059793
   0.0986930   0.0045211   0.0741046  -0.2738736  -0.0966510  -0.0406481
   0.1038294   0.1640248   0.3447943  -1.2034501  -0.4780546   0.0711980
   0.1949629  -0.3585700   0.2018797  -0.0236999  -0.1981752   0.3522835
  -0.1677619  -0.1217841   0.2276079   1.2331683  -0.7634268  -0.4589808
  -0.6716809   0.7763849  -1.3148895   1.1043090   0.5355656   0.7932410
   0.4117733   0.0760573   0.0653648   0.0516916  -0.3018476   0.0284018
   0.1106403   0.1198383  -0.1003709   0.1052124   0.1080214  -0.2684883
  -0.4010274   0.4791241   0.4029904  -0.9741423   0.0701528  -0.0081968
   0.0717426  -0.2716564   0.3320802   0.3300695   0.3402704  -0.5759478
  -0.3027078   0.9870250   0.4557864   0.2808399  -0.0464850   0.0310234
   1.1648043  -0.3473438   0.8600710   0.2159213   0.1114300  -0.3683260
   0.0342552  -0.2639613   0.0161069   1.0780178  -0.1835102   0.3775806
   0.3084735  -0.0768758  -0.1381087   0.0631444   0.0434450  -0.1473211
  -0.1858497  -0.0097620  -0.3876430   0.4780732   0.5830308  -0.7079384
   0.2835987   0.0004530   0.0225768  -1.5933658   0.4157345  -0.0563049
  -0.1438742  -0.1511101   0.0809003   0.2332803   0.5741298  -0.4502539
   0.0170637  -0.0874132  -0.1483680   0.0845854   0.8693472   0.1879842
   0.3441389   1.0064857  -0.2696809   0.2664698  -0.3646163  -0.5826834
   0.0181276   0.0253575   0.0972379   1.9777389   1.1364930  -0.3875884
   0.0683228   1.3073035   0.5566564  -0.2594843  -0.0435845  -0.3331235
  -0.9573907   1.1974781   0.4321767  -0.0153199   0.2869041   0.5883349
   0.5322975  -0.3245225  -1.5655830  -0.1007123  -0.2350036   0.1924082
   0.4249058   0.1793988  -0.3234033   0.0465601   0.2513589   0.0801641
   0.9492974  -2.1871063  -0.4631313   0.0313864   0.0183732   0.2125959
   1.9453973   1.2059764  -0.0262265  -0.0893098  -0.0075278  -0.4998691
   0.1391301  -0.1906860  -0.2968125  -0.0998263  -0.1550788   0.2134301
  -1.8137513   0.4854072   1.0285917  -0.0053762   0.0773040   1.4221115
  -1.2665177   0.5864932  -0.6219026  -0.2941937   0.1210746  -0.2791592
   0.2086432   0.0565397   0.3193138   0.4039349   0.3442548  -0.5311019
  -0.0159661   0.4880641   0.0475477   0.6478083  -0.9422073  -0.5688834
  -1.4890338  -0.9533265  -1.7828433   0.8235119   0.0822862  -0.2800815
   0.1877948  -0.2943310   0.1640329  -0.3239503  -0.0549514   0.1011024
   0.2822491   0.2002729   0.0496847  -0.8047603   0.1121265  -0.7492367
  -0.0608155   0.3732200   0.0701337   1.2436519   0.4731272   1.3110025
   0.0448313  -0.2790649  -0.1082047   0.3735515   0.2315931   0.6754654
  -0.1146806  -0.5540662   0.9830858   0.1492872  -0.2514267   0.0861004
   0.1565741   0.2146121  -0.3753123  -0.5412982  -0.2003368  -0.0320381
   0.0053491   0.4068153  -0.1421208  -0.3840264  -0.3131549   0.2291169
  -0.1003445   0.2225320  -0.0741625  -0.6834415   1.7124842  -0.7849899
   0.1987782  -0.1436901  -0.1120614   0.2097073  -0.6452472   0.4540485
   0.1273972   0.1118903   0.2253322  -0.8358021  -1.4795312   1.0902027
   0.3954114  -0.1604396  -0.8346281   0.0717159  -0.1965933  -0.1046121
  -0.3304917  -1.0008948   0.5028377  -0.9243986  -0.9773294   0.0193088
  -0.1137133   0.1337774  -0.2167199  -0.0896214   0.2313241  -0.0063009
   0.1152989   0.3104835   0.2611664   0.2867054  -0.1368765  -0.0209717
  -0.1261171   0.0746841  -0.0571475   0.7273195  -0.1800350  -0.0955652
  -0.0233401   0.6346016   0.9312571  -0.0370584  -0.2884378  -0.2293370
   0.2724364  -1.3085987  -0.2289509   0.1261799  -0.0713901  -0.1540526
   0.1574645  -1.2389528  -0.9583644  -1.2234626  -1.7181957  -0.7862243
   0.0655370   0.1166247   0.1575252   0.4502006  -0.5460961   0.8285319
   0.8276508  -0.6730706   0.1447100   0.3664563  -0.1205989  -0.1828613
   0.0534633  -0.0376610   0.2248429   0.1159151   0.0416341  -0.0648678
   0.1561519  -0.1317548  -0.2598064  -0.1393912   0.2703178   0.4757210
   0.1481614   0.5049559   0.1739481   0.2255359  -0.8688526  -0.1194809
   0.0952911  -0.0837066  -0.1540814  -0.6307502   0.6872785   0.3690347
  -0.0031791   0.2366127  -0.1911278   0.1724358   0.7200543   0.2972834
   0.6950329  -0.2732647   0.4428574  -0.0597798   0.1298017  -0.0383344
  -0.3886025  -1.4348260   0.9760884  -0.0123938   0.7061864  -0.4729373
   0.1803350  -0.0443010   0.2924169   1.0218444  -0.1064248   1.1164115
  -0.8009249   0.6111584   0.1897412  -0.0226723  -0.3297431  -0.4363903
  -0.2255421   0.7402391   0.9166708  -0.3878784  -0.1974873   0.1404542
   0.0423528   0.2916821   0.0913641   0.0922531   0.1043770  -0.1480581
  -1.0118149  -0.0573792  -0.9788539  -0.1951293  -0.1051133   0.2701006
  -0.6624461   0.2393852   0.0795187  -0.1237896  -0.5531693   0.2710922
   0.1413658   0.2910001   0.1195873   0.0207789  -0.0493731  -0.0065822
  -0.0720833   0.0305802   0.0300044   1.3569688   0.8238505   1.0891573
  -0.1754441   0.0599535  -0.1650425   1.4962137  -0.5925106  -0.8688246
   0.0418529  -0.4684282   0.0209730  -0.6350494   0.0626526  -0.8390772
   0.3140215   0.0130978  -0.1937873  -0.1526057  -0.3062132  -0.2009801
  -0.7426977   0.3678180   0.8951761   0.0731004  -1.2198159   0.0543900
   0.0426432  -0.0422837  -0.0499140  -0.2074347  -0.1131591  -0.2252864
   0.2163115  -0.1099090   0.1032905   0.0567478   0.1449116  -0.3345536
  -0.1309906  -0.1201016  -0.3377607   0.0437454  -0.1149833  -0.0467327
   0.6597707   0.8942989   1.3905190  -0.1101997  -0.1513132   0.3388269
   0.9633835  -1.4886507  -1.3659877   0.0907112  -0.0558010   0.3121684
   0.6169577   0.3229512  -0.6040130   0.0340983   0.0699564  -0.2473901
  -0.5363593  -0.4696884  -0.9510944  -0.5731564  -0.1002640   0.7605315
   0.1064487  -0.7680897  -1.1611875  -0.2440343  -0.1018149  -0.5024415
   0.4225720  -0.3739847  -0.4334678   0.2961325   0.0669346  -0.6218054
  -0.0770715  -0.1786444   0.3031296  -0.0403716   2.1665617   0.1638842
  -0.1770393  -0.1092157   0.5363033  -0.6211648  -0.6933744  -0.2927991
   0.6732444  -0.3050311  -0.0485310  -0.0725366   0.0175647   0.2315793
   0.2113993  -0.2570090  -0.3744006  -0.1131959   0.2796231   0.2259881
  -0.3486499   0.5435773   0.0022421   0.2408953   0.1516612  -0.1100393
   0.0743284   0.0851191   0.1658853  -1.2472459  -1.0654332  -1.3360396
  -0.0374386  -0.2641102  -0.1041483   0.2568239  -0.2138996  -0.1821919
   0.0143277  -0.3271354   0.9458622   0.8602478   2.4416707  -0.6863104
  -0.1275695   0.0753616  -0.0583311   1.0984485  -0.5898990  -0.3524265
  -0.0211484  -0.2865540   0.4278547  -0.2395490  -0.1054526  -0.0186690
  -0.1704762   0.1276253  -0.1266672   0.4376222   1.2355381   0.0082805
   0.0050666   0.0130003   0.1181124   0.8027221  -0.3329014  -0.8967015
  -0.2408317  -0.1535624   0.0556329   0.6225390  -0.0791688   0.2336158
  -0.3721708   0.5050960   0.0848513   0.0863804  -0.0321532  -0.3302231
   0.3076004   0.0368897   0.9725956  -0.7179824   0.8687012   2.1184796
  -0.0069213   0.4059858  -0.3247244   0.0080400   0.1272422   0.2212889
   0.0164302   0.1157534   0.0217964  -0.0898725  -0.0902301   0.1134946
  -0.0365241  -0.5377714   0.0415374   0.1452552   0.2118118   0.2231787
  -0.3225928   0.4942837   0.0691647  -0.1079492  -0.5388052   0.2054175
  -1.4711308   1.0753398  -0.9610360   0.1161310   0.1988431  -0.0026746
   0.3362465  -0.1599850  -0.2455107  -1.4716495   0.0405309  -1.6864397
   0.3414169  -0.0814646   0.3069349  -1.0769388  -0.0901060   0.9624410
   0.1343954   0.8491409  -0.7751519   0.0553295   0.3512186  -0.2073978
  -0.0224822   0.7266188   1.1677935   0.5859484   0.2080271  -0.4083631
  -0.0344068   0.0426414  -0.2260065  -1.0921673   0.3241083   0.9286382
   0.2675078   0.0082806  -0.0392502  -0.1433547  -0.5054940  -0.1182736
   1.0999405  -0.4763006   0.2414998   0.8687413  -0.2949486   1.0184419
   0.3314660  -0.0131772  -0.3027998  -0.6681904   0.5337974   0.4251741
   0.5522245   0.5249495  -0.7376506   0.1581274   0.0774702   0.1922994
   0.4368497   0.0650669  -0.1276055   0.2041627  -0.1083957  -0.5925412
   0.3163127  -0.0011359   0.3523966  -0.0778314  -0.1560363  -0.3585454
  -0.8878455  -0.1951226  -0.1623477  -0.0638361   0.0197710  -0.0236854
  -0.1706613  -0.6906920  -0.5781871   0.4020296  -0.4456673  -0.4810100
  -0.2486274   0.0862432  -0.3022132   0.1302930  -0.8844505   0.4680543
  -0.0377881  -0.2324104  -0.5446011   0.1299971   0.0442801  -0.0398611
   0.0451345  -0.2427948   0.6722965  -0.7373378  -0.1411102  -0.2550955
   0.0808199  -0.0605788  -0.0991151  -0.9312466   0.8848039   0.5469473
  -0.0152568   0.0567872   0.0021963  -1.3532833  -1.6743698  -0.2279373
   0.3805031   0.8332650   1.3822010  -0.1241323  -0.0185560  -0.1412932
  -0.0668017  -0.2458807   0.1217059   1.6809773   0.0944648   0.3965303
  -0.2335416   0.0161392   0.1895522  -0.4290396  -0.5671441  -1.1658025
   0.5312644  -0.2579189  -0.1886805  -0.3442976  -0.2683175  -0.1453875
   0.7113648  -0.5318798  -0.3270513   0.0196910   0.2043892  -0.5643102
  -0.1300303   0.8842524   0.6870307  -0.2411954   0.2127223   0.2970711
  -0.6232670  -0.9178372   1.0320627   0.1474916  -0.2178771  -0.1802255
  -0.8272272  -0.6167414   0.8223421   0.5767745  -0.1739760   0.1570641
  -0.2975494   0.0708660  -0.1796255  -0.0081549   0.0795575  -0.1098254
  -0.3553816   0.0425904   0.1081223  -1.0956662   1.2180688  -0.1896981
   0.1851490   0.1784504   0.1358748  -0.1983167  -1.3135021   0.4486274
   0.2878985   0.0115059   0.2216506  -0.3367597   0.1903169  -0.5766562
  -0.3550448   0.8232478   0.6633288   0.3315170  -0.6683665   0.1254366
   0.3061914  -0.2936639   0.2403119  -0.0977309   0.1059301   0.1353857
  -0.7749976   0.0290081   0.4827820  -1.8497526  -1.9887665  -0.2245891
  -0.2468381   0.2601784  -0.3993950  -0.0686437   0.1321398  -0.1211584
   0.2159725   0.0088920  -0.5043482   0.6194651  -0.5699704  -1.1037618
  -0.1250125   0.0991989  -0.0189404  -1.2444637   0.3111613   0.2688824
   0.0678680   0.1045363   0.1392144   0.9131874   0.8398385  -0.4004001
   0.7440885  -0.5319058  -0.4750271   0.1861508   0.0288749  -0.3819020
  -0.4083970   0.3635948   0.4655974  -0.3380869   0.2225242   0.0851287
  -0.1195750  -0.2474969  -0.0916519   0.1273646   0.0546547   0.3323717
  -1.1719146   0.0570337   0.4951642  -0.1443848  -0.0772459   0.0394103
  -0.4287489   0.2743594  -1.2207568   0.5340626   0.0383460   0.6149429
   0.2654338  -0.2421779  -0.3754952  -0.1496333  -0.3178451  -0.1177759
   0.0469475  -0.1248615   0.1579287  -0.0440759   0.2280605   1.0037187
   0.1311017  -0.2335045   0.2844600  -1.4435745   0.1388969  -0.8257864
   0.0255863   0.0108826   0.2809343   0.1189913   1.8365298  -0.1324089
   1.2824051   0.8352855   0.3086103   0.2597257   0.3349395  -0.2339883
   0.1346001  -0.1437398  -0.0032220  -0.2442051   0.3896047   0.2792940
  -0.8914894  -0.1321339   0.3154648  -0.1152533  -0.1533201   0.1415918
  -0.0677275  -0.1044423  -0.3898765   0.2179148   0.5601513  -0.4632439
  -0.5066309  -0.3479779   0.6334226   0.0510153   0.1112072  -0.1510541
  -0.5333042   0.2300884  -0.2001005  -0.0738374  -0.4339000   0.2040828
  -0.9043412   0.5411834  -0.0452163  -0.0817858   0.2217372   0.1299582
  -0.7957499  -0.7105129  -0.6601553   0.3468059  -0.0823519  -0.1877962
   1.1051241   0.8428640   1.1898825   0.0592639  -0.8935655  -1.7798717
   0.0327714  -0.2802061   0.0488943  -0.8599808  -0.0963228  -1.1642442
   0.7190753   0.9563478   0.6762801  -0.1036410  -0.0935029   0.1620206
  -0.2518626  -0.1502954   0.2050828   0.0401626   0.1414848   0.3942825
  -0.0235655  -0.1939147  -0.1146118  -0.1309209   0.0792889  -0.3374459
  -0.2530436   0.0077990   0.0723802  -0.7576313  -0.2223831   0.0647151
   0.0103505   0.2531561  -0.1450550   0.5186350  -1.2860443  -0.2560307
  -0.0844739  -0.1388170  -0.0125801   0.2898047   0.3569116  -1.0365275
  -0.4456860   0.5992463   0.1296841  -0.1012981  -0.1286201   0.0147085
   0.1496995  -0.0816561   0.1197465   0.8802971   0.8040009   0.5222918
   0.1183688  -0.1142869   0.1057874  -1.4019880  -0.1457332   0.6876872
   0.0362210  -0.0657961  -0.1542757   0.2030333  -0.4679400  -0.3412143
   2.6611351  -1.0981953   0.2942387   0.0104342  -0.3375246   0.1057532
   0.2971902   0.0642446  -0.8390169  -0.1872392   0.0192612   0.3995379
   0.3368097  -0.3803361   1.1126425   0.1858301  -0.0942043   0.3454484
   0.1166923  -0.9400757  -0.3674341  -0.4398961  -0.3990969   0.0346718
   0.0186528   0.2826934  -0.1322480   0.0113846   0.0355750   0.1857199
   0.3129923  -0.1878331   0.0467967   0.0612575   0.3044624  -0.4791024
  -0.2734993  -0.2595890  -0.1453659   0.3497703   0.8115304  -1.5772464
   0.1427631  -0.0325382  -0.3711112   1.0333980  -0.2157338   0.7763785
  -0.1286584   0.0997072   0.0628691  -0.6818291  -0.3314948  -1.3273040
  -1.1980441  -0.3916848   0.7389297   0.1053567  -0.5387976   0.7105219
  -0.1054164   0.2139360  -0.4695051  -0.3457695   1.4065020   0.2611331
   0.8468393  -0.7218748   0.9080583   0.8741680  -0.2399641  -0.2120207
  -0.1645630   0.1616183  -0.2933777  -0.2393246  -0.2250524   0.1447019
  -0.2873536  -0.1908544  -0.0236628  -0.2019665  -0.4540214  -0.0534064
   0.1979816  -0.1253740   0.1015700   0.5502445  -0.8629860  -0.8753058
   0.1867883   0.0692031  -0.3200319  -1.1259194  -0.2057897  -0.0368261
   0.0011034   0.0110524  -0.3281566  -0.3248864  -0.6070815   1.4339297
   0.1507260   1.3043519   1.9294642  -0.1931711  -0.7556977   0.2424689
  -0.1843331  -0.0000026  -0.2349651   0.2241674  -0.1314099  -0.2001427
   0.2662423   0.0842550   0.1410870   0.1630684   0.1629110  -0.0677940
   0.0537092  -0.1612529   0.4169276  -1.3558580  -0.8476082  -0.0558705
  -0.3496053   0.0124715  -0.1607012  -1.0284532   0.7310774  -0.8737335
  -0.1007628  -0.2613067  -0.2243950   0.7413828  -0.6390669  -1.0663508
  -0.6191064   1.2369019  -0.2286662   0.4580593  -0.1728479  -0.1982042
   0.1275799   0.0866460   0.0423276   0.2456491  -0.0130503  -0.2599113
  -0.2863930  -0.4731687   0.1633472   0.0319601  -0.0148826   0.3081928
  -0.0077124  -0.0800185  -0.0875702   0.5416453  -0.8422149   0.1329842
   0.2727532  -0.1047430   0.2715058   0.0445844  -0.7500076   0.7258307
  -0.3351588   0.2481395   0.2888370   1.8287617   0.2402961   0.4332444
   1.3381157   0.3939829   0.5006276   0.4347428   0.1528893  -0.2737870
  -0.0590352  -0.0373911  -0.5512110   2.2444710  -0.0405272  -0.3139083
   0.2092158   0.0376687  -0.1081373  -0.0768989  -1.2576266  -0.2615358
  -0.0368344  -0.1942826   0.2987620   0.5068291  -0.5048983   0.4171904
   0.0457445  -0.1602627   0.3294525  -0.3018677  -0.1781154  -0.4601813
  -0.2197537  -0.0445911   0.0156376   0.3476876  -0.0918189  -0.4255211
  -0.2684850   0.0439825  -0.1177944  -0.0454996   0.3258743   0.2326130
   0.2488978   0.1784744  -0.0342196   0.2492028   0.4281825  -0.2127543
  -0.1263781   0.0784722   0.3364276   1.2316935  -1.8878793   1.2869843
   0.6152710  -0.0340095   0.2629855  -1.1263820   0.3910546  -1.3704490
   0.8394756   0.5067837  -0.9647316   0.0213918   0.0324542   0.3504475
  -0.9879680  -1.0207785   0.2345729   0.8097628   0.6011382  -0.5021998
  -0.3071047   0.1328838   0.3493895  -0.3089673  -0.4789853   0.0854876
   0.2274871   0.7578331   1.0088978  -0.3217601   0.1427847   0.1295497
   1.4462594   0.8513910   1.1620712   0.1943350  -0.7202973  -0.4597120
   0.0696747  -0.0539434  -0.0423368  -0.5809024  -1.2439092   0.2405217
   0.3681250   0.3595790   0.1604703   0.0711137   0.5699861  -1.1707547
   0.1254649   0.3354774   0.1919366   0.0414003  -0.1955539  -0.4119289
  -0.1929313  -0.1672337  -0.1133523  -0.9553409   0.2250736  -1.2011662
   0.3152267   0.2507205   0.2200668   1.0996505   0.1032173   0.0651786
   0.9327915   0.6138149  -0.6177087  -0.0290174  -0.0969290   0.1167584
   0.1306272  -0.0655492  -0.1591353  -0.0818902  -0.0566896   0.3468699
  -0.7949189  -0.0552274   0.8456024  -0.0327253   0.0558580  -0.0419930
  -1.6566914  -0.8391328  -0.9259858  -0.1092159   0.2621273   0.3140682
  -0.1663532  -0.8636791  -0.2211095  -0.9858082  -0.8509526   0.2997324
  -0.1439442  -0.2194522  -0.1655853   1.1334302  -0.6098483   2.4669714
  -1.1996182   0.4082628  -0.0188152   0.2061479   0.2295524  -0.3211677
  -0.0653417   0.2853480  -0.7798179  -0.2489136  -0.7131428  -0.0966873
  -0.2457367  -0.3858809  -0.1552939   0.4529182  -0.1900655  -0.4678454
  -0.2513954  -0.3409437  -1.3432175   0.3333606   0.3428332   0.0787101
   1.6966031  -1.0342695   2.3462538   2.0071424   0.3952846   0.1055108
  -0.5603602  -0.2195507  -0.0714064  -0.1008107   0.0794288   0.1364912
  -0.1374495   0.0231195   0.4130793   0.1022499  -0.4223093  -0.0165297
   0.5962346  -0.8903120   0.2160940   0.2218406  -0.1254466  -0.0903749
  -1.3448566  -1.6157929   0.7803290   0.2388144  -0.1470460  -0.1179439
   0.3846129  -0.8023035  -0.3797800  -0.0104813   0.0540988  -0.1186774
  -0.9353074  -0.4133146  -1.5040402   0.4271623  -0.8267314  -0.6991228
   1.7017675   0.0168125  -0.3105545   0.3185434  -0.1398393  -0.2203520
   1.5318454   0.8510574   0.1184431   0.0236623   0.0810384   0.0149650
   0.0237173  -0.0581377   0.0920197  -0.2737218  -0.0921517   0.2036662
   0.1010022   0.5998977   0.5932730   0.0598226  -0.0771114   0.5655681
   0.6157164   1.1772250   0.2465296  -0.0595869  -0.0016716   0.3594825
   0.3584579   1.4646577   0.7084931  -0.3636452   0.0566177  -0.2493642
  -0.0973581  -0.7083628  -0.3442530   1.2301642  -0.9163726  -0.5407799
   0.7054607  -0.6092851   1.7197889  -0.0725316   0.4213325  -0.0290680
  -0.1351478  -0.1292656  -0.8174343   0.7192313  -0.0493875  -0.9797517
   0.3510540   0.6207318   0.1730397   0.0423662   0.0354505  -0.4960460
  -0.1029667  -0.0168638  -0.0239401   0.0580770   0.1356292  -0.0079080
   0.0256900   0.2455218  -0.1006786  -0.2510783   0.2383580   0.2584961
   1.0961347   2.3791477   0.5971357   0.1608265  -0.0700280  -0.0229442
  -1.2144817   0.0278180  -0.0407954  -1.0769802  -1.1702034   0.1697245
   0.0314023  -0.0476257   0.2048760  -0.0167804   0.1433203  -0.0641622
   0.1376870  -0.3435184   0.3851247   0.1544926   0.2090895   0.0893245
   0.3348919  -0.9342434  -0.7683341   0.0517369   0.0213419  -0.2558151
  -0.2058786  -0.3597213   0.3776559  -0.0062874   0.4404590  -0.8386717
  -0.2941817  -0.4095976  -0.1771524  -0.6449200  -0.2968228   1.4011668
  -0.1918266  -0.0531178  -0.4106288   1.2686987   0.1026670  -0.8848554
  -0.2286079  -0.1698228   0.1308740  -1.0787945  -1.5385999  -0.1779442
   0.0541354   0.0867113   0.0821202  -0.0740967   0.1921913  -0.1686373
   0.1612939  -0.2170200  -0.0072152   0.0941121  -0.0478068  -0.2723087
  -1.1588489   0.1942746   0.1468175  -0.0950208  -0.0207127  -0.0452411
   0.4849082  -0.6831787   0.9548128  -0.2143865   0.2497076   0.4434086
  -0.8475733  -1.1428737   0.1637406  -0.3733757  -0.7036454   0.8728044
   0.0695681  -0.1233014   0.0006997   0.1357116  -0.3030032   0.1682848
   0.0867513   0.8687996   0.4012394   0.3927828  -0.2913012   0.0610333
   0.2264628   0.5533400  -0.3970257  -0.2660032   0.1356166   0.0371339
  -1.3113816  -0.9562277  -0.0423528   0.1112065   0.5198323  -0.1379996
  -1.2924312   1.1580855   0.4698118  -0.0390214  -0.0782976  -0.3281715
   0.8528507   0.6193582   0.4835575   0.2096349  -0.5144106   0.3556337
   0.1793367  -0.1888703  -0.0527692   0.0907037   0.4826413   0.1317793
   0.0971686   0.2314377  -0.9422543   0.0494632   0.0893792  -0.0253635
   1.1134775  -1.0875108   0.2241150   0.1061212  -0.3849930  -0.3101110
  -0.2399129   0.0261167   0.6677482  -0.3225169  -0.3345821   0.0593426
  -0.6537870   0.4592840   0.6291963   0.1942417  -0.1723618  -0.3590723
   0.1383111   0.5152981  -1.2642681   0.0861315  -0.1578378  -0.1761409
  -0.3301771  -0.7148520  -0.8763431  -0.9339323  -0.1798944   0.1026100
  -0.7542246  -1.3303159   0.2634427   0.0966976   0.2580139  -0.1917445
  -0.0909877  -0.0826284  -0.2538763  -0.0582609   0.1582132   0.1959165
  -0.1389274   0.0433432   0.0029836  -0.5526396  -0.1136395   0.4009459
  -0.0823583  -0.4545200   0.2232681  -0.0614071   0.0287366  -0.1510681
  -0.7258025  -0.7563233   0.0351076   1.6273585   0.1196571   0.8031641
   0.1168542   0.3732966  -0.2183394  -0.1082355  -0.5125357  -0.2344440
  -0.5361536  -0.5731188  -0.7558540  -0.0146568  -0.1465592  -0.0605246
   0.4746354   2.1363547   0.0288575  -0.1540374   0.0293751  -0.2056627
  -0.1614090  -0.3577939  -0.2651068   0.0918527  -0.1160497   0.0289855
   0.5285024  -2.1052221   0.1029771  -0.1368731  -0.0439307   0.2530041
   0.2020794  -1.6992774  -0.3976700  -0.3210933  -0.2275832  -0.0262373
   1.5362325   0.0063853   0.0745962   1.6235647  -1.4767779  -0.0129051
  -0.0206554  -0.1250795  -0.1265142   0.5641629   1.0241290   0.5069428
   0.2466028  -0.1449323  -0.1854360   0.1764371  -0.1878393   0.1944064
  -0.2465387   0.0441564  -0.2192664  -0.8874445   0.1112886   2.0166611
  -0.3374064  -0.0280781   0.1062240  -0.1625132   0.7482484   0.4787614
  -0.0330499  -0.3054127  -0.0890035   0.0925596  -0.4718750   0.1754048
  -0.0282066  -0.0816302  -0.1545801   0.3091937  -0.0748594  -1.2814262
   0.3765706  -0.2636832   0.1756438   0.9449631  -0.5658910   1.0093725
  -0.2142973   0.2648210  -0.1598991  -0.2950713   0.3908788   1.3059470
  -0.7055154  -0.3185276  -0.1913166   0.5894333   0.1075026   0.0207242
  -0.0025324  -0.6137798  -0.2442364  -0.7263831  -0.8658118  -0.1893951
  -0.1595409   0.2883882  -0.9664973  -0.3221618  -0.1089988   0.0628250
  -0.1684332  -0.5456155  -0.0510866  -0.0265154   0.4157747   0.0991821
   0.5725767  -0.8954915   1.7836492  -0.2187875  -0.0933876  -0.0732391
  -0.0912046   0.3511764  -0.4508867   0.0326956  -0.0426204   0.5528172
  -0.3386689  -1.0093481   0.8815155  -1.2832327   0.7280131  -1.2406382
   0.1059616  -0.1930645  -0.0583880   0.3833216  -0.8765724   1.0460073
   0.5040459   0.3253543  -1.2937532   0.0481758   0.0008908   0.0462255
   0.2314196  -0.0156752   0.0663051  -1.2392041   1.0403823   0.1889549
  -0.1317370   0.0357523  -0.0107434   0.4095817   0.6249930  -0.3989764
   0.5377915   0.4236209  -0.0304333   0.2989521  -0.0120084  -0.1217411
   0.2037462  -1.5493727  -0.3606642  -0.4329389  -2.0520827  -0.1369095
  -1.4187126   0.6748223  -0.4334697   0.0316483   0.2252574  -0.3697633
  -0.1392612   0.3011318   0.1631269  -0.1555941  -0.1875079  -0.2459766
  -0.1002214  -0.0988932   1.3813082  -0.0799937  -0.1415125  -0.1138802
   0.0796323   0.4245128   0.2269840  -0.2966642  -0.1199733   0.0529781
   0.0872414   0.7416816  -0.3821326  -1.8619103   1.2279190  -0.9285837
   1.0583772   0.3254962  -0.5948776  -0.1379597  -0.1945716  -0.0539752
  -0.2511699   0.1291911   0.0760683   0.1424294  -0.1084213  -0.0623193
  -0.6834551   0.2706356  -2.0653681  -0.3186334  -0.1011670  -0.2201569
  -1.0427728   0.1256200  -1.0163662   0.6858677  -0.8008585   0.6535813
  -0.1996803   0.0323247  -0.3710101  -0.2300760  -0.1864531  -0.2464527
  -0.2549224  -0.0330529  -0.3151322   0.3256614  -0.5724041   0.7770635
   0.0117890  -0.3299183  -0.0238816  -1.3892278  -0.5373986  -0.5604676
  -0.0249330  -0.0596952   0.1128018   0.1845680   0.4828328  -0.7325878
  -1.5881130   1.0063336   0.8307983   0.0457622   0.0189517  -0.1528831
   0.0567397  -0.3135479  -0.1062104   0.0546341  -0.1563192   0.2009027
  -0.0251330  -0.7617842  -0.8277559  -0.2523447  -0.7468112   0.1013237
  -0.0958420  -0.2562568  -0.1100292   0.1157171   0.0821276  -0.1700676
   0.0239108   0.0233391   0.1689083  -1.1518200   0.5083262   0.5722484
   0.1634024   0.1032461   0.0011327  -1.1843373   1.0951931   1.0028003
   0.6952510   0.4547123   0.3341464   0.1829146   0.5106912  -0.2020058
  -1.2544573   0.0162003  -0.1070328  -0.2331350  -0.3745017  -0.4948690
  -0.0171411   0.3245339   0.1163806  -0.4006578   0.1473580  -0.0745717
   0.0968621  -0.4341864  -0.1857830   0.0530922   0.3273769   0.1153712
   0.6826700   0.2249662  -0.2115787  -0.4251124   1.4116640  -1.1921446
  -0.3355464  -0.1235634   0.2104689  -0.6652870   0.8358044   0.0467109
   0.0089104  -0.5198853  -0.3846925   1.2212889  -0.7951379   0.2705410
   0.0283973   0.1457124   0.0319524   0.1687998   0.3430788   0.1103849
  -0.2297233   0.0300504  -0.3602489  -0.2952495   1.4283037  -0.1625711
   0.0884385  -0.1140282  -0.0922897   0.8967942   0.9767768   0.2918542
  -0.3320510   0.3022269  -0.6919434  -0.2846455   0.0254588  -0.0247662
   0.5701048   1.1030840   0.2900322   0.0601558   0.2500427  -0.0615217
   0.6871080   0.3250804  -0.2256393  -0.1366845  -0.1412938   0.4300052
  -0.0423802  -0.0573262   0.0036837   0.3848426  -0.3083778   0.2016720
   0.0529951  -0.1003686  -0.5615579   0.1106276  -0.3203505   0.1779862
  -1.8639562  -1.3487195   0.6383623   0.1045517   0.3167684   0.0821127
   0.0633791  -0.3695778   0.0793345   1.4018780  -1.4154639  -0.2847652
   0.1395334  -0.1240080   0.6368979   0.0925659   0.0308865   0.2335672
  -0.0569886   0.1804136  -0.1747874  -0.1751600  -0.0765339  -0.0805784
  -0.4841813   0.6911552  -0.0708142  -0.3238577   0.1853216   0.0613544
   0.5156720   0.5627325   0.2080882   0.1453233  -0.3775251  -0.1818595
  -0.0251156  -0.1508687  -0.4487049  -0.3855191  -0.9013889  -0.7727099
   1.5572763  -0.0947699  -0.1802293   0.1855616   0.0050039   0.3383892
   0.0057431   0.0161581   0.2176055   0.1763042  -0.1131271   0.0840648
   0.1629803   0.8348544   0.3516397   0.3505404   0.7122294   0.3934584
  -0.1562938   1.0622078  -0.0520641   0.1008764   0.0908606  -0.4892479
   0.5220681   0.9660277   0.0034163   0.6565967   0.3336943  -0.4869502
   0.0587984   0.0348612   0.2045769   0.9436194   1.3757740  -0.6333304
   0.1765020  -0.1867424  -0.0433932  -0.1139567   0.0730493  -0.0932928
  -0.2433279   0.2620104   0.1450077   0.6220334  -0.9334528   0.7257512
  -0.3093935  -0.0924702  -0.1037003   0.2344133  -0.3342659   0.9486987
  -0.2180641   0.0763891  -0.0678250   0.2368222  -0.2717150   0.2845438
   1.5655452   0.4827184  -0.3985549   0.1048163   0.3610027   0.1764754
   0.3626627  -1.1427970  -0.7209840  -0.3160938   0.0939285  -0.1483838
   0.5195359  -0.7159157  -0.0659052   0.2103348   0.7752475  -0.7290033
   0.1959525   0.0683848  -1.2971419   0.4831300   0.1057522  -0.0741910
   0.7600172   0.7601884  -0.2885364   0.7859509   0.0233080  -0.1385728
  -0.7299082   0.1989676   0.2091761  -0.0187815  -0.0449273  -0.2949734
   0.2914584  -0.0854303   0.4013828  -0.1148002  -0.2515213   0.1410623
   0.1159422   1.3283054   0.1725546   0.0566568   0.1481216  -0.2860519
  -0.1509168  -1.5894169  -0.4256709   0.2023607  -0.2501841  -0.2738527
  -0.5319632   0.1432303   1.1486684  -0.0794116   0.6803241  -0.4935607
  -0.0690658  -0.3701256  -0.1370269  -0.6875324  -0.5596726  -0.9532848
  -0.1110323   0.9043226   0.6958854  -0.3168913  -0.0888146  -0.2041061
  -0.4205545   0.4233980   0.2196821  -0.7241884   0.5050707  -0.2524204
   0.1023201   0.0290462  -0.2231213  -0.3974491   0.3044187   0.1488745
  -0.0778639  -0.2221097  -0.2687349   0.3395975   0.0822088   0.0084429
  -0.9580367   0.7710626  -0.3233539   0.2677731   1.3716519   1.2343386
  -0.0718252   0.4632782   0.1495257  -0.6828654   0.8062953   0.5801522
  -0.7510329   0.0984319   0.7940366   0.1112255  -0.0998732  -0.2933969
  -0.1398631   0.0602492   0.0394643   0.2601917   0.1670590  -0.3466254
  -0.0533316   1.9148123   0.4927325   0.1007660   0.1245659  -0.1055077
   0.8928696  -0.1579889  -0.9320633  -0.1043619   0.0274019  -0.0751148
   0.5710611  -0.0035011  -1.2688524   0.4618506  -1.1147375   0.2005739
   0.0307725   0.3588366   0.3982595  -1.2936839   0.5597479   0.1952315
   0.1442412   0.8963591   1.0429773   0.0520050  -0.0305060   0.5135299
   0.4278480  -0.6002280  -0.1479791   0.4886682   0.4502279   1.2608281
   0.1541266   0.0277024  -0.0345185   0.9676439   0.6064250   0.7697456
   0.6617325  -0.4119222  -0.4910624  -0.3167043   0.1309919  -0.2086592
  -0.0005219  -0.6053932   0.3106372   0.4907860   0.2975195   0.2160250
   0.1943103   0.1663466   0.2682602   0.2836431  -0.2542964  -0.0175211
  -0.1216807  -0.0663730   0.1803991   0.0604940   0.3121791   0.0558700
  -1.3427253  -0.6881140   1.7167921   0.0452002   0.2467426   0.0067373
   0.5617099  -0.8032718   1.0175207   0.1936695   0.1669230  -0.2510174
  -1.1740051   0.7666530  -0.1649406   0.1119762   0.5772679   1.1360915
  -0.1359000   0.0492782  -0.0497530   0.1700724  -0.0526310   0.1407897
   0.0659007   0.0630637   0.1091383  -0.2090078  -1.2614384   1.7086913
  -0.4811499  -0.3139245   0.0289235   0.1754631   0.2453982   0.0635512
   0.0249643  -0.4074230   0.1234792  -0.1343199  -0.0478002   0.2166463
  -0.5332244   0.1149839   0.1655883   0.1356838   0.1549113  -0.1523098
  -0.5967931  -0.0338970   0.7667271   1.5486542  -0.4552511   1.2964742
   0.0859813   0.2712290  -0.1885741  -0.2889253  -0.1327208  -0.2726675
  -0.0911062   0.0592124  -0.1400274  -0.9068285   1.5118630  -0.6766782
   0.3553904   0.0295616   0.3556774  -0.3572564   0.4984888   0.2994535
   0.2118191  -0.1059436  -0.0300499  -0.6538849  -0.9804225   0.7723473
  -0.9314698  -0.6236043   0.8411087  -0.2506617   0.0565330   0.1793077
   0.8109444  -1.0777016   0.3428414   0.6175593  -0.6096191  -0.6726984
   0.0828002  -0.0480479   0.0051807   0.2472131   1.5433172   0.6509150
   0.2337189   0.2027198  -0.2051536   0.0157571   0.1865175   0.0213597
   1.3716731  -1.0512812  -0.3023278   0.9331622   0.4538135  -0.8622326
   0.0222604  -0.1177779   0.3509334  -0.2470021  -0.3956677   0.3146767
  -0.0427450   0.3225342   0.4719018  -1.0782484   0.2673050  -0.8278842
  -0.1318945  -0.0648615  -0.2284004   0.4046075  -0.0531407   0.0806265
   0.1374310  -0.4855746  -0.2471849  -1.0272604  -0.1630243  -0.0907169
   0.3381519  -0.0434379  -0.1080963   0.9053711   0.7343938   0.0234134
   0.1697664   0.0005738   0.2571130  -0.0463352  -0.1302686  -0.5794943
   1.3985699   0.7490643  -0.4617621  -0.3175231  -0.0908818  -0.0445833
  -0.3359498   0.8738266  -0.1385598  -0.0835451   1.4337550  -0.1302990
   0.0046883  -0.3419859  -0.1663108  -0.1723959   0.2326853  -0.4453950
   1.7951016  -1.3236270   1.0966839   0.1852156  -0.1580742  -0.2298388
   0.2653114   0.3497201  -0.2400564   0.8429462   0.3600802   1.0934800
   0.1057732   0.2025709  -0.0734001  -0.7509819   1.5160577   0.6144777
   1.3287845   0.2238009   0.1966847  -0.5973161   0.6669904   0.1864685
   0.1110803  -0.1458510   0.2262566  -0.1137613  -0.1310689  -0.2407797
  -0.0378403   0.1080756   0.1614513   1.2108573  -0.0740849   0.5149693
  -0.1224579   0.1388701   0.2254348   1.0664667  -0.2050441  -0.4158643
  -0.0102009   0.2404577  -0.0651164  -0.0109238   1.2720351  -0.5460905
   0.3586355   0.3111696  -0.0237178  -0.3575098   0.0973000  -1.7669680
  -0.4474048  -0.5180099   0.0358985   0.6756494   1.0181519   0.1668265
  -0.0685416  -0.0864526  -0.2920447  -0.0492880   0.4179637  -0.4831381
   0.9573018   0.8317374  -0.6186474   1.0956099   0.5750156   0.2463098
   0.0952222   0.2142154  -0.0132764  -0.1124975  -0.0318917  -0.0454726
   0.3105191  -0.1616433   0.1503506   0.6025941  -1.3057917   1.2340768
   0.3835637  -0.2140522   0.4869076   0.4868235   0.3319195  -0.0788041
   0.1424670   0.0733507  -0.4186207   0.1457456   1.0812770  -1.0722775
  -0.1258293  -0.1700225   0.3342731   0.0641631   0.8040416   0.8823818
  -0.1149064   0.0610294   1.1015963   1.5580367   1.2544204  -1.0867284
  -0.0184339  -0.0435362  -0.0750019  -0.2759399  -0.2061873  -0.4059212
  -0.4139354  -0.3622409   0.7621195   0.2825267   0.0850281  -0.0784164
   0.1252484  -0.2269803   0.1951945   1.0045365  -0.6464555  -0.7055354
  -0.5325122  -0.1419452   0.3743996   0.0817776   0.1392173   0.0571751
   0.0654271   0.3427998  -0.0394732   0.1001727  -0.0872088   0.1027221
  -0.1599176   0.0717280  -0.1860173  -0.3259092  -0.2639064   0.0466916
  -0.3106631   0.9232668   0.3502433  -0.0339870   0.3248726  -0.1506270
   0.0910790   1.3275081  -0.6114424  -0.3929869   1.8501252   1.3209496
   0.1924095  -0.0121213   0.3248727  -0.5665667  -1.0001703  -0.6859162
  -0.1759915   0.2563426   1.2452077   0.0865757   0.0392079  -0.1433437
  -0.0398690  -0.2702415  -0.2091963   0.0995476   0.1174578   0.0454538
   0.8527161   0.4490486  -0.2984599   0.3070624  -0.9095980   0.8641060
   0.1216519   0.1457132  -0.0577878   0.0357255  -0.0506117   0.2871723
   0.0547878   0.0913423  -0.0622732   1.0828396   1.2829407   0.5074952
  -0.0003082  -0.2311773   0.1868533   0.9175635   0.9272947   0.6702544
   0.1771256   0.0333409   0.0363779  -0.2418409   0.6152004   0.6067553
   0.6406625   0.5754965   0.1245169   0.1617032   0.0140871  -0.1733704
   1.5076154  -0.0627765   0.2312111   0.0110000   0.1635372  -0.0295917
   0.1768167  -0.9152744  -1.7641707  -0.5641794   1.0645667   0.6521688
   0.7471507   0.2993340   1.1096211   0.3408115  -0.1074288  -0.3388565
   0.4385921   0.1696086  -0.4733351  -0.6062458   0.0458597  -0.1310226
   0.7862820  -0.0090241   0.7400193  -0.0115924   0.1636095  -0.3370532
   0.0175756   0.1328650   0.3320291  -0.0775973   0.6336990  -0.2848152
  -0.0786570   0.7176600  -0.6935057   0.0544442   0.3734392  -0.1543899
  -0.0870441  -0.5197493  -1.0918275   0.0197471   0.0355904  -0.0012278
  -1.1588743   1.3612276   0.5673534   0.4850705   0.6185092   0.7887562
   0.0204706   0.0018371  -0.0331997   0.6397053   0.6394875  -1.1688676
   0.0051625   0.3837066   0.3509631  -0.1871090   0.0221059  -0.1304190
  -0.1947436  -0.0998504   0.1459863  -0.5320133   0.4367344  -0.0263326
  -0.4543179  -0.0670427   0.6162275   0.3112879  -1.5366578  -0.8625890
  -0.3914401   0.0308296   0.0686434  -0.1408092   0.4029374  -0.0198469
  -0.0965877   1.2854100   1.3091331  -0.0065092   0.4112874  -0.0369996
  -0.0166030  -1.1380618   0.2261573  -0.6799009   0.5298535   0.1072473
  -0.4406743  -0.0331202   0.2725419  -0.8560304   0.6689455  -0.3476886
   1.0649170   0.7794181   0.0961847   0.1557145  -0.1339893  -0.1209291
  -0.4299169  -0.7451754  -0.4003707  -0.0668775  -0.0828035  -0.1165679
  -0.0277762  -0.0021982  -0.2188400  -0.2589589   1.6797278   0.2029132
   0.0858190   0.6435435   0.4384496  -0.2698080  -0.1353682  -0.1515207
   1.1540377   0.9923324  -1.1731521  -0.7258938  -0.7015415   0.1613153
   0.4544133   0.0399972  -0.4539050  -0.0530056  -0.3049454   0.0012155
  -0.1977372   0.2441629   0.3249618  -0.5257314   1.2581706  -0.5490667
   0.1644597   0.1420111   0.1205883   0.5835866   0.7795513   0.3857711
  -0.0728592  -0.0162628  -0.2254031  -1.5574457  -1.8261994  -0.1579511
  -0.6117566   0.2190214   0.6400448   0.1743444   0.1692094  -0.2994393
   0.5571670   0.1594365  -0.1701974   0.5356952  -0.9727491  -1.6412597
   0.3449179  -0.1945041  -0.1469188  -2.0539055  -0.7956002  -0.3374674
   1.2573906  -0.0672240   0.4430173  -0.2651812   0.1174938   0.0108417
  -1.0186877   0.0711012   0.1242917  -1.1168125   0.2032260  -0.0482715
   0.4623186   0.1291997   0.1241257   0.1685871   0.4170312   0.4272337
  -0.5202112   0.1888631  -1.3450385  -1.3060394   0.7349788  -0.0717122
  -0.1498058  -0.0201706  -0.7365840   0.0519565   0.0323093  -0.2369051
   0.0261733  -0.1320909  -0.1460522   0.2376631   1.3876498   0.4926398
   0.0150664   0.0891041  -0.0823959   1.0777821   0.0953891   0.1323565
  -0.1465407  -0.1264628   0.2775943   1.6724646   1.8664244  -0.2068507
   0.4737948   0.1107201  -0.0964986   1.1243783   2.0763556   1.9487007
  -0.8647632   1.8290634   0.1159294   0.8209474   0.2849932   0.4596910
   0.0456157  -0.1067611  -0.0543656   0.4139154   0.0483335  -0.3587107
  -0.0721458  -0.2690233  -0.2988286  -0.0702905   0.0045782   0.2294531
  -0.0159348   0.3231504   0.0165610   0.0365885   1.1557992  -0.4871933
   0.2519070   0.3783463  -0.3757183  -0.7936237  -0.0760051  -1.4084396
  -0.2201663   0.1425874   0.1607161   0.7685815   0.6772175   0.6507725
   0.1206057   0.8396862  -0.6279514   0.0017911   0.4925057   0.2258386
  -0.0579531  -0.0089615  -0.0695803  -0.0174717   0.7099273   1.2032177
   0.4566332  -0.1711447   0.1481720  -0.9370854  -0.4783679   1.1377725
   0.0090317   0.2397145  -0.2254722   0.2815924   1.7670631  -0.1013472
  -0.0668672   0.2342933   0.4544975  -0.3255291  -0.1724909  -0.0546732
   0.4940178   0.1922724   0.2712574   0.9291256   0.2605076  -0.9319749
  -0.1719155   0.3987062   0.1104020   0.1958048  -0.2291141  -0.1171192
   0.4048926  -0.2298223  -0.1464975  -1.3899473  -0.3754985   0.0406675
  -0.0989569  -0.0897118   0.1962691   0.2820507  -0.8519785   0.0377960
   0.0863323  -0.0542993   0.0796685  -0.1969191   0.6270564  -0.2881755
  -0.1150847  -1.1126689   0.8538080  -0.1059909  -0.1219102  -0.4184596
   0.0881256  -0.0422865   0.0245385  -0.0335560   0.1333178   0.0055657
  -0.5085723   0.0205446   0.2707639  -0.1312960   0.3784477   0.1515061
   0.2220247  -0.0156015  -0.2629199   1.1170423   0.1861087  -0.1552119
   0.0926959  -0.3915367  -0.4345121  -0.7727643  -0.0845457   0.1171590
  -0.1604391   0.1716986   0.1291904   1.4547659  -1.8746051   0.0268615
  -0.7382748  -0.6915327   0.7446962  -0.0321061  -0.3916849   0.0893978
   0.3092076  -1.1605888   0.7747024  -0.1248012  -0.4414918   0.1111370
   0.2041837   0.1482761  -0.1176431  -0.1028606  -0.2212463  -0.1594495
  -1.3253004  -0.7218165   0.0901624  -0.1817077  -0.0513206  -0.0942023
   0.3422099   0.0962803   0.2584442  -0.1396499  -0.2581605   0.4365088
   1.1723157  -1.8481575  -0.1300337   0.8047386  -0.5036630  -0.4410757
  -0.1086044  -0.0312003  -0.1326539  -0.3006185   0.8673369  -0.4757578
  -0.1466355   0.9777214   1.1539202  -0.0343563   0.3189722   0.4313303
   0.0510170   0.2400531  -0.0765922   0.0117924  -0.0272553  -0.1426827
  -0.1036738   0.1233471   0.1678791  -0.0750774  -0.0407435   0.1116810
   0.1205216   0.0614672   0.0776611   0.2534158  -0.6217071   0.1809045
  -0.2918416  -0.1067416  -0.1167233  -1.8671186  -0.7218956  -0.0739591
  -0.2901655  -0.1011539  -0.1379048   1.1296579  -1.1489355  -1.7109999
   1.4320183   0.1507283   0.6496434  -0.2195820   0.5261358   0.0312256
   0.0196352   0.3128573   0.0164067  -1.2254732   0.9135499  -0.5598388
  -0.4736967   0.0361717  -0.2620076   0.4850091  -0.8275883   0.0902454
  -0.1231619  -0.1655139  -0.2018597   0.1270100  -0.0249788  -0.0207116
   1.0602584   0.1169805  -0.3561770  -0.0755001  -0.3968453   0.0831107
  -2.3777836  -0.1930175  -2.1669880   0.4196637  -0.0043988  -0.2672767
  -0.5980314   0.3468739   0.3887860  -0.2231559   0.0630665  -0.3553872
  -0.1857369  -0.0258673  -0.4163372   0.2315520  -0.1311940   0.4356305
  -0.2101947  -0.1625456   0.4237423   0.2162071  -0.1423757   0.1572029
  -0.3465231  -1.5456402   1.1705081   0.1084029   0.2099183   0.1334264
   0.0018158   1.8683353  -0.5111669   0.4550519   0.1302524  -0.1126213
  -1.8086520  -0.4766006   0.4439249  -0.9684727  -0.0229864  -0.3266858
   0.2709105  -0.0865169  -0.2624516   0.1497491  -0.2700582   0.2790913
  -0.4247852   0.7004169   1.1349390  -0.3891747  -0.1179219   0.1112096
  -0.2507931   0.1571144  -0.4688645   0.1135075   0.0156541   0.1559047
   0.0051122  -0.1159011  -0.0465767   0.1949159  -0.0459493   0.3060311
   0.6809541   0.1783747   0.0960682   0.0157465  -0.0499280  -0.2316998
   0.3347456   1.1671177   0.6372698   0.0915527   0.5044005   0.0373444
   0.0047702  -0.4652134   0.2338150  -0.2919013   0.1959102  -0.5935132
   0.2660557   0.0261432   0.1201771  -0.5718199  -0.3939675  -1.1868059
   0.1716032   0.6460213  -0.3971383   0.1483277   0.0957612  -0.1044403
  -0.7935571   0.5510943  -0.2123992   1.1894604   0.1477974   0.1193920
  -0.2432422  -0.0562676  -0.0847440   0.8247831  -0.0784526  -0.6940800
   0.6351901   1.7071225  -0.9615361   0.2086785  -0.0959972   0.1873947
  -1.5190256  -0.2756381   0.1140016   0.2006977  -1.0514646  -0.5907273
  -0.0854501  -0.7869024  -0.2113693  -0.2798015  -0.0106615  -0.2402096
  -0.1636779   0.2051479   0.0538189   0.1594122  -0.1792051  -0.3015729
  -0.5492622   0.5223347  -1.0100293  -0.2791451  -0.3330507  -0.0696125
  -0.2832194   0.0148827   0.3508399  -0.1458144  -0.1308291   0.0980019
   0.6427430   0.2609719   0.3735487   0.0886470  -0.1800257  -0.0844281
  -0.8270865  -0.1381796   0.0483646   1.4281324  -0.2341096  -0.4788659
   1.8200515   0.1970069   0.6178041  -0.6901492  -0.2338075   0.0041032
  -1.9264114  -1.4556558  -0.9028085   0.2518631   0.2214851   0.1772538
  -0.1209379  -0.0537928   0.2756651  -0.1652882  -0.2198692  -0.1804627
  -0.4482743  -0.6047870  -0.0921751   0.0990261  -0.1339412  -0.2227674
   0.6831139  -0.7031161   0.4304151   0.4902368   0.0814586  -0.1944191
   0.2855741  -0.7040446   0.6850455   0.3580573   0.4580546   0.5936065
  -0.0522927  -0.1160155   0.0605188   0.3873577   0.0243073  -1.0411646
  -0.2566766   0.2841230  -0.3252402  -0.4725426  -0.0404041  -0.2433289
  -0.9046434   0.7399113   0.9647092  -0.5966357  -1.1454399  -0.6834927
   0.1290551  -0.2360911  -0.0965500  -0.5673105  -0.7596383  -0.7984093
   0.2177772  -0.0959845  -0.2205175  -0.0263512   0.2250726  -0.2789793
   0.7663491   0.2080175   0.2790854   0.2352211   0.2867290  -0.5382952
  -0.3278337  -0.1749017   0.0398689  -1.0107840   0.4738624   0.2495454
  -0.3951571  -0.3664707  -0.4364255  -0.2557905  -0.0735096  -0.4504600
   0.1160243  -0.3964934   0.1126821  -0.1952857  -0.0916315   0.1754736
   1.1633060  -1.1243060   1.0106166  -0.3234302   0.0386672  -0.1423477
   0.3774187   1.1277750  -1.1985107  -0.0971939   0.3306668   0.2918417
  -0.1206508  -1.0407195   1.1110039   0.0385417   0.1203901  -0.4009745
  -0.1389618   0.2061835   0.6424398  -1.2210224   0.0137810  -0.2670389
   0.2567293  -0.4244029   0.6932295  -0.1761709   0.0138847   0.0636655
  -0.3704227   1.0150036  -0.9094772  -0.2554140  -0.1425927   0.2129257
   0.0146990   0.0506914   0.0572440   0.1462081  -0.2913163   0.4278093
  -1.3669859  -0.1600647  -0.6579339  -0.2305319   0.0074308  -0.2905476
  -0.0204811  -0.9373821  -0.8624748   0.2169632  -0.1121766   0.3857010
   1.0823895   0.1543040   0.6616265  -0.7660044   0.1453018   1.1099001
  -0.1489926  -0.2894466   0.3620521   0.1181189  -0.0015100   0.0591929
   0.0464989  -0.0049377   0.1535549  -0.8818064   0.6973711   0.4568030
  -0.0200337  -0.9022107   1.0612404   0.2773215  -0.1861570  -0.1994220
   0.3112091  -0.0336711  -0.3029193   0.4335935   0.0289225   0.0351040
   0.2264493  -1.0161706   1.2948851   0.1159427   0.1625750   0.1138499
  -0.2696299  -0.7861546  -0.0755392   0.1407435  -0.1291751  -0.0720980
   0.0211004  -1.5032892   0.1702527  -0.4754638  -0.2374542  -0.2418991
   0.1386068  -0.2454373  -0.0224219  -0.2476352  -0.3542129  -0.0694189
  -0.2456959   0.1644776   0.0112462   0.1555168   0.0951869  -0.0129024
   0.0774405  -0.0580368   0.0734807  -0.0015051  -0.1963131   0.2046568
  -1.1129727   0.7729336   0.0395667  -0.0372935  -0.3095751   0.2330132
   0.2302809  -0.3900512  -0.4110939   0.3056467   0.0217153   0.2871326
  -0.8836324  -0.1893428  -1.0512171   1.4068424  -0.3286818  -0.8346780
   0.0260474  -0.0819422   0.2427793  -0.3842244  -0.1095277   0.2069920
   0.3278785   0.7226322  -0.5741832   0.4328194  -0.0799181   0.2766897
   0.5247774  -0.8217892   1.0720874  -0.2056471  -0.2553529   0.3021692
  -0.1230582   0.3582898   0.4431702   0.3106748  -0.0363479   0.4190049
   0.2874333  -0.2181421  -0.1066236   0.1759857  -0.1799523   0.2869708
  -0.0366221   0.1475109   0.3390873  -0.2900060  -0.0939794   1.1259734
  -0.3448193  -0.0817023  -0.0842790  -0.8416106  -0.9359658  -0.7202018
  -0.0837067   0.2959586  -0.2769654  -0.0783802   0.5831042  -0.2194584
   0.0577655  -0.0084841   0.2617097  -0.0355109   0.0903096   0.1849728
  -0.7411915  -0.5117724  -0.9512346  -0.1005117  -0.2559454  -0.1372947
  -0.4785481   0.9528085   0.0632913  -0.1678476  -0.0437075   0.3917227
  -0.3275749   0.9761559  -1.1203467  -0.6237943  -0.1246259  -1.1302794
   0.5626184   0.1496085  -0.0724572  -0.4068859  -0.0565035  -0.0626783
   0.0888492   0.0286926  -0.1082855   0.3243367   0.0920404   0.1043681
  -0.0981779   0.1316753   0.3606650   0.1178571   0.1507987  -0.1158332
   0.3461233   0.6900540   0.1809785  -0.0657473   0.2436233  -0.0288827
  -0.9460817  -0.2724776   0.6261473   0.0207834  -0.3113567  -0.3782820
  -0.5618348  -0.0031328   0.4376333   0.4705628   0.6743141  -0.9321786
  -0.1677729  -0.0064746   0.2262171  -0.1918014  -0.2802710   0.0588664
  -1.1859566   0.2197778   1.0822078  -0.1106670  -0.0121447  -0.1358653
  -0.0941001   0.2269376   0.5203902  -0.2353619   0.3110246  -0.1367395
   0.3348045   0.2663886  -1.4738503  -0.3144780  -0.0329430  -0.0418625
  -0.3770062   0.0088371   1.0101866  -0.1053261  -0.3335588   0.0363840
   0.3697379  -1.1470590   0.5813400   0.1818499   0.0458604   0.0501947
  -0.3789801  -0.0988738   0.0065546   0.1111556  -0.1417497   0.1574824
  -0.1428037   0.6062232   0.1231531  -0.1513728   0.2480753  -0.0276012
   0.0320122  -0.7014169   1.2067248  -0.1922720  -0.3840614  -0.0338484
  -0.1955970   0.5873529  -0.6420978  -0.0595287   0.0835605   0.2091439
   0.6878681   0.8524413   0.8226373   0.1768657   0.5788246  -0.3703955
  -1.4057433  -0.3218860  -0.9813778   0.3765521   0.2062252  -0.1845479
  -0.4380552   0.5070626   0.4508494  -0.5084917  -0.1204606  -0.8844376
  -0.8629963  -0.7571251  -0.0331496   0.1483190   0.6307595   0.1840236
  -0.0663183   0.0799688   0.3039032   0.2996010  -0.1111062  -0.1162442
   0.0157246   1.2047342   0.0249373  -0.0768706  -0.1912534   0.0098626
  -0.1883071  -0.0405546  -0.9529961  -0.2822001   0.2828431   0.1105788
  -0.2300165   0.8084880   0.1908042  -0.1856831   0.1702941  -0.1149185
   0.7050775  -0.3788922   0.9782251   0.3907321  -0.2394678   1.3051887
   0.0411765   0.4554046  -1.3761927  -0.1270008   0.0419405   0.0080284
   0.7210634   0.0608522   0.0651046   0.7481827  -0.9797923  -0.3259563
  -0.5643219   1.2083268   0.4834156   0.2228633   0.1355263  -0.0542701
  -0.3579464  -0.1327366  -0.0412096   0.1265391  -0.1055454   0.1950297
   0.4891805  -1.1320060   0.1057779   0.0714319  -0.0749989   0.1758107
  -0.3276256   0.5857498  -0.4228016   0.1304413   0.2795977   0.3349965
   0.7865358  -0.1313818   0.8608436   0.4101603  -0.3659895   0.4854813
  -0.1922282   0.6286370   0.3881808  -0.1616345  -1.1735405  -0.7478125
  -0.6178196   0.0719114  -0.2448406   0.2518228   0.0164279   0.0968349
   0.5575440  -0.1326414  -0.0687596  -0.0067467  -0.1820476   0.2941495
   0.0381725   0.1450891  -0.1664475  -0.3025131  -0.3515701   0.0494585
   0.2497167  -0.5905305   0.7341597   0.0143513   0.0414204  -0.0644932
   0.3075868   1.6493588  -1.1417663   0.0661118   0.4840780   0.0772885
   1.1876932  -0.6607807   0.7356197   0.0211898   0.0997736  -0.3574996
  -0.3129286   0.2502856  -0.3685911   0.0456027  -0.1594947   0.2558915
   0.8184026  -0.7217790   0.7086238   0.0961310   0.0488718  -0.0349006
   0.2320016   0.2967997  -0.7347682   0.0076700  -0.2515504  -0.0036762
   0.0813492  -0.0648735   0.0103555   0.2356800   0.0331691   0.4574653
   1.2183292   0.6434584  -1.0981895  -0.0914750  -0.1324331  -0.4151569
  -0.9427068  -0.7771917   0.9659072   0.2221146   0.2010620   0.0977887
   0.9140829   0.6064110   2.1650371  -0.9321206   0.2398548   0.6839797
  -0.3543606  -0.1165601   0.0010686  -0.3026646   0.1186354   0.0609252
  -0.0535083   0.1876843  -0.0646636  -0.0985507  -0.0456682  -0.1122346
  -0.2163061   0.0859575   0.0745778   0.0291561   0.0652122   0.0456478
   0.8150245  -0.0821760  -1.2729298  -0.4807137  -0.0589407   0.1684647
  -0.1124368   0.2888554  -0.5142617   0.1272772  -0.4521763   0.0364980
   0.7913440   0.9869923   0.8304705  -0.0716061   0.1306011   0.3312906
   0.1839587   0.4538344  -0.5076699   0.9907415  -0.5190047  -0.1971550
   0.8365160   0.0935969   0.7819639  -0.4129399  -0.1306658   0.6943184
  -0.0261248  -0.4801907   0.2929378   1.2023647   0.4632767  -0.2722647
  -0.0275462   0.1339190  -0.0188598   0.8805348  -0.5127530   0.1780500
   1.3341669   0.2732769  -0.6591393  -0.6679909   0.2678018   0.2696664
   0.1909217   0.1715936   0.1656045  -0.0554408  -0.3141029   0.0351769
  -0.1099911  -0.0391820   0.1944653  -0.3460022  -0.4946045  -0.1038154
   0.3929253   0.0823398   0.0053352   1.5442977  -0.9719498   0.0539654
  -0.5749485  -0.2036104  -0.1082645   0.2705110  -0.8610442   0.1193197
   1.4637111  -0.5968543   0.5562883   0.0559370   0.2317102  -0.0063980
  -0.2078509   0.4474458   0.0121734  -0.0849550   0.0772954  -0.0911798
   0.3050512  -0.1536739  -0.0836557  -0.1654687  -0.1824755  -0.2066744
  -2.0241720  -0.5695575   0.7194163   0.2666930   0.2631129  -0.0202763
  -0.4314466  -0.1131777   0.0650808   0.2293088   0.0246157  -0.2418209
  -1.2588847  -0.5948571   0.5033070   1.5716230  -0.4163124   1.7303462
  -0.1205999  -0.1247958  -0.3056890  -1.2057497  -0.1101442  -0.6587889
  -0.5906600   1.3355267  -0.0589434  -0.1035548  -0.3289648  -0.0524395
   0.3153462  -0.3729258  -0.1244260   0.1180335   0.0264214  -0.0623934
  -0.0074305  -0.3293862  -0.2150255  -0.0330082  -0.3765261  -0.0630865
  -0.2292311   0.1885156  -0.0771540   1.0810691  -0.0753260  -0.0813056
  -0.3683077   0.0461813   0.0090679   1.0476302   0.7063232  -0.9642018
  -0.0506550  -0.2611422   0.1329465  -0.4446654  -0.5529523   1.1295093
  -0.0151587   0.6728533   0.0040968  -0.2348015   0.0700125   0.1993444
  -0.4771289  -0.1107004   0.5862903  -0.8927318  -0.0167762  -1.2260792
  -0.1319017   0.1036771   0.1461670   0.3300056   0.0174643   0.0069475
  -0.1223982  -0.4092950   1.3337566  -0.6766129  -0.4974551  -0.7383529
  -0.4227423   0.5751049   0.7693547   0.0085717   0.6183226   0.0943338
   0.2166043  -0.2111872   0.2080002  -0.3612954   0.5404065   0.2817163
  -0.4506144   0.4817304  -1.1182410   0.1417456  -0.4449174  -0.0207470
  -0.5288316   0.4531699   1.8628988   0.0544212  -0.5772749   0.7226313
   0.0591088   0.0066987   0.0095825  -0.0310763   0.0773676  -0.1145830
  -0.1176385   0.0121014   0.3835711  -0.8199036  -1.0722051   0.8020437
   0.0476622   0.2404241   0.4239488   0.3279399   1.4236329  -0.7091820
  -0.1012308  -0.1238733  -0.3510699   0.1234818   0.3025748  -0.4928019
   0.9283182   0.0231150   0.9185836   0.0660328   0.2640928  -0.3059091
  -0.1748380   0.2771640   0.1238186  -0.2640290   0.1016483   0.1888783
   0.0289414  -0.2072869  -0.3149238  -0.2688287   1.2131421  -0.2262641
  -0.1852976  -0.1662660   0.0108059  -0.4781170   0.2782242  -0.2095519
  -0.4279373   0.2492877   0.4226953  -1.8116907   0.3885288   0.2562688
  -1.0031767  -0.0627622   0.0298266   0.0391180   0.2130539  -0.0846187
  -0.1805754   0.1288982  -0.0960302  -0.2647371   0.0838328  -0.3153837
  -0.6471537  -0.0039991  -0.2906357   1.0006457  -0.1697990   1.3974173
   0.0302095   0.1654847   0.3178701   0.0544113  -0.1024948   0.0709347
  -0.0164798  -0.1868694   0.4058673  -0.3076177  -0.2138900   0.4713587
   0.0810580   0.1686940  -0.2692738   0.1576141   0.5598530   0.4228079
  -0.1860140   0.0133309  -0.2770187  -0.3933316   0.8337713  -0.3484666
  -0.5605584  -1.3308846  -0.6842526   0.4547044  -0.3564594  -0.1042959
  -0.5032963   0.5146874   0.1835073  -0.4586138  -0.7034555  -0.0307672
  -0.0408304   0.0446202   0.3975875  -0.3109802   0.5536663  -0.2410651
   0.1537060  -0.1443018   0.0743738   1.7011884   0.5631997   0.2922747
   0.1652157  -0.2880668  -0.0552646   0.4333786   0.4126878  -0.7665413
   0.2735640  -0.0484024  -0.1324510  -0.5426387  -0.2282302   0.6078662
  -0.1644863   0.1496404   0.2638431   0.0913812  -0.0626173   0.1770210
   0.5195904   0.1607537   0.1299768   1.0581503   2.0624752  -0.9037924
  -0.3939562  -0.1649192  -0.7668914   1.0064394   0.1140176   0.1074127
  -0.5823128  -0.1421960  -0.1640732  -0.9253564   0.6130194   1.1394018
   0.3590097  -1.6762383   0.8906371  -0.0558902   0.1622532   0.0111370
   0.8589262  -0.7140952   0.7697789   1.4191068  -0.0355652   0.5346511
   0.4069732  -0.0587722   0.0409745   0.0549004   0.7996375   0.9931177
   0.1199326  -1.5407473   0.5069873   0.1515914  -0.1244974   0.0586916
  -0.1350913  -1.4269904  -0.2714500  -1.2192600   0.7099622  -0.7210565
   0.0887310   0.1296040  -0.1691554   0.1118615   0.2108331  -0.7641272
  -0.7364485   0.8081760  -1.7266104  -0.3668633  -0.3991372   0.6350634
   0.1747935   0.0651727  -0.0279020   0.0486499  -0.3297085  -0.0376095
  -0.2581702   0.0007429   0.3167909  -0.1469527  -0.3714959   0.8816376
   0.0371419  -0.2108938   0.0414516  -1.1259538   0.5698328  -0.7555608
   0.0452568   0.1382369   0.1103141   0.8840131   0.1179624  -0.3547267
  -0.3128429  -0.5417924   0.1922351   0.0500216   0.6327981   0.1684623
   0.0473352   0.1178069   0.2203871  -0.0243522   0.1133910   0.2695177
  -0.2099084  -0.2103008   0.1951166   0.0279457   0.3607282   1.0806643
   0.1772376   0.2213305  -0.2957814   1.0717008  -0.2179480   0.7252801
  -0.2087168  -0.3286947   0.1070998   0.6202627   1.7642742  -0.6636456
  -0.0507279  -1.3125040   0.9107058  -0.0251498   0.1297218   0.1071185
   1.0590633   1.0867174   0.9949595   0.9737105   0.3046244  -0.1519940
   0.0635481   0.1077338   0.1317820  -0.2066747   0.0898474   0.3879468
  -0.0006290  -0.2156555  -0.0312079   0.3592144   0.2088182  -0.3689423
   0.1411066  -0.1479355   0.2676094   0.1264532  -0.1524394   0.0860112
   1.1546393   0.3626405  -0.0133164  -0.2814890  -0.3467565  -0.6630299
   0.8541677   0.4689943   0.0770023   0.0178324   0.0864120   0.2531260
   0.3033909  -0.1753689  -0.6905523  -0.5674428   0.1901074   0.6540883
   0.4322038   0.1004687   0.0722621   0.4268874   0.1458795  -0.7283494
   0.3888616   0.8077778   0.0491035   0.2021544   0.0085719   0.0942142
  -1.0993459  -0.5928374   0.2315860   0.0660865   0.1700820  -1.5631100
   0.1177110   0.0287523   0.0377780   0.2271794   0.6090032   0.1500408
   0.2687870  -0.2512911   0.0605106  -0.0436649   0.1509355   0.2333185
  -1.1926390  -0.0695175  -0.0291439   0.3623148   0.9847874   0.0374063
   0.2385276  -0.1298534   0.0052908  -1.2762709  -0.1108807   0.8769405
   1.6725948  -0.0398370   0.7141144   0.0366561  -0.5105565  -0.2918222
   0.1879244   0.0591509  -0.2557991   0.1126016   0.1663920  -0.6350883
   1.3015567   0.2581832  -0.1600619   0.0013326   0.0990521  -0.1179175
   1.4351964   1.1673941   0.8955022   0.2362967  -0.0379145   0.0323521
   0.2688806   0.5531736   0.3462538   0.0311198  -0.3769458  -0.2217140
  -0.2341441  -0.8502775  -0.2486939  -2.3366210   0.4335185  -0.5720351
   1.0584698   0.3827001   0.4648840   0.1843045  -0.1573777   0.3390195
   0.5672524   0.3030825   0.9871509  -1.1741668  -1.2050878   0.1915186
  -0.5005758  -1.5936971   1.6987747   0.0563222  -0.5398284  -0.1131203
  -0.3643717   0.2169059   0.0169245  -0.0183634  -0.0767536   0.1052002
   1.1750968  -0.1667758  -0.7539775   0.1203071  -0.1631181  -0.0762381
   0.0869989  -1.2828642  -0.1845175  -0.4323853   0.0849231  -0.0127312
   0.8479734   0.1976536  -0.0356136   0.2805075   0.7424971   0.1662949
   0.7999632  -0.1303612   1.0326851   0.8412508  -0.7243346   0.3307246
  -0.3558280   0.6815652   0.6216893  -0.4375944   0.1325708  -0.0483036
  -1.1138553   0.8373659   0.9114788   0.8013062  -0.5349130  -0.0101093
   0.3398127   0.2742649   0.5572822  -0.5671974  -0.2864915  -0.5484946
  -1.3689501  -1.3218291   1.1725296  -1.5747038   0.1872320   0.5852927
  -0.3193436  -0.1119636   0.0580288   0.1363040   0.0541367  -0.2825605
  -0.2590010   0.1519047  -0.0271798  -0.7333637   0.4990588   2.1019741
   0.5227775   0.5440193  -0.1044489   0.1515227   0.6072685  -0.5158696
  -0.0010976   0.4190095  -0.0745981  -1.8534287  -0.6887771  -0.4645207
  -0.3912996  -0.1586388  -0.6760314   0.1122450   0.1724502   0.1955564
   0.1398844  -0.1494119  -0.2450030  -0.1137373   0.2891488  -0.0074761
   0.1396580   0.0525667  -0.2805045  -0.1346714  -0.3799186  -0.1324360
   0.0108615   0.0990189  -0.1410430  -0.0187031  -0.0709970   0.2543379
  -0.2584305   1.3908323  -0.6182610  -0.2448812  -0.0313597  -0.3242299
   0.3028178  -0.0784817  -0.0796486   0.2831099  -0.1299400  -0.2031302
  -0.5299834   0.1022268   0.5652014   0.0696615  -0.0104385  -0.0210969
   0.3449751  -0.1278137  -0.7136085  -0.2389083   0.3353142   0.4447626
   0.0894828  -0.0564460  -0.4174951  -0.5535069   0.6692208   0.4941023
  -0.1147090   0.1893679   0.0214659   0.0322801   0.0656522   0.0298671
   0.2694354   0.1014334   0.0662848   0.1251624   1.3341732  -0.0083165
   0.0880255  -0.0771176  -0.2941115  -0.0043210  -0.4232946  -0.0184528
   0.1033832   0.0082853  -0.5683962  -0.8881221  -0.5452773  -0.1020805
   1.8719286   0.5589681   1.2234675   0.4580865   0.1072031   0.0271189
   0.6100231   0.1433410  -0.9925286  -1.7188359  -1.0850529   0.7012710
  -0.2207770   0.2342345   0.1878919   1.6606355  -0.2931003  -0.0616455
   0.2784349   0.1989713   0.5977120  -0.3532802   0.1216335  -0.0483190
  -0.9223147  -0.6821784  -0.4299027   0.3480855  -0.3896196   0.0864232
   0.2036423   0.1701405  -0.6913256   1.2105560   0.9791001  -0.0351089
  -0.0502487  -0.8431550   0.2675851   0.1491083  -0.2543275  -0.0580025
   0.7594184   0.4234042   0.4672186   0.0708987   0.6981432  -0.2746627
   0.1076405  -0.0842847  -0.3435648  -0.0916282  -0.2659358  -0.0346226
  -0.0011759  -0.0068953   0.0483930   1.5128833  -1.2217690   0.2855401
  -0.2231877  -0.2913898   0.2528259   1.0528574   0.8253060   0.5763965
  -0.1209475   0.2332663  -0.0365658   0.4909572   1.0492812  -0.8837619
   0.2884259  -0.7691076   0.2491000  -0.5086553   0.0501183   0.6132504
   0.6436174   0.5093109  -0.5518742   0.2133953  -1.3435900   0.4548166
  -0.0238943   0.0817729  -0.0765394   0.4693100   0.3715596   1.5704950
   0.1681744   0.0604806   0.4932620   0.2268555   0.2437609  -0.0143355
  -0.8774229  -0.9238608   0.7581513   0.1496552   0.1577893  -0.1380208
   0.0849472   0.0198365  -0.0952678   1.2592300   0.1516490  -1.1169382
   0.4126486   0.0842273   1.1878573  -0.2370669  -0.0166328  -0.2329233
   1.2754612  -0.2689315   2.5155109   1.2229478  -0.0667668   0.9807272
  -0.1428646  -0.1543468  -0.0566870   0.0483536   0.1120406  -0.4567295
   0.2719867  -0.2533367  -0.1432684   0.5471817  -0.0473840   0.0951872
  -0.3042842  -0.0366664   0.3755559  -0.3068874  -0.4438689   0.4148371
   0.0460246   0.2986180  -0.0816993   0.3659146  -0.8625239  -0.2541358
  -0.5245393  -0.1661427   0.1285996  -0.0628125   0.0154730   0.0476068
   1.6073488   0.7224196   0.2046132   0.1060034  -0.1609958  -0.0137348
   0.1718606   0.4354096   0.0826183  -0.1915653   0.3450510   0.3095192
   0.0953110  -0.8135734   0.4676972   0.1814999   0.0259852  -0.0528970
   0.5871985   0.9017636   2.0451571   0.1991645   0.3032380  -0.0497501
  -0.0632135  -0.7546214   0.1177717   0.2527939   0.6052785   0.1099968
   0.2992951  -0.0409370  -0.1135096   1.3013491   0.9710821  -0.3624185
   1.3122684   0.7473707   0.7601383  -0.3183827  -0.2374620   0.1834637
   0.3895745   0.0753591   0.0026435   0.5461272  -0.0425272  -0.7121893
  -0.4133834   0.3719737  -0.7992654  -1.2744204  -0.8742475  -0.2774699
  -0.0385755   0.2404499   0.0832014   0.0073845  -0.0779139   0.1776138
  -0.1911820  -0.0731260   0.1956096   0.4166835  -0.9103319  -0.7325859
   0.0552932   0.1367076  -0.2172564  -0.0445277  -0.9803896  -0.4362307
  -0.0242569  -0.0884326   0.0904125  -0.9973685   0.3813024   0.9113453
  -0.9101403  -0.1829549   0.6573823  -0.0212238   0.1361761  -0.2804019
   0.3007081  -0.3290375  -0.8633404   0.0464387   0.0050689   0.4608917
   0.0116245   0.1720757  -0.0511437  -0.0037025  -0.8796564  -0.2986860
  -0.3638047  -0.7739182  -0.5268476  -0.4843419  -0.0764950  -0.1269437
  -0.1201829  -0.1493504  -0.5364515  -1.0189779  -0.0170849   0.3804928
   0.1213599  -0.1129677   0.2128794  -0.3430326  -0.2114533   0.9220488
   0.3447454  -0.4389970   0.4315514  -0.7906669   0.4212968   0.6975852
  -0.0294191  -0.1747977  -0.1537239   0.1277183  -0.1939747   0.1065394
   0.0541753  -0.1683361   0.1760836   0.0015593   0.0421870  -0.0896301
  -0.2424510  -0.3873590  -0.7154609   0.1765157  -0.2891762   1.3772976
  -0.1168185  -0.2681398   0.4280938   0.0128841  -0.7726100  -0.3001554
   0.3784863   1.2415499   0.9593753   0.1073247   0.3131713   0.0808194
  -0.8247244  -0.7128592  -1.3738791   0.0043874  -0.9432153  -1.6979850
  -0.4273413   0.0389231   0.3021888  -0.7887675  -1.0258714   0.2171810
  -0.1193110  -0.3792051   0.1048568   0.0910946  -0.0282325  -0.1727165
   0.1318964   0.0357906   0.0488063   0.8520232   0.5652719  -2.0645194
  -0.3295595  -0.1792701   0.2424699   0.5126980  -0.7741862  -0.6542025
   0.3734423  -0.1074854   0.4713836   0.3037688   0.1638766  -1.4961947
   0.2639074  -0.3089830   0.0010172   1.4288770   1.1858592   0.9818344
  -0.4217275   0.3698200  -0.2660918   0.5022702   0.8181629   1.4782280
  -0.0250302  -0.1767331  -0.1074448   0.9250570   0.4214121  -0.3725364
   0.5035238  -0.5028537  -0.6697438   0.4541793   0.3539663   0.1899584
  -0.3057924  -0.0972268   0.2596069   0.0100339  -0.0600433   0.0887079
  -0.0201286   0.1341174   0.2128828   0.5199948   0.0694008   0.1114331
   0.0532506   0.0030206   0.1932288  -0.3384650   1.7185236  -1.1526934
  -0.1624021  -0.3156701  -0.1979115  -0.4149890   1.7777361  -1.5084839
  -0.0270404   0.0293329   0.4084235  -0.1233207   0.6706303  -0.0761817
   0.1048710  -0.1186588   0.7124329   0.3431136  -0.4017844   0.1026418
  -0.2618353  -0.0745391  -0.1867576  -0.5732317   1.0383850   0.2037570
  -1.5519394  -0.2020254  -0.9575498  -0.0237224  -0.0870436   0.0401689
  -0.7009850   0.1616880   0.4063029  -0.4933240  -0.2574117   0.8263242
   0.5278804  -0.1013941  -0.7814443  -0.0912186  -0.3578362  -0.0639031
   0.4133308   0.1955087   0.0717917  -0.1601269   0.0360586   0.0189222
   0.1714973   0.5661259   0.4238363   0.0333344  -0.1646602   0.0103354
   0.3935830   2.2040505  -0.5241419  -0.2052300   0.2683951  -0.0411754
   0.3848273  -1.2282583  -1.2099084   0.0255044   0.0001428  -0.5511913
  -0.1235122  -0.1871747  -0.2481420  -0.1284922   1.2375096  -0.0974736
  -0.2353992  -0.0425774  -0.3126811   0.4106888   1.4125930  -1.9461091
   1.0423035  -0.5132596  -0.2826007  -0.0382203   0.1284762   1.2717650
  -0.1103140   0.0425869   0.1543775  -0.3298315   1.1160603  -0.9599719
  -0.3485865  -1.3921666   0.5818176  -0.7406240  -0.3442417   0.6163423
  -0.0932429   0.2665552  -0.1381213   0.0320611   0.3148174   0.1996690
  -0.1915356   0.2559140   0.0117195   0.6085149  -0.3276778  -0.2293339
  -0.1605032   0.2166358   0.1622118  -0.5920614  -0.1794943  -0.4875414
  -0.0606744   0.0244027   0.0473378  -2.6611873  -1.1726760  -0.4084254
   0.1668827   0.0217873  -0.4266203   0.4741041  -2.1381012   0.5399114
   1.1930127   0.1184684  -0.4273797  -0.1732693   1.1341499  -0.2409132
  -0.0168443   0.2605919   0.0744890   1.2645344   0.4836893  -0.5920064
  -0.1732824  -0.4001563   0.2262013  -0.1943610   0.0701463  -0.0679389
   0.1317291   0.3197249  -0.2533947   0.5138278   0.4160343  -0.1543530
   0.2450893   0.0584467  -0.2303147   0.8613640   0.4179171  -0.7981925
   0.1100238   0.1069799  -0.2435216  -0.2911669  -0.4702637   0.7270883
   0.1415584  -0.0010968  -0.5898356  -0.1472292  -0.0755391  -0.1969236
  -0.0386954   0.0447010  -0.2319202   0.1335453   0.1928445   0.0897185
   0.0724501  -0.2656495   0.1622466  -0.0874406   0.1805623  -0.3042557
   0.0353886  -0.0099408   0.1554751  -0.0689205  -0.9601983   0.1181245
   0.3594499   0.3715976  -0.0867205  -0.0834377   0.3936960   0.8039502
  -0.9270199  -0.7187117  -1.1800690  -0.2258444   0.0848337  -0.0254996
  -0.1926102  -0.0946803   0.4009491  -0.0371812  -0.1751950  -0.0265668
   0.8106870  -0.4192879  -0.4274049  -0.1453566  -0.3303726   0.0884239
  -1.8874270   0.6477663   0.9110693  -0.1599544  -0.0333061  -0.2733233
   1.1269160   0.4983403  -0.6315179   0.2317786  -0.2556751  -0.4782745
  -0.1459180   0.2919400  -0.0268282  -0.7132519  -1.5351692   1.0077369
  -0.9498236  -0.4512960   0.1542479  -0.1677765  -0.1144250  -0.0753594
  -0.3280338  -0.2228897  -0.0017548  -0.3651254  -0.1235798  -0.1112169
  -0.2054009   0.1297967  -0.2333477  -0.1133531  -0.2046491   0.0194571
   0.1602344   0.2867608   0.2889150  -0.2610708  -0.3941519   0.6953203
   0.1267768  -0.0065196   0.1984105   0.4307085  -0.0900629  -0.0083824
  -0.4524437  -0.4153542   0.3013918  -0.0054550   0.1470945   0.3929278
  -0.1092267   0.6975487  -0.5674415   0.0832452  -0.0553930   0.0183593
  -1.5112221  -0.3131697  -0.7016819   1.5159859  -0.7407425  -0.4516492
  -0.0489617  -0.0152824  -0.2383417   0.0005047   0.0143037  -0.1320771
   0.2070853   0.0599807  -0.0603559  -0.1114260   0.3595375   0.0343003
   0.0239489  -0.0717466  -0.0604298   0.0604988  -0.1610146   0.1804464
   0.2059742   0.5873962  -1.0082489   0.0241631   0.0863397   0.2116562
   0.0380466   0.0075959  -0.7835131   0.1631245   0.0929239  -0.1385053
  -0.9601421   0.1771858   0.3500089   0.9980048   0.1475326  -1.2642027
   0.2486572  -0.2751928   0.0463960   0.6394963   0.7093278  -0.5340057
   0.6741103  -1.1451383   0.6547375  -0.3576461  -0.3676171   0.1671844
   0.9534536   0.4538757  -1.0972565   1.0579553   1.4156590  -0.1357013
   0.0917455   0.1045409  -0.4921027   0.0023646  -0.6155813   0.8149437
   0.2207184   0.1691016   0.0884303  -0.1629364   0.1992816   0.0673805
   0.7117063  -1.4188257  -0.8020257   0.5123716  -0.4160444   0.2136049
  -0.0640625   0.0182787  -0.1146698  -0.7186389  -0.7434198   0.3193735
  -0.5166800   0.1403912   0.7637161  -0.1041618  -0.1060806   0.2420514
  -0.3278058  -0.1241014  -0.1354911   0.3534409   0.0199419  -0.2208833
   0.6339123  -0.6006683  -0.2496472  -0.0879991   0.0995535  -0.0644065
   0.7291601  -0.9635289   0.8633606   0.1181336   0.3372748  -0.0447527
   1.0004112  -1.0058026  -0.3541027   0.0575937  -0.0802352  -0.0094217
   0.4364425   0.7189568  -0.0921910  -0.0557544  -1.7384242   0.3992145
  -0.1508593   0.1083888  -0.5902972   0.5704954   0.1619172  -0.0987529
   0.1061824  -1.3638023  -0.8503076   0.2606022  -0.9795690   0.1989388
  -0.6784667   0.3051934   0.2819331  -0.1893911   0.5669339  -0.1622428
  -0.3104388   0.0331954   0.4294152  -0.0611907  -0.2633775  -0.0625079
   0.5103853  -0.9549544   0.3663497  -0.0166465  -0.5875810  -0.1501404
   1.3301583   1.3354880  -0.4246512   0.1593636   0.1125237   0.0006894
   0.1045497  -0.5393402  -0.4447786   0.1284632  -0.1281633   0.2492105
   0.0783609   0.5953816  -0.2408976   1.2989132  -0.3361827   1.1448315
   0.1592008   0.8185299   0.3494791   0.3119764  -0.2728027  -0.3093874
   0.2841623  -0.2157975  -0.7112529   0.1120379   0.0654448  -0.0210003
   0.2575680   0.0101684  -0.5886241   0.2669824   1.2810289   0.1096553
   0.6094649  -0.5068019  -0.2914855  -0.3735526   1.3398866  -0.7402860
  -0.1439072  -0.6997196   0.1636047  -0.1974954  -0.1303094   0.0253725
   0.1229206  -0.0031385  -0.2742444  -0.4566626   0.0640519  -1.0444410
   0.1633851  -0.0093388   0.1624466  -0.3348793   0.1024093   0.2373808
  -0.0869664   0.1315512   0.0133551   1.1827024   0.0006851  -0.3913805
   0.7773279  -0.8260743   0.7360579  -0.0227288   0.1243951  -0.4602032
   0.7648633  -0.1982839   0.0080637   0.1927723   0.1626991   0.1095855
  -0.6852271   0.7802832   0.1521020   0.1450219   0.5732639  -0.0562710
  -0.0021954   0.5617995   0.1736892   0.0093022  -0.0270273   0.1812248
  -0.4805268   0.2254288   0.6168010   0.0258211   0.3049780  -0.6086112
  -0.0566685   0.1504947   0.6612453   0.2177975  -0.0446413  -0.4892666
   0.3542541   0.0052505  -0.1661436  -0.2846940  -0.1502486   0.0977023
   1.0494140  -0.2102187  -0.7166753   0.0717638   0.2934460   0.2869970
   0.3053031   0.2342541   0.1648914   0.1312843   0.2995311  -0.0547054
  -1.4487395   0.4123475   0.7615565  -0.5017682  -0.2021258   1.3775974
   1.3479035   0.8692385   1.0122876  -0.0321486  -0.4415807   0.0835558
  -0.1386298  -0.1065608   0.1990995   0.0827798   0.2946784   0.0281641
   1.5974769  -0.0241564   0.6571430   0.2483930   0.1488283   0.2958433
   0.6359223  -0.8944155   0.3314896   1.2865335   0.1391676   0.1266502
  -0.3371687  -0.2836138   0.2678759  -0.0037197  -0.0386053  -0.0923302
  -0.0110780   0.3361379  -0.1516718  -0.1625938  -0.2648333  -0.1270560
   0.3186476   0.5586118   0.2468595   0.5488512  -0.1263183  -0.4533692
  -0.1440487   0.3405653  -0.1663052   0.1499839   2.0243022   0.4126345
  -0.9062423  -0.0211733   1.0331929  -0.2387153   0.0741119   0.4685923
  -0.9579757   0.5346578   0.4800518  -1.0231675   0.2141221  -0.8838656
  -0.5836326   0.1455201   0.0868207   0.6128455  -0.4699847  -0.4898480
   0.1814608   0.0051533   0.0741167  -0.1394921   0.3371755   0.0250980
  -0.1929871   0.3046019   0.2291093   0.2066741   0.7719283   0.5082368
   0.0362935  -0.0927049  -0.0420267   0.8904381   0.7878917   0.4706193
   0.1501577  -0.2483890   0.1000161   0.3475438  -1.3331651  -0.4570981
  -0.0516934   0.8123202   0.5263650   0.4159307   0.5374108  -0.2170632
  -0.7974135   0.0077271  -0.3546534   0.3904742  -0.7936366  -0.8172031
   0.1110006  -0.0824185   0.0932188   0.0252771   0.2818029   0.1056882
  -0.5064543  -0.4630244  -1.6668586  -0.2726597  -1.4066128   0.7780462
  -0.0701830   0.7765292   0.4038392  -0.1821024  -0.4221897  -0.0805454
   0.0423501   0.0970166  -0.2883755  -0.0344938  -0.1526293  -0.2049890
   0.1009543  -0.0650730  -0.2310349  -0.2516801   2.0137841   0.2021167
  -0.1063566   0.7347998   0.4414616   0.2340191  -0.2695042  -0.0657904
   0.5332024   0.5256344  -0.1966719  -0.0827830  -0.7764072  -0.3247616
  -0.0919408   0.1848887   0.0960035   0.2964988   0.0208600   0.6369302
   0.0727783  -0.6295059  -0.7671997  -0.1779229   0.1831336  -0.0398469
   0.4731684  -0.0110070   0.7901517  -0.2706801   0.2398183   0.0403200
   0.1936004   0.1111809  -0.0261607   0.1786024   0.2318642  -0.2059471
  -1.2174488   0.9922658  -0.6771518   0.0857997   0.1237554   0.2275065
  -0.0283263   0.0099925  -0.2151698   0.0523767  -0.1494308  -0.0862968
  -0.8732159   0.3078680   0.1575080  -0.3173004  -0.0496635  -0.1968165
   0.1718272   0.2032693  -0.4671231  -0.6541067   0.2748058  -1.1218732
   0.3172921   1.3704087   1.0370495   0.0272062   0.0216768   0.2863369
   0.7240106   0.8285928  -0.9878025  -0.1741798   0.2169870   1.1608958
  -0.0073638   0.8674168  -0.1084360   0.0483548  -0.0824091  -0.1849164
  -0.3855843  -0.0575003  -0.1120809  -0.1074256   0.1411818   0.2214245
  -0.4842582  -1.2005263   1.1821775  -0.1544120   0.2343886   0.1465123
   0.1746915   0.0127068  -1.2258273  -0.2536823  -0.1651414   0.1204724
   0.8237916  -0.2893101  -1.0145015  -0.1039015  -0.0977254  -0.4004072
  -0.7105449  -2.0915636  -0.2771604   1.0815340  -0.2537578   0.2998921
  -0.5773811  -0.2099681  -0.8958327  -0.2872239   0.1680913   0.1088847
  -0.0501427   0.9996332  -0.5038954  -0.2137686   0.1570024   0.0197471
   0.2938987   0.1042153  -0.1283313  -0.1548638  -0.1189302   0.1882389
   0.6781204  -0.1214728  -0.6176005  -0.3475986  -0.2533025   0.0380233
   0.6190288  -0.5620981   1.6924684   0.2631782  -0.0943706   0.1428010
   0.1450914   0.7171095  -1.3541410  -0.9116328  -0.4217940  -0.8554876
  -0.0136596   0.0150729   0.3219754   0.4115229  -0.3557616  -0.2394703
  -0.2731862   0.1603924  -0.0589070   0.1470798   0.0597436  -0.3101341
  -0.1306406  -0.0897866  -0.1123767  -0.9236484   1.1744219  -1.3099859
   0.2448881   0.0156556   0.3096338  -0.8105310  -0.3224209  -0.2087691
  -0.2528424   0.1023756   0.1554895   0.0950154  -0.2090680  -0.3057577
   0.3286850   0.4535551   0.0196078  -0.8530263   1.1235653  -1.7874949
   0.2003083  -0.3013345   0.4235385  -0.1325994   0.5886515  -1.6543325
   0.1368264   0.0336467  -0.4653876   0.8275487   1.2659784   0.1602423
  -1.0581184  -0.0274101   1.0254276  -0.2881126  -0.2442972   0.0223456
  -1.2169825  -0.5531714   0.0825772   0.1692311   0.1244998   0.0844149
  -0.1692566   0.2797983  -0.2982188   0.2287883  -0.1294799   0.2468286
   0.6154962  -1.0293392  -0.2364609  -0.1472788   0.1173933   0.1394677
   0.0900841  -0.8259438   0.3604528   0.2950693   0.2689114  -0.0234986
   0.9208239  -0.5442879  -0.6147053  -1.3320662   0.6777379  -0.3019197
  -0.1103046  -0.4439904   0.0778088  -0.3360150   1.3913493  -0.1748906
  -0.4100104  -0.3343102  -0.1860233  -0.0139160  -0.0585118   0.0935686
  -0.0814152  -0.0778500   0.0499720   0.6665050   0.8818483   0.7196544
   0.2843134   0.1664501   0.1983475   0.5395049  -0.6426814  -0.0218991
  -0.0592991  -0.0558723  -0.1811645  -0.2643571   0.4744614   0.5788609
  -1.0620853   0.7279328   0.3191789   0.5375936   1.4872321   1.1723114
  -0.1461230  -0.3381290  -0.1418451  -0.1611980  -0.0555362   0.1946335
   0.4272969  -0.0273820   0.0152315  -0.0959724  -0.2588601  -0.7389753
  -0.1841558   0.1276378   0.2735739  -0.4749078   0.4409260  -0.1085738
   0.4051878   0.2975476   0.4195218  -0.1725399   0.9461233   1.7979565
   0.6993259  -0.4088919   0.1738886   0.4079943  -1.8297492  -0.3560187
   0.1990309  -0.1215229   0.5234095  -0.2318977  -0.1779976   0.2464686
  -0.3016473  -0.1689264  -0.1324753  -0.5675062   0.5005751   1.2646485
  -0.2995719  -0.0622166  -0.0709981  -0.0512025  -0.4085843   0.3401089
   0.1897460   0.0251840   0.1268778  -0.6371782   0.1622979   0.8235416
   1.0151884  -0.7208195  -0.1030376  -0.1483726  -0.1352885  -0.3011642
  -0.2801263   1.7517834  -0.2225135   0.0583798  -0.4964691  -1.5331837
   0.3318355  -0.0280463  -0.1167380  -0.0302363   0.0303299   0.0758245
  -0.1696648   0.7063751  -0.0174072   0.0634958   0.1713559   0.2980927
  -1.4835672   0.4072499  -1.0398626   0.2328152   0.2713659  -0.3356111
   0.1562464   0.1779990   0.0146678  -0.0756230  -0.2159219   0.0211179
  -0.6193416  -1.6000845  -1.0765636  -0.1035240  -0.3896048   0.1962999
   0.0894710   1.4930679   0.4925682  -0.0871776   0.3844530  -0.1769905
   0.3922199  -0.1062710   0.8956030  -1.4323432   0.1269668   0.0316106
   0.0907246   0.2086126   0.2549891   0.9289298  -0.5884162  -0.5735550
  -0.6546601  -1.0472293   0.0364861  -0.2929943   0.5354656  -0.0390091
  -0.3635200  -1.1690350  -0.0452725  -0.3948370   1.1059625  -1.0289407
   0.2693250  -0.1335353   0.1315138   0.0434947   1.0885792  -0.6590331
  -0.1264450   0.0969266   0.4588682   0.1621216  -0.0809038   0.2907561
  -0.6628449  -0.7416052  -0.2209298   0.8682553  -0.4935077  -1.4085962
  -0.2910362   0.5116079  -0.2468985   0.4757504  -1.4684001   0.4474163
   0.2172866  -0.4955194  -0.3986658   0.2279135  -0.1706379   0.0737343
   0.0883278   0.1568050  -0.2747041  -0.2120491   0.1872762  -0.1132387
  -0.1278624   1.0461897  -0.1880516  -0.2352522  -0.3657822  -0.3980583
   0.0767959  -1.2730669   0.7617365  -0.0905517  -0.4249704   0.0217434
   0.8247735   1.0093489  -0.2326150  -0.3223131  -0.3214170  -0.2665190
  -0.1801666   0.2554853  -0.0787712  -0.5575449   0.9118985  -0.6278509
  -0.1691801   0.7313316   1.8857637   0.0480877  -0.1821346  -0.2409826
  -1.0221100  -0.0570765   0.1499309  -0.8197294   0.9829668  -0.1977289
  -0.3188355   0.1065936  -0.0087649  -0.6387274  -1.0849183  -0.9813284
  -0.1213895  -0.1944360   0.3712595   0.0289167   0.1140337  -0.1310726
  -0.6147939   0.0659353  -0.1770995   0.8231869  -0.2557164   1.0177214
  -0.0349635  -0.4950322   0.3214170  -0.0617961   0.1682844  -0.4278601
   1.2271139  -0.2154863   0.2029108  -0.2023749   0.3788083  -0.0667553
   0.0611566  -0.1211518  -0.1491460  -0.3900256  -0.0076948  -0.2198124
   0.0628409   1.7301187   0.8004108   0.0236242   0.2706875   0.2677410
   0.2027155   0.0131786   0.3364163  -1.2198515   0.0608112   0.6491781
   0.0601583   0.0166050   0.4094241  -0.0501610  -0.0929697  -0.3492142
   0.1433439   0.0553856   0.3628943   1.1900461  -0.0805572  -1.5896281
  -0.3665823  -0.0675946   0.0684201  -0.3486836  -0.0459836  -0.4865643
  -0.0091167  -0.0603343   0.6253549   1.2136608   1.7271312  -0.7063437
   1.7923872  -1.0088127  -0.8662452   0.4700673   0.1373064   0.2932059
  -0.0888037   1.6071759   0.6267218   0.0615464   0.5100407   0.3228836
  -0.0474272   0.1023124   0.0077258   1.1596062  -0.4374239   0.0736682
   0.1358581   0.9811625   0.1766982   0.1793809  -0.0715877   0.1031069
   1.0579098   0.6930573   0.4207288   0.1231101   0.2959141  -0.0522499
  -0.4042197   0.1202358  -0.5186398   0.4070357   0.9593138   0.5904512
  -1.2462037   0.9230046  -0.3563041  -0.2156818   0.0292947   0.1594433
  -0.5006889   0.2125815   0.1696664   0.6607264  -0.4422841   0.7190850
   0.0041960  -0.0000500   0.2621666  -0.0277832  -0.1268097  -0.3165955
  -0.0491409   0.1044168   0.0936447  -0.9776031  -0.5628735   1.6616906
   0.2635946   0.1517223  -0.2167752   0.1245701   0.8393264  -0.1085883
  -0.0617852  -0.0179578  -0.0688071  -0.9822718  -0.3701847  -0.5514015
   0.3300532  -0.1738627   0.0418021  -0.7520889   0.9681690  -0.0302271
  -0.6253374   0.3282323   0.1633265  -0.1799815   0.2900879  -0.9623564
   0.2169190   0.2162422  -0.1747357   0.7176739   1.2634334  -0.3396216
   0.2702268  -1.1457783   0.9243980  -0.2223188   0.0892711  -0.0206973
  -0.7989013  -0.5952969   0.1151012  -0.3101774  -0.6392819   0.0684953
   0.1193517   0.8211639   0.8165536  -0.2254789   0.1659295   0.2945033
   0.3577800  -0.2783227   0.0700751  -0.1024740  -0.0431086   0.0950942
  -0.4390157   0.1124381   0.1119809   0.0527537  -0.3345031  -0.1423162
  -0.2399884  -1.9065389  -0.1338383  -1.0386084   1.1821738  -0.0250330
  -0.0340483   0.0831270  -0.0460094   0.1411855  -0.0343115   0.2309980
  -0.0479684  -0.0448133   0.0974538  -1.1465565   0.0803505   0.6772071
  -0.0180961  -0.0740117   0.2369808   1.4937520  -0.9220323   0.7841904
  -0.0673018   0.0720927   0.3030824   0.1087741   0.4811810  -0.9271781
   0.3454355  -0.9034882  -0.8716337  -0.2982549   0.3390398  -0.1529702
  -0.5364405  -0.1184800   0.1723877   0.1821249  -1.0003251  -0.2888947
   0.0460072   0.4763621   0.0209555  -0.3482579  -0.0164403   0.2113916
   0.7066232  -0.4626037  -1.0743447  -0.0190042  -0.3671139  -0.2098811
  -0.6386480   0.2506945   0.3722661  -0.1498639   0.2214054  -0.0842275
   0.0630325  -0.5785487  -0.2753389  -0.8444425   0.1638048   0.0564503
  -1.0377381  -0.5333961  -0.3483508  -0.3113226   0.1211288  -0.3581217
  -1.2210476  -0.1823184  -0.7258717  -1.9692539  -0.5386177   0.0349511
   0.1079504  -0.0338527   0.4152193  -0.1104571   0.1602801   0.1170851
  -0.1134409   0.1271540   0.3168354   0.4133481  -0.0916600   0.8948389
  -0.1553819  -0.2621637  -0.0295147   0.0870390  -0.0907687   0.5492473
  -0.0947836  -0.3164867   0.1335799  -0.0515875  -0.3066921  -0.2629162
   1.7393715  -1.3322904  -0.0753848  -0.4388239  -0.0647148  -0.3765644
  -0.3197384  -0.0229578  -0.2229399  -0.1376912  -0.1426864  -0.0691905
   0.8050336  -0.8096720  -1.3841370   0.4178691   0.2482015   0.0611628
  -0.0167900   0.4689816  -0.1934318   0.2928033  -0.0326096  -0.1776898
   0.3490182   0.1764657  -0.1861253  -0.3501725  -0.0745092   0.1751444
   0.2014708   0.2367700   0.0338868  -0.8027026   0.6886101  -0.5031748
   0.1939821  -0.1307931   0.1144210  -0.0015155  -1.0191186  -0.4684884
  -0.3096585   0.5172318   0.2446051   0.1125551  -0.0236633  -0.2472576
   0.9299039   0.3124573   0.1253870  -1.0467826  -0.0465241  -1.2462255
  -0.0427666  -0.1438765  -0.2425385   0.7965604  -1.1868660  -0.4525760
  -0.2019986  -0.1024732   0.0955271   0.0812312   0.2649755  -0.0641838
  -0.0814442   0.0891914  -0.2527906   0.0721902  -0.8180576   0.8411659
   0.2592418  -0.0334708  -0.0948682   0.1804279   0.8880700  -1.3201864
  -0.1887821  -0.1169953   0.0218984   0.5917097  -0.5239321   0.5602619
  -0.7914063   1.2346982  -0.4263296   0.0731032   0.0598655   0.0983015
  -0.0479671   0.4744418  -0.6348888  -0.0578646  -0.7511984   0.8237512
   0.0677810  -0.1817682  -0.0549144   1.2626336  -0.1052893  -0.6177850
   0.3714469   0.0232191   0.3318645   0.0579438  -0.0956865  -0.1797137
   0.0754118  -0.0351968  -1.5242639   1.0922534  -0.9319196  -0.1814735
   0.0965468  -0.2417799  -0.0519350  -0.0166506  -1.1019727   0.0787297
  -1.9283349   0.9845906  -1.3622575   0.3962002   0.5310434   0.6263976
  -0.1110895   0.0462466   0.0779704   0.1060930   0.2095527   0.1007846
  -0.0639181   0.0823580  -0.3469793  -0.2847617  -0.8199685   1.5187917
   0.1077880  -0.0999526  -0.1446198   0.5640378   0.4244988   1.1164665
  -0.2081533  -0.2414337   0.3163972  -0.2188542  -0.1627020   0.7972632
  -0.3393394  -0.1844824   0.6121075   0.0127707   0.0509239  -0.0549600
   0.2506807   0.1639212   0.2583085   0.2298657  -0.0583735   0.0435793
   0.5568955   0.3041603   0.8804046   0.4794668   0.5797871   1.3501952
   0.3101365   0.1163114   0.0470473   0.0880988  -0.2958367  -0.2579895
  -0.0758678  -0.2806579  -0.0110713  -1.7917375   2.1105290  -1.3362193
   0.0276236  -0.0674955  -0.1044510  -0.8448895   0.0706858  -1.2162022
  -0.1573777  -0.2862468  -0.0791202  -0.0068969  -0.3592554   0.8549889
  -0.1091979  -0.6271701  -0.3758138   0.0285963   0.2054753  -0.4127235
   0.2153435  -0.3169232   0.4860403  -1.2975891   0.3626552  -0.6029329
  -0.1607140  -0.3136676  -0.2354296  -0.0493212   0.0620797  -0.1209078
   0.0258923  -0.1824525  -0.1052851   0.0976872  -0.2799506   0.2234791
  -0.0583468  -0.0147985  -0.2810451   0.1282315  -0.0151341  -0.2400596
   0.3475034   0.3699764  -0.3658263   0.0714155  -0.0561739   0.0902631
  -0.0202080   0.9882899  -0.8308407  -0.4918267   0.1324047  -0.3088766
  -1.4767051   1.4446675   1.6147788   0.2313884  -0.2267425   0.0135282
  -0.2346731  -0.2803200   0.2686586   0.0441124  -0.4928861   0.3528984
  -0.1341181   0.3926465  -0.0271844  -0.5935494  -0.0517376   0.5394840
   1.0669340   0.7058513   0.3511565  -0.0691419  -0.1527290  -0.4344443
   0.0156143   0.1084908   0.0824558   0.3882468   0.0845289   0.0791485
   1.4483663  -0.3713848  -0.6338936   0.0362484   0.2110901   0.0952204
  -0.0771392  -0.9119426  -0.2123745   0.3522662   0.1726086   0.1313664
   0.1965434   0.2370538  -0.8821022  -0.6162431  -0.6396194   0.5140782
  -0.2122727  -0.2231349  -0.0200540  -0.0656331   0.3035210  -0.1108883
   0.4245036   0.1621400   0.2605491  -0.1825857  -0.1114918   0.2179842
  -0.1964588  -0.2639245   0.0021136  -0.2720510  -0.2005078  -0.1629651
  -0.2263023  -0.7513135   0.2766921  -0.4576870  -0.3021196  -0.0071364
  -0.2462871  -0.1127537   0.0054655   0.0157892  -0.0340886  -0.2212653
   0.5972597  -0.3778724  -1.4690390  -1.4745698   1.0021676   0.6205450
   0.2319254   0.0239852  -0.0678681  -0.9424154   0.3812296  -0.5770161
  -1.0652844   0.1020079   0.5849502  -0.0892824   0.2081907   0.1210415
  -0.1636438  -0.0043497  -0.0727605  -0.0331294  -0.4351202   0.1277833
   0.8219024  -0.5295438   1.0166070  -0.1976975  -1.2775328   0.4468343
  -0.1697298   0.0871792  -0.0864268   0.1202339  -0.2951829  -0.1532402
  -0.0515449  -0.3980827   0.2081652  -1.0824462   0.4216703  -0.6672941
  -0.2303133  -0.0960375  -0.1175197   0.2124989   0.0639904   1.0474733
   0.0102894  -0.0759589   0.3471461   0.7225410  -0.4977638   1.7635946
  -2.2625452  -0.5094617  -0.2454808   0.3441719   0.0693868  -0.2795113
   0.0752233   0.3133315  -0.5416362   1.5550590  -0.5148717  -0.5455280
  -0.1881376   0.3058484  -0.2078181   0.0450462  -0.3636402  -1.6978492
   0.0352292   0.1395133  -0.0552885   0.0416763   0.2783373   0.0777630
   1.2848405  -0.6806963   0.1574358   0.2389804   0.0072606  -0.2392411
   0.1170149   0.8336298   0.2871328  -0.0889559   0.0539091   0.2521135
   1.3642559   0.0567736   0.6591486   0.4315010  -0.0862822   0.1980461
   0.0054292  -0.1035080   0.1765994   0.1588445  -0.0709499  -0.0494495
  -1.2815594   0.1679193   0.6426504   0.2840871   0.1147410  -0.2169429
  -0.4742833  -0.8992291   0.9414144  -0.1644174   0.5116596  -0.0071954
   1.4075961   0.3045875   2.1954729   0.3384857  -0.0057527  -0.2759102
  -0.5266281   0.6714431  -0.1740781   1.9447766  -0.4516112  -0.2486558
  -0.4051765   0.1602493   0.5473224  -0.2033659  -0.2414368  -0.2585041
   0.7073137   0.0624910   0.6619040  -0.9580020  -0.5020600   0.1308554
   0.0993789  -0.2590613  -0.3504170  -0.9690869   0.2337853  -0.3351091
  -0.1384176  -0.6433822   0.7031151   1.1987609  -0.3890515  -0.6119406
  -0.2703534  -0.2791723  -0.6017977  -0.0396927   0.1833138  -0.0359515
   0.0454657   0.1519084  -0.2889829  -0.1557219   1.4590746  -0.2855215
  -0.2264928  -0.1613398  -0.0843171  -0.4202809  -0.2140094   0.2562530
   0.0808626   0.0033159   0.2181137  -0.5875378  -2.0205077  -0.1468241
   1.4693381  -0.6678523  -0.3007010  -0.2269648  -0.2533789   0.0435826
   0.4698757  -0.1504701  -0.0903030   0.7724048  -0.1796964  -0.4216454
  -0.1190781   0.3240071  -0.2461694   0.3560653   0.9331112  -1.5028425
   0.1627845   0.4248265   0.1206680  -0.2160969  -0.1625407   0.0600691
   0.2954956  -0.2562311  -0.0254429  -0.0192931  -0.0453394  -0.0150593
  -0.5050286   0.4632998  -0.5802867   0.3587619  -0.1057123   0.2040879
  -0.2123118  -0.6878398  -1.2767850  -0.2179625  -0.0987941   0.2096314
  -0.2389624   0.1469638  -0.0127605   0.4077986   0.0342808   0.2573801
  -1.5257562  -0.6632211  -0.7006537   0.2019832  -0.4247071   0.1738692
  -1.4602131  -0.4119948  -1.3292528  -0.1069941  -0.2760206   0.0196016
  -0.5243006   0.4744974   2.1655915  -1.2221119  -1.2262891  -1.0216660
  -0.0425463  -0.1973695   0.0289998   0.0711160   0.1965575   0.1361581
  -0.1092851   0.1165966   0.0763808   0.0388312  -0.0718666  -0.0033430
   0.2507830  -0.1360765  -0.3697552  -0.5656218  -0.3814494   1.0774189
   0.7669255  -0.1646910   1.4274744   0.0615730  -0.4144230   0.7956605
  -0.2146479   0.2166303   0.0281394   0.1353578  -0.4675314   0.0262599
  -0.3877484   0.0850051   0.1743614  -0.3254035  -0.6684022  -1.0103573
   0.0048637  -0.2020932   0.0022827   0.3247753   1.2719714   0.5657452
  -0.2770968  -0.6051259   0.5127276   0.2118902  -0.0851661   0.0096705
  -0.0061066  -0.2098896   0.0528580   0.1510232   0.4379712  -0.0714426
  -0.4609679  -0.2478133  -0.6274294  -0.0459526   0.1897603  -0.5014338
   1.6760742   0.4044831   0.3398783   0.1844699  -0.0926309   0.0874790
  -0.8978088   0.6544064  -0.3667417  -0.0053834   0.5793890  -0.6655421
   0.2573734  -0.4894685  -0.1702850   1.6698254   0.6323097   0.0689529
  -0.4682054   0.5490411   0.0177810   0.2111437   0.2203435  -0.3777005
  -0.2966548   0.0607440   0.0594551  -0.0801375  -0.0235195  -0.0918194
  -0.4903393  -0.4517693  -0.1863011  -0.3146368  -0.2609746  -0.0206221
  -0.0179189  -0.0093200   0.0408129   0.1235521  -0.1261138   0.3399162
   1.2146647   1.2636902  -0.4851704  -0.0076731  -0.2049936   0.0520875
   0.1937666   0.2813796  -0.2152995  -0.4743150  -0.0575675   0.0993163
  -0.5494210  -1.2073620   0.7308565  -0.5315799   0.2189449  -0.0559440
  -0.8823396   1.2453774   0.7331735   0.1678880  -0.8901602  -0.1410104
   0.2069454  -0.3091433   0.2394529   1.9033906   0.0649804   0.5869730
   0.2016918  -0.2111676  -0.1627955   0.3386557   0.0835344   0.1544944
   0.0175846   0.0897034   0.2553290  -0.9056256  -0.0736208  -0.2312093
   0.2084452   0.2499615   0.3731272   0.4988138   0.4443919  -1.2834195
   0.0923839   0.0976263   0.0259397  -0.2408584   0.1372164   0.2620559
   0.1099327  -0.5627444  -0.6182032  -0.3273747   0.3002616  -0.3333955
  -0.7163541  -0.4894124   1.8941986  -0.0292088   0.4151489  -0.1521791
   0.2735442   0.7063129  -0.8005092  -0.8235559  -0.0909985   0.8499283
  -1.1303500   1.0462484   1.1242052   0.0156430  -0.0825401   0.2378897
  -0.4998820  -0.3879591   0.6456429  -0.8057652   0.2795554  -0.3584217
   0.3535646  -0.1506998   0.1669450  -0.2673390  -0.0477158  -0.3125095
  -0.0846157   0.1863132   0.0212489   0.2231471  -0.1402482   0.0370306
  -1.3078124  -0.0238516   0.0844986  -0.0327931  -0.1364560   0.0428942
  -1.1924078   1.6453729  -0.0310109  -0.2373741  -0.0949838   0.2429422
   1.0906949   0.4525533  -0.8257598  -0.1255222   0.7232362   0.0088827
  -0.0217314   0.0629140  -0.1758600   0.7708837  -0.8179965   0.8504219
  -0.1052580  -1.2236068  -0.2481900  -0.0431219   0.0036943  -0.0620776
   0.1523776   0.1573606  -0.0592867  -0.0897788   0.2092588  -0.2157298
  -0.0644318   0.1277323  -0.0533321   0.0522228  -0.0071874  -0.1307974
   0.0111358   0.1331621   0.1471767   0.4298191  -0.8803752   1.0140042
   0.0015093  -0.3817604  -0.1063094   1.2099735   0.3239715   0.3437758
   0.3262918  -0.2912796  -0.2398814   0.8302680   0.0913392   1.3131665
   0.1477338   0.0203535  -1.7413134   0.0433357  -0.2631050   0.0844210
   0.2674188   0.1252026   0.0185899  -0.0953677  -0.1490191  -0.1530776
  -0.0117632  -0.7442780  -1.4042272  -0.6532720  -0.1035370   1.0541354
  -0.1239077  -0.0641078  -0.0472692   0.1125214   0.2699836  -0.1524405
  -0.2308438   0.2900902   0.1617400   0.9217831  -0.3152905  -0.4567167
  -0.4268083   0.2530959   0.2025622  -0.6352096  -0.2525050  -0.7439080
  -0.4247887   0.1654447   0.2219739   0.9760114   0.0049074  -1.0947460
  -0.2623172   0.6074276  -0.3541091   0.1892061   0.1628330  -0.0084626
   0.1390429  -0.2739679   0.0811048   0.2209013   0.1850077  -0.1035695
   0.1037419  -0.0626280   0.3488268   0.3692429   0.1285295  -0.0326300
  -0.2341819  -0.3350731   0.0908323   0.9786094  -0.2786000   0.5765213
  -0.2240492   0.0741225  -0.0306041   1.0466197   0.8099187  -1.3670748
   0.2784597  -0.1569771   0.3576303   0.5056998  -0.2263614  -0.0255571
   1.4024705   0.7630702  -0.4143376  -0.2947703  -0.2691157  -0.1167058
  -0.9544356  -0.4139836   0.0121790   0.9330315   0.4053572   0.6118162
   0.0053432   0.3637708  -0.0981934   0.1236646   0.1659764   0.1476996
  -0.0387321   0.2343749   0.0980988  -0.5029307   0.3257948  -0.1490488
  -0.1234645   0.1191930  -0.0325907  -0.1644107  -0.1250634  -0.0475770
  -1.4969990   0.1291143  -0.5558162   0.2514242   0.4544149  -0.2435057
  -1.1198860   0.1115967   0.7703634   0.1877940   0.0630972  -0.1148313
  -1.1286479  -0.3578445   0.0076606   2.5203870   0.5334724   2.5845358
  -0.1590975   0.0091960   0.2452597   0.2487499  -0.2127973   0.1392662
  -0.2440845   0.0696421  -0.0789794  -0.0749963  -0.1357802   0.3300076
   0.0589141   0.2460439  -0.0732316   0.4492495   0.1737492   0.2862253
   0.1686890   0.9568083  -0.4124890   0.0764411   0.5077279  -0.0195805
   0.8102550   0.1365711  -0.3593498   0.0273669   0.1443743  -0.0558951
  -0.8680331  -0.8020694  -1.5977571  -0.0556406  -0.1091225  -0.2461398
   0.1378410  -0.0887547  -0.1035494   1.2320984   0.1955804  -0.8636409
   0.0621819  -0.1574616  -0.1263790  -0.0297596  -0.0406912  -0.1646316
   0.0328851   0.0432955  -0.2742789   0.7007319  -0.6940048   0.7064441
  -0.1398534  -0.0201325   0.2037796   0.4767372  -0.7986702   0.6932669
  -0.3050143  -0.2246733   0.0155725   0.7181116   0.9022417   0.0426983
  -1.3239578   0.4362868   1.0206173  -0.7352025  -0.4463503   0.7879979
  -0.3190019  -0.2205862  -0.3537918  -0.3195841  -0.0357607  -0.2216704
  -0.0826011   0.3599427   0.1162604  -0.1856622  -0.8730841  -1.0419305
  -0.1934789   0.1448915   0.3089083   0.0565297   1.8552588   0.2237599
  -0.2844242  -0.3319679  -0.3777440  -0.2232280   1.1140713   0.1922650
  -0.3193745  -0.2284233   0.8522756   0.0451553   0.1358582  -0.2168144
   0.1794896   0.1696508   0.3975540  -0.0699654  -0.3342238  -0.5333353
  -0.2287882  -0.3381243   0.2195332  -1.0453723  -0.2129152   0.1861965
   0.0771194  -0.1624318   0.1582519   0.2881905  -0.3271103   0.0088526
   0.7971405   1.1731745  -0.5403255  -0.0211936  -0.1696107   0.1780994
   0.1958543  -0.0191324  -0.2142240  -0.2352917   0.1227294   0.4166942
   0.7366731  -0.8474553   1.6058799  -0.1551698   0.2185971  -0.1730802
   0.6070895   0.3897336  -0.2401638  -0.1441722   0.0956111   0.1240790
  -0.6428759   0.5588670   0.0757472   0.9254327  -0.4306813  -0.7817090
   0.1571106  -0.1408347  -0.2456932  -0.3436049  -0.3352545   0.2159822
   1.0096917   0.9340288   0.0299655  -0.0635023   0.0490919  -0.1316140
  -1.2755324  -1.6686976   0.3480895  -0.0759027  -0.0763819  -0.3417133
   0.6652566  -0.0992280  -0.2460817  -0.3386990  -0.1555959  -0.3081220
  -0.0966642  -0.2413331  -0.2059142   0.5027118   0.4141646  -0.6137441
  -0.0587907  -0.1348101   0.0589942   0.2058225   1.1015645   1.7153874
   0.3290987   0.1819948   0.0383057  -0.6150981  -0.1634698   1.1536257
  -0.1706222  -0.0583816  -0.0176504   0.2370924   0.1568836   0.2123418
   0.0610217  -0.0303197  -0.4492573   0.0490371   0.3136407  -0.0196838
   0.5240736  -1.0261771   0.3257698  -0.1148262  -0.3309037   0.3947485
   0.4629173  -0.2518490  -1.1056954  -0.0738962   0.0715330   0.0606196
  -0.4889348  -0.3298709   0.2390002  -0.1310838   1.1634041  -1.3386125
   0.0244873   0.2623310  -0.0477352  -1.1753801  -0.2636778   0.0770212
  -1.2290414  -0.6343933   2.0553010  -0.0614983  -0.0259464   0.0173897
  -0.3039449   1.3699496   0.1338767   1.0751634   0.1974464  -0.7503235
   0.0236532   0.0191987  -0.0773022  -0.7621105   0.7018857  -2.0858419
  -1.2565065  -0.4145431   1.1242378  -0.0231857  -0.2992737   0.1542520
   0.6050811  -0.7207122   0.1108510   0.5965195   1.4793454   0.8774569
  -0.1161896   0.6324006   0.1503911   0.2362631  -0.1205425  -0.4746745
  -0.4003394   0.1276889  -0.0922325   0.0167190   0.0820355   0.0718376
   0.0450093   0.4995998  -0.2522867   0.1336938  -0.3448689   0.0147150
   0.1933611  -1.2243008  -0.2213189  -0.2206284  -0.2362312  -0.0217714
  -0.7459205   1.5853944  -0.8804474  -0.9091083  -1.7043643   0.6304103
  -0.1497197  -0.2739976  -0.3859170  -1.9737071   0.7701372  -0.1109657
  -0.2390617   1.0964741  -1.0309531   0.4542662   0.1606564   0.3286695
   0.2628710   0.0741032  -0.2220669  -0.3970528  -0.0159631  -0.2485162
  -0.0801575  -0.0272754   0.0049667  -0.1157043  -0.0478205   0.2690804
  -0.2061838  -0.1763107   0.1357452  -0.3214656   1.3872810  -0.9260973
   0.0016917  -0.0392487   0.3046504  -0.0972261   0.7097748  -0.7937911
  -0.1916332   0.0588721  -0.0454820   0.5499246  -0.2702229   0.3473617
   1.2032344  -0.8152859   0.1507703   1.2552357  -1.9076387   0.7029568
  -0.0576198  -0.0149210  -0.2111902   0.0203404   0.2434125  -0.0862905
  -0.2698553  -0.2725066  -0.1443394  -0.3801236  -0.6730710   0.1004481
  -0.0130761   0.1301751   0.3226186  -0.8612723  -0.0161579   0.0349423
  -0.0712364  -0.1027005   0.2132221   0.5422689   0.9659398  -0.4131570
  -0.3009250   0.6708223   0.0293586   0.0907280  -0.4698127  -0.0674774
  -1.0607660   0.2201508   0.8865550  -0.1256873   0.9605586  -0.4140230
  -0.1269468   0.1763552   0.0471534   0.4218132   0.5013363  -1.1257746
   0.3451947   0.9381904  -1.4356416   0.3967530  -0.0146576  -0.3321490
   0.0091024   0.2910105  -1.2041782  -0.5757515   0.4039832   1.3206100
   0.2057898  -0.2904945  -0.0949620  -0.8786569   0.5484074   0.7778656
   1.3226879  -0.8850717  -0.0138086   0.7375290  -1.1567997   0.6947562
  -0.3526619  -0.0704227   0.1432649  -0.1253010   0.2659792   0.2554077
   0.2356624  -0.2712251   0.3926582   0.8204582   0.2890705   1.0622749
  -0.0817116   0.1475162  -0.3277672   0.9478304  -0.8334716  -0.4605290
   0.1243861  -0.2199195  -0.0478145   0.0580468  -1.0337784   0.5641316
  -1.0757717   0.5240729   0.2266484  -0.2144123  -0.0932828   0.1664016
  -0.8928074   0.7965375   0.0370043  -1.3276221  -1.0480883   0.0744555
  -0.0370776  -0.1712201  -0.0343571  -0.2347705   0.2636550  -0.3789482
   0.7276025  -0.1038288   1.9547025   0.7183058  -0.2534662   1.4488104
   1.1384198  -0.9039811  -0.3860884   0.0860453  -0.3602733  -0.1735490
  -0.1247719   0.0762961  -0.1015485   0.1020395  -0.4002772  -0.1229932
   0.2560897  -0.4771511   0.0682004   0.1403558   0.1811976  -0.1399778
   0.7135820   0.5361285   0.1561436   0.1372767   0.0962143  -0.0641419
  -1.5951403  -0.5793345   0.8472289   0.0665649  -0.1961053  -1.2395699
  -0.1241754   0.1036482   0.0345713   0.7092115   0.4559977  -0.3499381
   0.2311621  -0.1260744  -0.0423079  -0.6148404   1.0288865  -0.0333924
  -0.7485784  -0.2512667   0.8507746  -0.0335502  -0.0851350   0.6287783
   0.0346287   0.0961990  -0.2401000  -0.2855471  -0.7144265   0.4715093
   0.3275391  -0.6643201   0.5709770   1.0107777   1.0364466   0.1706062
   0.0556099   0.2735137  -0.0140461  -0.0245581   0.0920065   0.1198611
  -0.1574473  -0.2367530   0.2427477  -1.5367873   0.9395759  -1.3350196
  -0.1777761  -0.3091814  -0.3770711  -0.3432347   0.0553275   0.0705293
   0.5280529  -0.2077734  -0.0842100  -0.3596763   0.1814927   0.7256463
  -2.0698742   0.2367736  -0.0406135  -0.6140779  -0.2097602  -0.0672002
  -0.3850557   0.5265476  -0.8721942  -0.1767048   0.2170412  -0.0237532
  -1.1092045   0.5414432  -0.8688636  -0.5842481   0.1049937  -0.2890630
   0.2481802   1.2386777  -1.1979181   0.0388787  -0.1573506   0.0291719
  -0.2342228  -1.2251138   0.5442855  -0.4436152  -0.7200843   0.1906338
   1.0938289  -1.1020208  -0.8623729  -0.1925624  -0.3333881   0.1058374
  -0.0961709  -0.1120634   0.0781170  -0.4018449  -0.1112016  -0.3050656
  -0.4169894   0.8354472   0.0385976  -0.2714160  -0.0115816   0.0486219
  -0.8002699  -0.3091850   0.3669064  -0.0818889   0.1199499  -0.0767167
  -0.8849099   0.5101072  -0.4341107  -1.1145785   1.0815468   0.1341779
  -0.3925661   0.1252528   0.0226556   0.0201000   0.2284154  -0.2593385
  -0.1536843  -0.1421109  -0.1978017   0.1130152   0.1536135   0.2484591
  -0.0710653   0.1932868   0.0343189  -0.1609536   0.1908547  -0.0347741
  -0.4244398   0.8151278   0.5300129  -0.1885907   0.0200208  -0.6080192
  -0.1403026  -1.2065939   0.6051171   0.0294464   0.2295955   0.1573163
  -0.9980285   1.1663030   0.8112587   0.4946623   0.1708276  -1.0857854
  -0.4358601   0.2577210  -0.0731855  -0.3577219  -0.1688774  -0.0723288
   0.0342184   0.6490662   0.2155749   1.7792237  -0.1363485   0.0060167
   0.0550326  -0.3276157   0.5987791  -0.4735664   0.3858391   0.2765200
   0.1174222   0.1139159  -0.1026628  -0.3173585  -0.0616940  -0.1298073
  -0.7102556  -0.4196350  -0.2671788  -0.0890228  -0.1234497   0.2569957
  -0.3299215  -0.0391410  -1.2651294  -0.4345965  -0.0330467   0.1414835
  -0.8091841  -1.1601940   0.9230176   0.0275452  -0.1323414  -0.1583054
   0.5949669  -0.6007105   0.6785268  -0.5590749  -1.7581263   0.2883999
  -0.5245625   0.1631977  -0.4382783   0.1893192  -0.0598919   0.1132375
  -0.3442960   1.2229624   1.1783960   0.6629162   1.8213300  -0.6713776
  -0.2026924   0.4938321  -0.1013297  -0.9678652  -0.5379527  -0.3481817
   0.8024853   0.4458359   0.4565516   0.2513579   0.6349067   0.6915593
   0.0199430   0.1970883  -0.0443271   0.1447113  -0.0411037   0.2476243
   0.0717607   0.2127953  -0.1138096   0.7762232  -1.0779781   0.5416039
   0.2929480  -0.2148957  -0.3008636  -0.0741239   0.8891069   1.0604698
  -0.3858803  -0.5759482   0.2147357  -0.0749443  -1.2785919   0.4163236
   0.1866990   0.9157027  -0.1198892  -0.1510007  -0.1743092  -0.0257656
   0.1064596  -0.2435473  -0.1496807   0.2109122  -0.1062731   0.1357765
  -0.3817503  -0.6593371  -0.6546819   0.5631517  -0.1222451  -0.2163241
   0.0955484  -0.0526498  -0.2346785  -0.0537904  -0.4664170  -0.2247722
  -0.2323039  -0.0102208  -0.2554661   0.4721311   0.9162289  -0.4475921
  -0.3190809  -0.5262613  -0.0807783   1.1503661  -0.7253941   1.2651129
   0.0897134   0.1673638   0.1734239   0.0538254   0.0410945  -0.4746582
   0.1466678   0.2877433   0.2602881  -0.1077269  -1.3006846   0.9230464
  -1.1207092  -0.5283983   1.5137198  -0.6810996   0.3438082   0.0173815
  -0.1002288  -0.1865870  -0.2808593   0.1509757   0.5196552   0.4544229
  -0.3840158   0.0941946  -0.5504231  -0.1057958   0.4042566   0.2861991
  -0.0994248   0.1087733  -0.3090762  -0.0406533  -0.1578226   0.0395916
   0.7237476   0.0956492   0.1551404   0.0582831  -0.1623760   0.8734353
  -0.3982619  -0.1370660  -0.1316259   0.8992270  -1.3071332  -0.3108572
   1.2315327  -0.4620747   1.3433831  -0.0152313   0.3549195   0.2870714
   0.1533150  -0.4714468  -0.0092980   0.2412805   0.0688036  -0.3515115
   0.0091118   0.3039909  -0.0335987   0.9239275   0.2288266   0.3891089
  -0.0413805  -0.2095668   0.2192308  -0.1464035  -0.0602465   0.1421150
   0.1455021   0.2781813   0.1425428  -0.1262254   0.2142559  -1.1026956
   0.0288246  -0.0270087  -0.1542367  -0.1370833   1.0716848   0.6266200
   0.1735935   0.2475151   0.3554047  -0.3049657   0.7363388  -1.2324928
  -0.5487502   0.5302099  -0.3265294   0.2128933   0.3334933   0.0170451
   0.7281075   0.5869524  -0.5118870  -0.2118755   0.1049857   0.5094040
   0.0284489  -0.0231766  -0.4035554   0.4355657   0.0066890   0.0686644
  -0.0645558  -0.0789353   0.0880846  -0.1184043  -0.1581982  -0.0068958
  -0.0351398   0.1922756  -0.1698344  -0.0547021   0.3435277   0.2282040
   1.2210919   0.3104805   0.6386000   0.1624708  -0.1749371  -0.1260092
   0.3359426   0.5484087   0.3419243   0.3185316  -0.8476796   1.0359376
   0.4181302   0.3886447  -0.1486334  -0.0846552  -0.1550302  -0.5664591
   0.0467253   0.0469554   0.0391695  -0.0911882  -0.4136434  -0.1121214
  -0.1451323   0.5249061   0.1717844   0.8874171  -0.9574504   1.1390721
  -0.0908108   0.1419546  -0.5668534   0.6395768   0.3192114  -0.6301688
   0.4057612  -0.2443403   0.2703773   1.1547314   0.8366355   0.4358886
  -0.7948759  -0.9964674   0.5968891  -0.9640977  -0.3199721   0.7195304
  -0.1290980  -0.3739012  -0.0896415   0.1770375   0.3787043   0.9453191
  -0.7590860  -0.1386728   0.3882240  -0.3440598   0.4433090  -0.5281151
   0.1294667   0.9053331  -0.0207523  -0.3247299   0.7162348  -0.3448037
  -0.3232063   0.3290734   1.1782977  -0.2200180   0.2137780  -0.4387579
  -0.0702050  -0.0401599   0.0861003   0.0957547  -0.1036816   0.3749911
  -0.1879871   1.1899152   0.0436356  -0.2455320   0.1608787  -0.0591164
   0.5851464  -0.5414650  -0.3972846  -0.0949567   0.0103562  -0.1814554
  -0.0325959  -1.5714449   1.6961628   0.1482594   0.0648285  -0.1437796
   0.5893106   0.0606590  -1.1241802  -1.2860300   1.1616956   1.7016940
  -0.8590697  -0.1453784   0.4955821   0.1748681  -0.3357599  -0.3651055
  -0.0306504  -0.7051901   0.1070846   0.2479782   0.0972746  -0.1440972
  -0.2818355  -0.0132086  -0.0837888  -0.3223502  -0.6711992   0.2800262
   1.9118114   0.2375756   0.0816254  -0.6325154   0.6894775   0.0310963
  -0.1011989  -0.0191334   0.0517787  -0.1659824   0.2189685   0.0602768
  -0.0232424   0.3335022   0.1174450  -0.0040694  -0.1175496  -0.0251866
   0.1131039  -0.2321659   0.9866661  -0.5119307   0.7215770   0.3431779
   0.1465379  -0.0114277  -0.4561948  -0.2450987   0.1662656   0.6503056
   0.6769736   1.5840610   0.1686347   0.3109810  -0.0699560   0.2463321
  -0.6893534  -0.7648464   1.5292973   0.2450767   0.4026161  -0.0224888
   0.5687338   0.0957392  -0.1000286  -1.0225048  -0.0192499  -0.2503172
  -0.0316765  -0.3303129  -0.2038802   0.3887703  -0.0482794   0.1351097
  -0.0606433   0.1235730   0.2985051  -0.2181881   0.1877066  -0.1066406
   0.0450796   0.0257626   0.6866887  -1.3256539   0.4073150   0.5243882
  -0.0956354   0.1147067  -0.1097912   0.1493390   0.4886151  -0.2984194
   0.2474055  -0.6275991  -0.7217882   0.0215683   0.0168023   0.4188382
  -0.2877151  -0.1780593  -0.4737682  -0.2939566   0.1109175  -0.0220804
   0.1818706   0.6182897   0.0685002   0.2427588  -0.1538536   0.3003157
   0.2697498   1.1729979   0.3803789   0.0998957   0.2868799  -0.1733916
  -0.2454046   0.6270195   0.0121557  -0.2452869  -0.2765898  -0.1489615
   0.7705318   0.5399899  -0.9474054   0.6337190   0.2848949   0.2545386
   0.2384411   0.4995458   0.0973909   1.0329393  -0.3341719   0.6938772
  -0.9772527  -0.5530427   0.7090838  -0.0520627   0.0989013  -0.0419891
   0.1067186  -0.2564983   0.3091405  -0.8048474   0.3451320  -0.9627505
  -1.3600901  -0.5738434  -1.1482349   1.4045094   0.5002664  -1.1570693
   0.2358385  -0.1060184   0.0416053  -0.1142566   0.0661147   0.4500606
  -0.1366937   0.0443995  -0.2475921  -0.1844261  -0.6514474   0.9449122
   0.1523720   0.1584798  -0.0530758  -1.3821089   0.1990772   0.1818366
  -0.1645599  -0.0225871  -0.2691727   0.8015819  -0.7774665  -0.7929313
   0.8937000  -0.2475003   0.7822794  -0.3645975  -0.1784140  -0.2718408
   0.1629750  -0.0261032   0.2470533   0.1790736  -1.1208765  -0.0992616
  -0.1065343  -0.3896637   0.0567355   0.5927247  -0.3212006   0.6995311
   0.2711823   0.1136800   0.0108515  -0.1857559  -1.4210690   1.1665846
  -0.1144037   0.3103724  -0.0921201   0.9104677   0.7564692   0.8114355
   0.0359566  -0.0324388  -0.0263092   0.2795733   0.8668860  -0.5364108
  -0.0747577  -0.0821433  -0.2144709   0.0556675  -0.1372241   0.2077502
  -0.0067839  -0.0783256   0.2687499   0.4204160   0.5795484  -1.6013856
  -0.5106247   0.0115042  -0.5285212  -0.0084875   0.1705644  -0.0992583
  -0.0784549  -0.2366530  -0.0493103  -0.8363022  -0.0990100  -0.3153550
  -0.3233873   2.0908985  -0.3350761  -0.0265930   0.1112556   0.1816498
   0.2115829  -1.0560279   0.4812156  -0.5075861   0.0596444   0.2032662
  -0.1065249  -0.0184993   0.0440577  -0.0131227  -0.0112140  -0.1138987
  -0.0862816   0.2561103   0.0770747   0.0082522   0.0366323  -0.0010379
   0.0165085  -0.4327207   0.4136491   0.2278542  -0.2090891   0.0070720
   0.1468053  -0.1930887  -0.2750080  -0.5434484   0.7338290   0.1982861
   0.7824048   0.3937629   0.5920272   0.3265379  -0.1356690   0.0246536
  -1.1825330   0.6223175  -1.1729202   0.0536565   0.0707881  -2.3807071
   0.0742896   0.1793651   0.2024157  -0.4342584   0.2469161   0.6283401
  -0.5051407  -0.7890076  -1.2414071  -0.4266266   0.0905158  -0.2102139
  -1.0385862  -0.1379767   0.1535959   0.0323534  -0.0807480   0.0120440
   0.0571918   0.1617687  -0.3161176   0.1584740   0.1637342  -0.3417061
   0.3597025  -1.0042195   0.2331336  -0.0923482  -0.2572963  -0.3201938
  -0.0832130   0.3053615   0.1609934  -0.0433210   0.0952272   0.0360834
   0.9287493   1.6671467   0.9127476  -0.2748733   1.7359582   0.6124021
   0.6034999   0.1176046   0.1814867  -0.1626982   0.9020907  -0.1262383
  -0.9060774  -0.4524563   0.2255125  -0.1091441   0.0657010  -0.2409260
  -0.1675951   0.1297441   0.3365597   0.2164697   0.1194664   0.3817370
   0.3602941  -0.0168734  -0.2090308  -0.1124684   0.0720957   0.2345708
  -0.3247990   0.0262539   0.1817189  -0.2843098   0.6074935  -1.4261082
   0.1819882  -0.0656015   0.4024537   0.4211864   0.8755345   0.3360461
   0.0111358   0.2056415   0.0255485   0.1084403  -0.2256728  -0.0614930
  -0.3707385  -0.4361446   0.3149195  -0.1137758  -0.1436925  -0.1258316
   0.4802985  -0.7253372  -0.2220384  -0.9389056  -0.1833233   0.3349085
   0.1413124   0.2263744  -0.3779154   0.8852663  -0.0224190  -1.8956345
   0.2767400  -0.1677338  -0.7407639   0.0195196  -0.1275160  -0.0816974
  -0.1353096  -1.3940339   0.6389719  -0.0405214   0.1801211  -0.0455533
   0.0961579   0.0731387  -0.2533780  -0.1473691  -0.7360815   1.2066310
   1.1549178   0.6907285   0.3940669  -0.0182337   0.2682844  -0.0056552
   0.4659137  -0.5975273  -0.0576689   0.5488474  -0.6384698  -0.5914055
   0.2391930   0.4875636   0.0775424  -0.2678480  -0.2464150   0.4034369
   0.3362379   0.1234592  -0.2176531  -1.1389413   0.0292101  -0.6375298
   0.1107833   0.2994212   0.0329670   0.1929616  -0.3894666  -0.6295383
  -0.0726146  -0.0991728   0.1178652   0.0249375  -0.6182314  -0.1349859
   1.6634076   0.3949576  -0.0732748  -0.0194034   0.0371681  -0.1694631
   0.3969666  -0.5690140  -0.2704680  -0.7286116  -0.8806731   1.2800758
   0.0818338  -0.1989702   0.0344551   0.0379319  -0.0217882  -0.4581905
  -0.2323547   0.2625649  -0.0195116   0.0231052  -0.1386475   0.3427753
   0.0228760  -0.0552350  -0.3764142   0.1257529  -0.2177644   0.0673348
   0.0360931   0.0510342  -0.4984836   0.3762956   0.1510179   0.1460536
  -0.8362718   0.8347914   0.9538441  -0.0770238   0.0581856   0.3204514
   0.0328418  -0.5539896   0.2693562  -1.0054360   0.5771848   0.5219164
   0.0493796   0.2021255   0.4120124  -1.0663353   0.4634416   0.0308289
  -0.4050788   1.2077955  -1.1558787   0.0052895  -0.0804292   0.2685758
   0.4316565  -0.2362072   0.4900057   0.2618646   0.8940299   0.4920587
   0.3840991  -0.3745525  -0.1682084   0.2662055  -0.1157701  -0.0526825
   0.8201218  -0.1242252   0.5965161  -0.1078797  -0.1594785   0.6679332
  -0.6875339  -0.1374838   0.0624533  -0.3265567  -0.9223293   1.4310533
  -1.2416381  -0.6045343   0.2409173  -0.0673848   0.4586799  -0.5587301
  -0.0165510   0.2702779  -0.0920284  -0.1203229   0.2078549   0.1468937
  -0.6511308   0.8151125  -0.1946294   0.1496654   0.1523979   0.1839082
   0.1933937   1.5434674   0.3990510  -0.5154038   0.1735957   0.1032972
  -0.3369381   0.1705241  -0.4911260   0.0379877   0.0516330   0.3678546
  -2.0532313   0.5282599   0.6431435   0.2023878   0.3365321   1.2611477
   0.4853122  -0.4278206  -0.1954826  -0.2856924   0.1834949   0.2163698
  -0.3084658  -0.2266569  -0.9458757   0.1249897  -1.0366105  -0.3107367
   0.5107077  -0.0358131   0.2589057   0.1749716   0.0174399  -0.1523752
  -0.0737383  -0.1020283  -0.0267097   0.1375348   0.0014121   0.0555080
   0.0841407   0.7334459   1.2797814  -0.1599326   0.0292766   0.1992221
   0.8793997   0.4361964  -1.4934548   0.4077196  -0.1552456   0.0397734
  -0.2480370   0.6107024   0.4791830  -0.4023776   0.1083198  -1.1837746
  -0.0310641   0.0604987   0.2381010   0.1469421   0.2657858  -0.1277634
   0.0252524  -0.0662485  -0.0789929  -0.0445892   0.2002902   0.0783868
   0.1082220  -0.2014020   0.0809812   0.1723215  -0.4577160   0.3709731
  -1.1981303   1.3216617  -1.4207643  -0.1040374  -0.0974790  -0.1624468
  -0.0855905  -0.4006181   0.3706370  -0.1559433   0.0716291  -0.0437048
  -0.6508942   0.9643557  -0.2152632   1.4800538   0.0562241   0.4611066
   0.3108173  -0.1316839  -1.0655696  -0.0960513  -0.0950066  -0.1310762
  -0.3017242   0.0036109   0.2764218   0.2658246  -0.3454635   0.1834804
  -0.2333526  -1.0481713  -0.2722240   0.2014791  -0.2590823  -0.1324415
  -0.3880539  -0.2775719   0.6125961  -0.2876235  -0.2765931  -0.0342690
  -0.1536198  -0.9490209   3.3040500   0.2792330   0.1119917   0.3095589
  -0.6119001  -0.4879569  -0.5929739  -0.0124935   0.4293633  -0.4245616
  -0.4650606  -0.0990829  -0.6993032  -0.1320066   0.5249060   0.2078682
   0.9049634   1.6127286   0.0679589  -1.0117951   0.3655889   0.9776965
   0.5381080  -0.1600588   0.0402690  -0.8312963  -0.7001293  -0.5398738
   0.5680280  -0.0404902  -1.3629059   0.1421731   0.8539718  -0.1555685
  -0.3306734   0.1962710  -0.0035753   0.3895471  -0.4523124   0.0894022
  -0.4014382   0.3139159  -0.1677753  -0.5933684  -1.0282390   0.7231423
   0.6499692  -0.4644535  -0.4708528   0.0992207   1.2280008  -0.4934144
  -0.1391826  -0.1226200  -0.0263979  -0.3624260  -0.3518295  -1.7288374
   0.6782008   0.9844413   1.5649875   0.5850050   0.1612843  -0.0739680
   0.2531185  -0.1955950  -0.1069189   0.0163590   0.3612114   0.2535016
  -0.1426193  -0.1172178   0.3111966   0.0699839   0.2266318  -0.0389223
  -0.0772842  -0.1008841  -0.0631901  -0.5642012  -0.4711786   0.9948391
   0.4255081  -0.0328258   0.4129492   1.1218961   0.7540561  -0.1103343
  -1.2867060   0.3161921  -0.7839613  -0.2882095   0.4506028   0.3952137
  -0.2129386   0.1443636  -0.0983063   0.0579430   0.1659732  -0.0562901
  -1.3472111  -1.3262536   0.0451931   0.1774053   0.2800571   0.0140744
   1.1529217   0.5978982  -1.9112401   0.0277691   0.0708679   0.3295349
   0.3235671  -2.4128968  -0.0978723  -0.1652887   0.0996713  -0.2587153
   0.2910546   0.4557819  -0.1381051  -0.2718498   0.2166049  -1.7222880
  -0.8913878   0.2284704  -0.6667362  -0.3978683   0.0292012   0.0797324
  -0.2636851   0.2295169  -0.2746830  -0.4157552   0.0636078   0.4382736
  -0.2915104   0.2417248   0.0908345   0.1144241   0.0101674   0.0235324
   0.1776401   0.0561674   0.1330770  -0.0437192  -0.0557149   0.5053072
   0.3805619  -0.0086297   0.0700029  -0.7423085  -0.3400955  -1.0751136
  -0.2217784  -0.1778444   0.0536292  -0.5050792  -0.9244582   0.5906370
  -1.3787816   0.7041503   1.0865005  -0.2060068  -0.2917205  -0.1875152
   0.1376503   0.1587431  -0.2486762  -0.4115868   1.5205225  -0.4801139
   0.2274366  -0.1027320  -0.0742407  -0.5249276  -0.5126245  -0.2518752
  -0.0093928   0.0885136  -0.0942054   0.0790108   0.3646884   0.0796392
  -0.7295974  -0.6819409  -0.5381522  -0.0023959   0.0600533  -0.2527109
  -0.2833039  -1.1349742   0.7140072  -0.2674432   0.0359381  -0.1038829
   0.1522228  -1.3156169  -0.2285742  -0.1555695  -0.0923251  -0.1325853
  -0.0335193  -0.1412275   0.1448336   0.1044312   0.0136859   0.2091158
   0.5137649   1.5173570  -0.6588154   0.3396908   0.1175391   0.2334223
   0.0621671  -0.5221694  -1.8459374   0.1043605  -0.1347219  -0.1662619
  -0.1370039   1.7056211  -0.3644110   0.7364887  -0.0119854   0.4423600
   0.0057781  -0.2543968   0.0974839  -0.3774450   0.5457284  -0.4169255
  -0.4736692   0.6095385  -0.9736121   0.4323008   0.1109374  -0.4622018
   0.6267673   0.3257855  -0.4467663  -1.2024413  -0.9149183  -0.2107788
  -0.2619911   0.1068132   0.2017131  -0.0159246  -0.3911846   0.3444609
  -0.0192703  -0.0180366  -0.0514011  -0.1216255  -0.1546590   0.1095997
  -0.6934490  -0.8854592   0.6561385   0.7369615   0.3587306  -1.0149590
   0.1924571   0.0210284  -0.2984115   0.6966096   0.0046711  -0.8778596
   0.1610965  -0.3845699   0.1548446  -0.1332276   0.2790749   0.0578573
   0.0641648   0.0485557   0.0251752  -0.2694071   0.1532691  -0.2015599
  -0.3046786   0.5605647  -0.7212229  -0.1250443  -0.1375092   0.0429947
  -0.6136601  -0.2024898  -0.0705141   0.3684389   0.1564612  -0.1755216
  -0.1292754  -1.7257809   0.3980266  -0.0690595   0.0098217  -0.8956725
  -0.3990202  -0.5499401   0.2354881   0.8848912   0.4858075   0.0619050
  -0.2116212  -0.0327939   0.0655022   1.0227272  -0.1589219  -0.4753287
   1.9615539  -0.2147187  -0.9536234  -1.0310806   1.1548007  -0.9220155
   0.4522604   0.4268774  -0.1771819   1.9673201   0.3644258   1.0586044
   0.9225295   0.2671261   0.0014597  -0.7106714   0.4304599   0.2285553
  -0.1698976   0.4278201  -0.0793568  -0.5974376   0.0531457  -0.1574908
   0.0135190  -0.1766059  -0.1615225   0.0612836   1.5906206  -0.2568303
   0.2353211  -0.0677612   0.0297157   0.3262824  -1.1582254  -1.0249170
   0.4326521   0.0087538  -0.2256176   1.0226064   0.2518604   0.1937912
  -0.9319376  -1.2309130  -1.5542755   0.0435912  -0.2789156  -0.1345048
  -0.1110014   0.0123167   0.3401975  -0.4055274  -0.4425221   0.5839837
   0.0105919  -0.1098187  -0.2483579   0.2953881   0.0998740   0.5488980
  -0.3604270   1.6944071   0.6298566  -0.0379635   0.1992335  -0.0080883
   0.5375285  -0.7411765   0.4679365  -0.0040861   0.2265874  -0.2520291
  -0.0922140  -0.0667416   0.2484265  -0.7366011   1.6763954   0.2320157
  -0.5203896  -0.3454432   0.2448384   0.1052016   0.2549701   0.0878290
   0.4277225  -0.0716650  -0.5939970  -0.4392483  -1.5807764   1.2810717
   0.3191990  -0.1490479   0.2914507  -0.0920512   0.0579505  -0.2591148
  -0.0171787  -0.1527999   0.1460588   0.5870046  -0.2824203  -0.9955610
   0.0349110  -0.0767859  -0.1614550   0.5287446  -0.4218810   0.2748018
   0.9484852  -0.7755610  -0.3262335   0.0257605   0.0447637   0.0127610
  -0.1967506  -0.3889562   0.4215548  -0.1182225  -0.4202359  -0.0848441
  -1.2496715  -0.2934931  -0.0454334   0.0387080  -0.1603584   0.3301525
   0.0013389   0.4266536  -1.0735376   0.2506008  -0.0578302   0.0286217
   0.5546637   0.1654212  -0.5079077  -0.3779616   0.6001622  -1.7083583
   0.1445839   0.1440106   0.2523128  -0.1442547   0.7718785   0.0633556
  -0.1902041  -0.3101057  -0.0268766  -0.0176579   0.1076518   0.1202480
   0.0398211   0.2136105  -0.0417685  -0.1362629   0.0508662   0.3386389
   0.2268085   0.1630245  -0.0130595   0.0224884  -0.1646084  -0.1540085
   0.0929313  -0.0335745   0.1080425   0.4663361   0.0380806  -2.0380938
   0.2953719  -0.0598927  -0.2531157   0.2153224   0.6433262  -0.1707398
  -0.2286010  -0.0977907  -0.0842485  -0.0213810  -0.4310390  -0.2274820
   0.1311797  -0.4751647  -1.0714534  -0.5304180   0.2631146  -1.2228995
  -0.2616339   0.1990955   0.1217352  -0.3499607  -0.0624032   0.5002361
   0.2572415  -0.2178363  -0.1753978   0.5915548  -0.2103234  -0.4432069
  -0.0743386  -0.1099507  -0.0576209  -0.4181567   1.5729689   0.0758485
  -0.0233634  -0.1476211   0.2882119   0.0539540   0.2103901   0.2897252
   1.6006856   0.6371407   0.3011677   0.0424823  -0.0816007  -0.1524619
  -0.1030053  -1.1655767  -1.1585906  -0.2148317   1.3005860  -0.9446450
  -0.0981583   0.0191547  -0.1443988   0.8892478   0.1282142  -0.6050822
   0.9425863  -0.5875970   1.4694187  -0.1673750  -0.1265044  -0.0275570
  -0.1450794   0.5715480  -1.9095640   0.1257585  -0.1089998   0.2088937
  -0.1850487   0.1811980  -0.2457927  -0.3666905   0.6984287   0.7601137
  -1.2453438  -0.3289153  -0.6581403   0.0638639   0.0004515  -0.3349830
  -0.4409082   1.1936120  -1.3885899   0.8184412  -1.7376004  -0.0558498
   0.0950148   0.1586074  -0.0031554  -0.0868392  -0.2288432   0.0468562
   0.1771089   0.1553360  -0.3426912   0.9774686  -0.3975643  -0.2366746
   0.4547778  -0.0183243  -0.2068119   1.4175666  -0.3723379   0.0947437
  -0.2522786  -0.1816447   0.0359903   0.6990588   0.3976682  -0.3036863
  -0.3989930  -0.1851241  -0.1823629   0.2459818  -0.1822292   1.0364722
   1.5597962  -0.7422021  -0.2625535  -0.6131193  -0.7293457   1.2010166
   0.1036447  -0.0073126  -0.4788121  -0.3892274   1.1574987  -1.0302655
   0.3407943  -0.4115946  -0.0924657  -0.1761641  -0.1812324  -0.1643321
  -0.0753348  -0.0381724   0.1108645  -0.3373796   0.6962802  -0.4228178
  -0.0938481   0.1048490  -0.1701082  -0.1463918   0.3395324   0.1234968
   0.0983238  -0.0239925   0.1412951   1.3740052   1.1170867   0.3284325
  -0.2107882   0.1606082   0.1298544   0.4849262   1.3012209   0.1479995
  -0.1586022  -0.3115725   0.9036787   0.2556294   0.8244803   1.1822206
  -0.0496763  -0.3636987  -0.2974758  -1.6353475  -0.0400573  -0.1985146
   0.1320582   0.1061612   0.0867650  -0.2225639   0.2132454  -0.0118719
   0.1462797  -0.0355744  -0.1823108   1.4200348  -0.4483775  -1.1581936
   0.8635270  -0.3908192  -0.1573306   0.3804133   2.6823058  -0.0073491
  -0.1103824   0.4451091  -0.1349397   0.5919139   0.6572758  -0.6452728
   0.9240050  -0.1047031   0.3481276  -0.0029802   0.1785138  -0.1888255
  -0.1477897   0.2445325   0.1168674   1.5755617   0.6341457   0.5795470
   0.0132915  -0.2075004  -0.2748227   0.6704285  -0.7154738  -0.2443799
  -0.2016249  -0.2428343   0.1253451  -2.3739048   0.7725798  -0.1411698
  -0.2296731   0.3089755  -0.4097169  -1.3430663   1.3746501  -1.1974586
  -0.0125301  -0.3694741   0.1709027   0.7959077  -0.7161397   0.2336769
   0.0172838  -0.3351615  -0.3200929  -0.1315539  -0.2558027  -0.2003894
  -0.2209653  -0.0373446  -0.3025173  -0.2815441  -1.4155435  -1.2455941
  -0.2264111  -0.0992852  -0.4697635   0.8374247   0.9793434   1.3551749
  -0.1186189  -0.0854921   0.1016347   0.7330785   0.5396767  -0.1938039
   0.1356102  -0.1311198  -0.0781435  -0.5193305  -1.0753485   0.6198828
   0.7463734   0.7572512  -0.2125541  -0.2154691  -0.5134725   0.7798528
   0.1657905   0.2637464  -0.0606914   0.6260931   0.5902462   0.2332350
   0.1808109   0.6994842   0.3457935   0.1966613   0.7702184   0.3214982
  -0.3682751   0.3643980   0.0825085   0.1019807   0.2473022  -0.3144961
   0.1414433  -0.1109661   0.0554783  -1.1589465   0.5237639  -0.5057606
  -0.2100850   0.3116119  -0.2112886   0.6764532  -0.2824314   1.3905774
   0.4212234  -0.1511211   0.1635614   0.1442504   0.4812871   0.3242506
  -0.7570678  -0.8816586  -0.1209467  -0.1727845  -0.1596970  -0.1778742
   0.0397703  -0.3162180   0.1500552   0.2158094   0.2590549   0.2269710
  -0.2169146   0.1243922   0.0521858   0.0929396  -0.0069890  -0.2784910
  -0.0387876   0.0971705   0.5002009  -0.7974292   0.2849307   0.1604535
   0.0158724   0.1498986  -0.1257588  -0.8686005   0.4595449   1.3465905
  -0.2059493   0.0294812   0.0442587   0.2924469  -0.4965601   0.3214516
  -1.1695053   1.6264323  -0.8144959   0.0107609   0.2626910  -0.4764940
   0.6367094  -0.7993255   1.2023204   0.2455039  -0.0309091   0.2713687
   0.9196768   0.0523354  -0.1213207   0.0407315  -0.1405969  -1.0167862
  -0.1417208   0.1405634   0.5301543  -0.1170195  -0.3379779  -0.1352982
   0.2456123   1.1194454  -1.2855691   0.0852579   1.9692803  -0.5159735
   0.6246925   1.0578149  -1.5390388   0.1100894  -0.0161276   0.0242387
  -0.2078865  -0.2184988   0.2472654  -0.0168204  -0.0077625   0.4854768
  -1.3544766  -0.2850473  -0.7555851   0.0973161  -0.1168716   0.0394767
   0.5808357   0.9631530   0.0479533  -0.0007677   0.0699811  -0.1488728
   0.1440907   0.5239508   0.4186600  -0.0696088   0.3390765   0.4834634
  -0.0979746  -0.2262686   0.2446942   0.3694441  -0.3068943   0.2839831
  -0.4183589   0.8437877  -1.0260892  -0.0557222   0.1255167  -0.1507810
  -0.1211655  -0.2253141  -0.1765965  -0.7824271  -0.0677444  -0.5759338
  -0.2423195   1.0824088   0.8003162  -0.2307401  -0.2856857  -0.7121840
  -0.1662526   0.0627506   0.5634597   0.0336009  -0.0260332   0.1480902
  -0.1311624  -0.0069455  -0.1502088   1.2670246  -1.0050294  -0.3697963
  -0.0085079  -0.0286318  -0.1891912  -0.6392849   0.9638561  -0.0532035
   0.2598412  -0.0547421  -0.0208875  -0.7003897  -0.5694782   1.3139418
   1.3327065   0.9999970   0.8482312  -0.3687688   0.1561673  -0.0771264
   0.6053559   0.3822144  -0.0766337   0.9325327   0.2727879  -0.7636581
  -0.0981244  -0.1438142   0.2074230   0.7530037   0.2524049   1.0975165
  -0.5934345  -0.3873748   0.8213532   0.0284363  -0.1134461  -0.0286618
   0.8739536  -0.1013301   0.5462890  -0.1154875  -0.2981347  -0.0703143
  -0.0547985   0.2908468   0.2049958  -0.6155150   0.4000687  -0.8997037
   1.4453793   0.3717869   1.4199149  -0.1619292  -0.1535016  -0.3472626
  -0.8170940  -0.0533241   0.0145357   2.1728006  -0.4372983  -0.9390575
   0.0146666  -0.3201096   0.2573255  -0.3291731   0.0748207   0.4283799
   0.0878692   0.2592953   0.0324853  -0.2198621   0.2656492   0.7699267
   0.0649962   0.4808549  -0.1321515   0.6169939   0.7102503  -0.6932912
  -0.0756057   0.0072511  -0.1002645  -0.2872225  -0.5506273   0.5835537
  -1.2322521   1.8116971   1.2648081   0.1875818   0.6868760  -0.1793239
   1.4393456   1.2208336   1.1435241  -1.5317730   0.8010088   0.8365756
  -0.4538060   0.1675284  -0.1291758  -0.2244778  -0.2397369   0.2802197
  -0.8995968   0.0317554   0.3028042   0.2465265   0.0363173   0.0693513
   0.6106277  -0.4567941   1.0269729  -0.0206782   0.1069605  -0.0046132
   0.1961739  -0.0718118  -0.0234530   0.0192675   0.6509605   0.7320457
   0.6251935  -0.6414756  -0.5335120  -0.1869553  -0.1463098   0.4240018
  -1.0913690  -0.0787212  -0.2926364   0.9244744   0.5508275   1.1731865
   0.0984120  -0.1659279  -0.0150337  -0.0743305   0.1976501   0.1581919
   0.1149947   0.2110180   0.0490244  -0.3016972  -0.1137869  -1.0950713
   0.5233933   0.2269086  -0.0011329  -0.3165216  -0.2299741   1.3146998
   0.5966488   0.4931201  -0.0730553   0.2032021   0.0930859  -0.0037751
  -0.2858847  -0.1169676   0.2961779   0.1161126   0.0768052  -0.0204259
   0.6301268   0.3180496  -1.0404687   0.0295845   0.1117889  -0.7092530
  -1.4085776   0.0661268   0.4291478  -0.1171039   0.1885429   0.0176460
  -0.3836939   0.0965125  -0.7308767   0.1676348   0.0144654   0.3454900
  -0.0597740  -0.1628199  -0.0656171   0.3287761   0.0845632   0.1119145
   0.2114117   0.0019893  -0.1617082  -0.2195177   0.0117911   0.0670854
   0.0088597  -0.0698385   0.1187133  -0.0636043  -0.0823642  -0.0033543
   0.6175631  -0.4422768   0.0194269  -0.1800725  -0.5721667  -0.3021972
   0.5373273   0.8725509   0.9318500   0.0809304  -0.2650995   0.2634807
   1.2517876  -0.1880103   1.2794637   0.4872580  -0.8283042   0.7795398
  -0.0191620   0.1361255  -0.3552189  -0.8648515   0.4196475  -0.4976714
  -0.1901598  -0.3081496  -0.0152375  -0.4409854   0.5141821   0.8636599
  -0.5550690   1.1156097   0.2479866   0.2980379  -0.8288508   0.1225925
   0.1756690  -0.0985009   0.0759767  -0.3773489   0.7259693   0.0696587
  -0.2164240   0.8820483  -0.4353850  -1.5407739  -0.1592242   1.0216455
  -0.1857987   0.1829475  -0.1144638   0.1712050  -0.1667357  -0.1202182
  -0.2489451  -0.1131839  -0.2527309  -0.1353943  -0.5718583  -0.2187166
  -0.1356334   0.7578698  -0.4909562   1.0746551   0.1568117  -0.7876427
  -0.0751141  -0.0093254   0.5431055  -0.4738944  -0.8689113  -1.4294120
  -1.6386392  -1.3544946   0.1703345   0.4215356   0.3402327  -0.2189155
  -0.0208621   0.6637122  -0.3025749   0.0495389   0.5631175  -0.0275614
   0.0876285  -0.4984160   0.0405045  -0.9744032   0.0161914  -0.9760828
   0.4439664  -0.5017385  -0.2253993  -0.3318519  -0.0932570   0.0147622
  -0.2425781   0.3392410  -0.0302251   0.0834458  -0.3627573   0.0119301
   0.4497349   0.1444593  -0.3438611  -1.1004779  -0.0084064  -0.6533745
   0.2404471  -0.3479947   0.1797238  -0.0796703  -0.7648805   0.2483904
  -0.0355292   0.2026018  -0.3045849   0.1324894  -0.3852250  -0.1381318
  -1.1510795  -0.2734855   0.0000869  -0.9483272   0.6585163  -0.8175685
  -0.4161405  -0.0699605  -0.3436499   0.5317818  -0.2132230   0.5590446
   0.9745377   0.6496791   1.0149133  -0.1120551   0.4823260  -0.7940707
   0.2455485  -0.0742454  -0.0433996   0.0187341   0.1481632   0.2640315
  -0.0047263   0.0819937   0.1213284   0.1163131  -0.1236658   0.3482450
   0.0628129  -0.0606039   0.0503473   1.3647833  -0.4793615  -0.6108992
   0.3310652   0.2328023   0.1695272   1.2059048  -0.0754428   1.3380105
   1.4162831  -0.8654864   1.0028683   0.3126904  -0.0016552   0.2754901
   0.3393120  -0.5305440  -0.0816579  -2.1891104   1.2186930  -0.2524880
  -0.0959142  -0.2195510   0.0615222  -2.0002710   1.4271765  -1.0792319
  -0.0594496   0.3686987  -0.0616061   0.1309210  -0.3159220  -0.0929687
  -0.4431337   1.0099714  -0.4167172  -0.0910078   0.1097318   0.0460280
  -0.5375327   0.2956078  -0.5675303  -0.2916119   0.0663735   0.1611903
   0.5217550   0.1902231   0.4192301  -0.1680172   0.2868337   0.1354181
   1.0414755  -0.1294765   0.0467102  -0.3583518   0.4121032   0.0850308
  -0.1725853   0.0531565  -0.0945599   0.0641200  -0.0513142   0.1337082
  -0.0917092  -0.0409602   0.1170217  -0.3460419  -1.7211149  -0.6088490
   0.1097671  -0.1480135  -0.3235352   0.8145618   0.7373165  -0.2776055
  -0.3970464   0.0763511  -0.0654386  -0.3517111   0.5564919   1.7098123
  -0.0021759   0.4598446  -0.4956589   0.0111851   0.3468980  -0.0078684
  -0.0856145   0.3083809  -0.3083876   0.2272109  -0.2687645  -0.2241822
  -0.2993740   0.4830334   0.7998075   0.3149998  -0.2352666  -0.5184094
   0.0536478  -0.1066232  -0.2054283   0.0585457   0.1230012  -0.0425386
   0.9875255  -0.4476664  -0.0371438   0.0983262  -1.1081706   0.8017811
   0.8212542   0.4936028   0.3237011  -0.0107488  -0.1506980  -0.1261373
  -0.0967186   0.0341909  -0.0283464  -0.0576524  -0.1780570  -0.1882435
   1.2620327  -1.8927390   0.4702351  -0.1467719   0.0399301  -0.1545626
  -0.0142192   0.0683269   0.5553762   0.2387221   0.2755793   0.1753077
  -0.4140669   0.6267126   1.4276858   0.9904885   0.5505063   1.0785639
  -0.5775842   0.5140619   0.7979555  -0.1552589  -0.0811004   0.2224421
   0.0884131  -0.2693835  -0.1931113  -0.3480129   0.1773399  -0.4574067
  -0.6711138  -0.8720461   0.8952642   0.0151337  -0.2557655  -0.3997068
  -0.6487778  -0.5699197   0.8600819  -0.0878909  -0.1366615   0.1268326
  -0.0641171   1.1712524   0.1705924   1.0387424   0.0583038  -1.1459787
  -0.0685692   0.3958728   0.1986772  -0.1845565  -0.1237986  -0.0370974
  -1.3760358  -0.7289650   0.4236756  -0.0471191  -0.1034836   0.2055446
   0.3516684  -0.1511911  -0.7840649  -0.2304280  -0.1771085   0.3313725
  -0.0569149  -0.0802610  -0.2089956  -0.4723745  -1.3135870  -0.5559177
  -0.4053491   0.1386060   0.2027940  -1.0923099  -1.1950438   0.1619382
   0.2119472  -0.2101128   0.0937936   0.2333976  -0.5958357  -0.6503849
   0.1931874   0.3589904  -0.1124841  -0.0731639  -0.0826302   0.4395221
   0.1038596  -0.1342828   0.2168798   0.4876385   0.1971291  -0.1293562
  -0.1005004   0.5795960  -0.0788174  -1.1689280  -0.6270824  -0.7209523
   0.0315746  -0.0274304   0.0332076  -0.1198511  -0.3960926  -0.0880171
  -0.4606227  -0.0383749  -0.1848578  -0.1623201   0.1295407   0.2387164
   0.5595181  -0.5053244   0.1184732  -0.9488085  -0.7083055   0.3032528
   0.1896498   0.0411329  -0.1675733  -0.8891413   0.2289692  -0.1368308
  -0.2646497  -0.0680135   0.7014663   0.3331094  -0.0060135  -0.0449417
   0.5189740   0.8877131   0.2234956  -0.2287297  -0.0081137  -0.1421329
   0.1483251   0.3256676   0.0335749  -1.1399463   0.3359410   0.3688992
   0.4171715   0.3986653   0.1584275   0.3587003   0.3937163  -0.1122505
  -0.1998353   1.5101734   0.1367184  -0.7161783   1.5010547   0.3028971
  -0.2149211   0.2414256  -0.0936104   0.0492291  -0.0004749   0.1359964
   0.1037256  -0.0522185  -0.1608609   0.5273780  -0.8529852   0.0919283
  -0.1058743  -0.0868231  -0.0320888  -0.5325369   1.0932933   0.6810318
  -0.0195436  -0.2720433   0.3614380  -0.7477478  -0.9843850   0.4529363
   0.2778999   0.3076445   0.3493329   0.8195072  -0.7706778   0.1167717
  -0.6438353   0.5048326   0.3556071   0.2917914  -0.9551325  -0.2851376
   0.1770098   0.0577923   0.1724272  -0.3727558  -0.3891444   0.2070537
   0.0523593   0.2795018   0.5546152   0.8510509  -0.6159223   0.3769951
   0.1656499   0.2541353   0.1900693   0.1913028  -0.0880778  -0.1591157
   0.0680622   0.2474144   0.1269997   1.8771240   1.2535625  -0.4895880
  -0.1381350   0.0978774   0.4870386   0.4680988   0.2483688   0.4826510
  -0.1974484  -0.1003250   0.1620771  -0.2448143  -0.1492973  -0.5819189
   0.3562438   0.6455793   0.2683146  -0.9805969   0.6105686   0.4286429
  -0.0307721  -0.0482875   0.2296422  -0.0140721  -0.0770910  -0.1097859
  -0.2176145  -0.0747095  -0.3276030  -0.4832853  -1.2378736  -0.0884281
   0.2892199  -0.2795592  -0.2008194   0.2652218  -0.2992464   0.6121596
   0.2416014  -0.1441598   0.3825136   0.5288469   0.5481753   0.8624078
   0.8086887  -0.1414227   0.6792899  -0.0226818   0.6380722   0.5967949
  -0.0434056  -0.0273622  -0.1983895  -0.0343587   0.3392303  -0.2578326
   0.0554205  -0.3375457  -0.0063971   0.0253587  -0.4990630   1.5492605
   0.0777736  -0.2585982   0.1081332  -0.6031957   0.2382227   0.1153168
  -0.1957725  -0.7622661  -0.2175698  -0.4245539   0.4666952  -1.5928362
  -0.2874691  -0.3591475  -0.8606722  -0.1644010   0.1148656   0.2095365
   0.5445865   0.2865831  -1.0017693   0.4312395   1.3062992   0.4417090
  -0.0895415   0.1004337   0.0873458  -0.1341433  -0.0757870  -0.0541151
   0.1288298   0.1824837   0.0286652   0.3670033  -0.1167178   0.1775895
  -0.2293183   0.0495672   0.0819141  -0.2310908   0.1888888  -0.0784713
  -0.6468290   0.6377560  -0.1496136  -0.2318437   0.0120873  -0.2732758
   1.5920734   0.1518105   0.4503852   0.0036853   0.7883565   0.6475769
   0.0563390   0.0710884   0.1339652  -0.1253625   0.3414966   0.2274712
   0.3406849   0.4358280  -0.2073588   0.7845241  -0.4708145   0.4519631
   0.1313068  -0.2584304   0.1597428  -0.9226368  -0.5959709   0.8336606
  -0.2514413   0.0071891   0.2462432   0.1165102  -0.0793724   0.9401658
   0.0704797  -0.1027190  -0.0816864   0.0498395   0.4612463   0.2889672
   0.1350285   0.1218469  -0.1039134   0.7616504  -0.3271996  -0.5073496
  -0.1033721  -0.0641574  -0.0088108   0.8369702   0.4871506  -1.4364076
  -2.1870776  -0.6584587   1.7096115   0.0554837   0.2594668   0.4722501
   0.4806113   0.6633303   0.9529320   0.4361608   0.0559917   0.8017793
  -0.1322015   0.5589906  -0.2856320   0.0887831  -0.0191426   0.0677569
   0.2666641   0.0221288  -0.3342343  -0.0542009  -0.3027425   0.1769339
   0.6742088  -0.3950928   2.0215813  -0.0991471  -0.1646836   0.4014589
   0.1488594  -0.0365509  -0.0320343  -0.1452287  -0.0068412  -0.2806654
   1.1210438   1.0229778   0.0081204  -0.3205690   0.2554501   2.1871735
   0.1194128  -0.2875493   0.2023060  -0.3624822   0.2293075  -0.0875867
  -0.0649413  -0.2154489   0.5025643   0.1972566  -0.0895695  -1.7433996
  -0.4621244  -0.1810082   0.0176147  -0.0999699  -0.2656548   0.0391999
   0.0125992  -0.2389700  -0.0066903   0.0013631  -0.3861415  -0.1139205
   0.3603926   0.5522250  -0.8161292  -0.1478527   0.1075800  -0.0260952
  -0.4097621   0.0791356   0.3944101  -0.3239273   0.6113676   0.2221232
  -0.6445143   0.0737000  -0.7946711   0.1569476  -0.4393485   0.4983826
  -0.2619628   0.0985159  -0.1941251   0.2094945  -0.1131152  -0.0089982
   0.7919346   0.7691243  -0.3800958  -0.0248972   0.1175566  -0.0851227
   0.1535019  -0.0433742   0.6986693  -0.0465888   0.1356363  -0.4301156
   0.2267660   0.1426477  -0.2311135  -0.1045442   0.7183279  -0.1903242
  -0.0334899   0.0783781   0.1386179  -0.3860225   0.3536613   0.4010493
   0.1075559   0.2245337   0.1715159  -0.4035480  -1.0758576  -0.8752736
   0.1327687   0.2054034   0.3803696   0.0073789   0.0159633   0.1987404
  -0.0069662  -0.0985206   0.0497918   0.3038252   1.3669164   0.1012596
   0.0013324  -0.2349879   0.0602703   0.7023636   0.2668499  -1.0621708
  -0.1127558  -0.4378647  -0.1688461   0.5562098   0.6082386  -0.9592424
  -0.3486350   1.6967844   0.4545647   0.1974812   0.4208066   0.0611854
  -0.5092752   0.1989449  -0.1743933  -0.0272967   0.0787372   0.0281897
   0.2761570   0.0886891   0.0467293   0.5112608   0.5354818  -0.7253854
   0.0450583  -0.1067914  -0.4447411  -0.3004176   0.4621546   0.5030253
  -0.1234211   0.2651476  -0.2358474   0.1302373  -0.0326496  -0.9256728
   0.3864351  -0.5937286   0.8741401  -0.2624304   0.3561154   0.0293345
  -0.3031283   0.2315036   0.0111609  -0.2173763  -0.2317664   0.0180216
  -0.1610252  -0.0254827   0.0456293  -0.0170579  -0.3656034   0.0287199
   0.0915360   0.0514054  -0.0229882   1.0689657  -1.0757153   0.5370320
  -0.2311234   0.1415517   0.2933622  -0.3251691   0.2795764   0.1611492
  -0.3304604  -0.1786368   0.0782999  -0.6064736  -0.4843910  -0.0265194
   0.2424140   0.7763933  -0.6888626   0.0382827   0.1643789   0.5015745
  -0.7074265   0.7439250  -1.0080821   0.5551647   0.2774504  -0.7736928
   0.1082140   0.2563115  -0.2376632   0.1111094  -0.3558190  -0.3967477
  -1.0645547  -0.3254934   0.3825489   0.3845451  -0.2246738   0.1868498
  -0.5383781   0.6292568   1.1958814   0.2307602   0.1983284   0.0772047
  -0.0982768  -0.2101231   0.2071510   0.2826102  -0.4133610   0.8532909
  -0.8156419   0.4131257   0.2748226   0.1698553   0.1044846  -0.3897177
  -0.2981637   0.0327972  -0.2883101   1.4257965  -0.0606739  -0.0343516
   0.0510842   0.3407290  -0.1418854  -0.0030541   0.0502083   0.1081560
   0.1090951   0.0780754   0.0942349   0.5138757  -0.2196140  -0.2968375
   0.2391483  -0.1017279   0.0151609  -0.2536611  -0.3478001  -0.9280521
   0.0699958  -0.1402924  -0.1218832   0.1603977   0.4420488  -0.3373638
  -0.3246207   0.4912014  -0.0358004   0.4251942   0.2125935  -0.2320064
   0.5003182  -0.3110025  -0.1340581  -1.2474686   0.3334391   1.1731154
   0.2153914  -0.0699720  -0.4914911  -0.1320600   0.9918014   0.7730410
  -0.5336891   1.1068855   1.0599053   0.0562110  -0.0942544  -0.0519932
   0.9766189   0.8218510   0.8160828   0.3859553  -0.5801212  -0.0644619
  -0.0760405  -0.1207636  -0.1334705  -0.3111337  -1.1531143   0.6317984
  -0.9327109   0.2741586  -0.2452235  -0.0113145  -0.4253924  -0.0891615
   1.0691775  -0.6214553  -0.4981875   1.0853234  -0.1036741  -0.1869142
  -0.2497624   0.1427816   0.0096319  -0.1063495   0.0775717   0.0745854
  -0.3784108   0.5945808  -0.0159052   0.2580682   0.3124222  -1.8891663
  -0.1181607   0.4011679   0.1242599   0.9513642  -0.8763842   1.6747482
   0.2367281   0.1010526  -0.1203800  -0.0990356  -0.0178346  -0.1242740
   0.9843415  -0.7976932  -0.0242129   0.0620688   0.4235306  -0.2856834
   0.2798915  -0.3765172   0.2114259   0.1511664  -0.2723220  -0.8399526
  -0.0949008  -0.2045966  -0.3126972   0.1335584  -2.3548819   0.8835135
   0.1492618  -0.0451123  -0.1890408  -0.1406523   0.1963378  -0.3524977
  -0.3523362   0.7901917  -1.2533544   0.2838217  -0.1672268   0.0948225
  -0.1714411  -0.4146162  -0.2109171   0.6196639  -0.0220232  -0.2100102
  -1.4979737   0.0442070  -0.3058046  -0.1018120   0.3710231   0.0717239
  -0.2911103   0.2517352  -0.7969614  -0.1449414   0.6398524  -0.0183633
   0.2205521  -0.2427988  -0.2622523   0.3811147   0.1386002  -0.2352607
  -0.0943906   0.2908524  -0.0977070  -0.9412540   0.6556769  -1.8332396
   0.2047097   0.0254694   0.0881939  -0.4170255   0.5852871  -0.2344700
  -0.3649863   0.0255877  -0.2000163   0.0677662   1.3329948  -0.8107264
   0.6688738  -1.2437291   0.0819038   0.2728882  -0.0838134   0.2909426
  -0.3505437  -0.8644956  -0.1060358   0.4337081   0.2980740   0.0261498
   0.1914839  -0.2584659   0.1443786  -0.1406942   0.2362834  -0.1817451
   0.2011535  -0.1695171   0.3510188  -0.5061781   0.3281985   0.3887454
  -0.0334732  -0.6838066  -1.0121463   0.0478647  -0.0337851   0.1113083
  -0.1070473   0.9874125  -2.3268454  -0.1373749   0.0742752  -0.1763844
   0.2737731   0.1144984  -0.1401314   0.0776838  -0.0502749   0.0293055
  -0.0461935   0.2239612  -0.2425879   0.2046081   0.2538924  -0.0194735
  -1.1129074   0.5057200  -0.9513109  -0.0654081   0.2883625   0.2453433
   2.1380050   0.2324508   0.4120186   0.3360119   0.1559392  -0.0877128
   0.2778558  -0.2352254   0.3194231  -0.3495808  -0.2717702   0.4277514
   0.7538248   0.8469766   0.3062077  -0.1109027  -0.0480020  -0.0890874
  -0.2501157   0.0144347  -0.0893251  -0.3854721  -0.0343073  -0.0587770
  -0.6912488   0.0302743   0.1217632   0.3591844   0.1311280  -0.0232393
   0.2263659   0.1100644   0.5848951   0.1370466  -0.2152980   0.1514224
   1.1286982  -0.1746605   0.0085012  -0.0615570  -1.4371761   0.3290301
   0.5287557   0.1305131  -0.1373686   0.0018650   0.1042349  -0.0772975
   0.0692983   0.2970680  -0.3882885  -0.2223613   0.1490845  -0.1046940
   0.1131243   0.0710181   0.1439138  -0.1685813  -0.2932320  -0.0774310
  -0.3975001  -1.0397669  -1.1654102  -0.2972607   0.0114994   0.1264408
   0.0159374  -0.7018976   0.5807415   0.1259225  -0.2168982  -0.4355025
   0.0183411  -0.1188551   0.1110716  -0.1485249   0.3613604  -0.0027894
  -0.0168853   0.1285251   0.1607589   1.0617589   0.2123460   0.9110193
   0.1692693  -0.2105553  -0.3513705  -0.1974240   0.1002128  -1.9742924
   0.1154789  -0.1516839   0.1397024   0.4211882  -0.0070901   0.1373890
  -0.1084114  -0.4316469   0.4110681  -0.1259920  -0.3789038  -0.8708537
  -0.4331550   0.0557135  -0.3230109  -1.4648672   0.6870472  -0.8382199
   0.0162379  -0.4348628   0.2242979  -0.7015285  -0.8758853   0.2521546
  -1.0266850   0.8449707  -1.0660319  -0.9694202  -0.1742167   1.4184956
  -0.3296012   0.1339652  -0.0566803  -0.1855495   0.0586798  -0.1495944
  -0.0741108   0.1127356  -0.2755677   1.1502509   0.2411314   0.8577142
   0.3177107  -0.1925385   0.0376503  -1.5615171   0.3590216  -0.2529607
  -0.1261041   0.0201100   0.2943222   0.2983335  -0.1445337  -1.1879287
   1.1095474  -1.4391912  -0.0727907   0.0082173  -0.0861819   0.1997989
   0.3357639  -1.1805630  -0.4154631   0.4202535  -0.3296500  -0.6591309
   0.0806328   0.1087134   0.4051326   0.1473152   0.8486577  -0.9191260
   0.2809962  -0.2211324  -0.7580623  -0.3342267  -0.1306820  -0.4405292
  -0.6820481   1.2065757   0.3170269   0.5837964  -0.2160395  -0.0651349
   0.3416329  -0.1361135  -0.1609783  -0.7341111   0.2421735   0.2566990
   0.0061988   0.3694452  -0.4880789   0.0756450   0.0477688   1.0988548
  -0.1115949   0.0076242  -0.3304431   0.1592674  -0.1146441   0.0133900
   0.1071300   0.1438756  -0.1260057   1.1522485  -0.0238404  -0.7638665
  -0.1008532   0.0425021   0.0223245   0.8106777  -1.0382502  -0.3285284
  -0.0597046   0.2577769   0.0501492   0.9235485  -0.8419508  -1.4895533
   0.4730448  -0.7724244   1.0860156   0.1324741   0.1602713   0.1506311
  -0.5545812   0.0541269   0.1543313   0.0746415  -0.2980364  -0.2590957
  -0.7702358   0.2053688  -0.2341315   0.7434555  -0.8734128   1.6622139
   0.2078297  -0.0134448  -0.1935929  -0.0464419  -0.2870517  -0.0653415
   0.2277946   0.0443038   0.4877539  -0.2791777   0.9783606  -0.5796846
   0.1104523  -0.0349350  -0.1345558   1.0299264  -0.1695648   0.1317144
  -0.0350970   0.0538403  -0.0029692   0.9297226   0.0173288   0.3095845
  -1.1362143  -0.9621064  -1.3769124   0.0787925   0.5357785   0.3520161
   0.1468258   0.1859617  -0.0025232   0.1157385  -0.2984225  -0.0225161
   0.9294677   0.6547440  -0.1672988  -1.2984099   1.8989286   0.4638047
  -0.0047885  -0.0953196   0.2656393  -0.1136855  -0.1858654  -0.2053519
   0.0661924   0.0549081   0.4777537   0.3083215   0.4891729   1.5816911
  -0.3729954   0.3935147  -0.5394193  -0.1888129  -0.4204935  -0.4005502
   0.0855142   0.0822567  -0.1507792  -0.2900318  -1.5035798  -0.6006118
  -0.3306319  -1.5055208  -0.5965385  -0.4015377  -0.3507832  -0.0632275
  -0.4173363  -0.9359066   0.6297375   0.0702510  -0.3483545   1.2672438
  -0.1186077   0.1682382  -0.3185932   0.0002210  -0.2161879  -0.0117884
   0.6386865  -0.0462325   0.3415217   0.4427057   0.8793538  -0.0344695
  -0.0658763  -0.1503859  -0.5699027  -0.0960493   0.2568677  -0.0180211
   0.0396824  -0.4576740   0.0454725  -0.2357439  -0.1072493   0.2445790
  -0.8437950   0.5492431   0.5914644  -0.2748292   0.0799287  -0.3667727
   1.0958722  -0.1030248   0.1423762   0.1973525   0.1278912  -0.1798883
  -0.3829478  -0.5388468  -0.6596504  -0.2065746  -0.2571005   0.3471478
   1.1742082   0.5844793  -0.2202820   1.1143813  -0.1589812  -0.3031088
  -0.4303979   0.5472344   0.3736441  -0.2935250  -0.2396677   0.0869849
   0.6147538  -0.8852044  -1.9554865  -0.1139024  -0.5352855  -0.5259689
  -0.2892239  -0.2102589   0.3548657   0.1978313  -0.5188933  -0.2743784
  -0.1907614  -0.3121693  -0.1898319  -0.2339813  -0.0809438   1.0021555
   0.0763134   0.0231885  -0.1733945   0.0934676  -0.1331993  -0.0355645
   0.0011315  -0.2476772  -0.2034081  -0.3848227   0.3678791  -0.9468153
  -0.2010998  -0.0472338  -0.5560127   0.0121297   0.2963218  -0.8101940
   0.1903512  -0.2994978   0.1875680  -0.1480119  -0.1038964  -0.7344192
   0.4377064   0.2026422   0.4885451   0.4285818  -0.0588703  -0.2559782
  -1.4215677   0.7311007   0.0258616   0.1062643  -0.1159223  -0.1413500
  -0.6197130   0.1830015   0.3000270  -0.1294771   0.0171700  -0.0438887
  -0.5097536  -0.5744164   0.1769296  -0.3012527  -0.3001685  -0.1980161
  -1.0180110  -1.0449911  -0.2287138  -0.3291736  -0.1935675   0.3600966
  -1.4260429   0.3365146  -1.2808793  -0.0652548  -0.1520723  -0.1094961
  -0.0823624   0.0207372   0.1456392   0.0341322  -0.0576757  -0.3439786
   1.7907206  -0.3996012  -0.0067576   0.1117576   0.1505393  -0.1887312
   0.6159534   0.2311575  -0.2160087  -0.0267624  -0.2841210  -0.4616173
  -0.0693376  -0.1870139  -1.1146327   0.7856761  -1.2449032   1.6579696
  -0.2507113   0.0352195  -0.3735034  -0.0934490   0.1622548  -0.8009351
   0.0221190  -1.1719516  -0.6255667  -0.0726514   0.1836091   0.0393182
   0.0334304  -0.0517148   0.2721902   0.1542484  -0.1712781   0.2959129
  -0.3154480   0.1236393   0.0169374  -0.0166395  -0.0543648  -0.1872530
   0.0865273   0.0512446  -0.2068098  -0.8558350  -1.6716576   0.1701120
   0.0499050   0.2211932   0.2679101   0.3870425  -1.6131175   0.2862059
  -0.1387387  -0.1778049   0.0764975  -0.8972127  -1.0798456  -0.2036881
   0.1700231   1.1329446  -0.1626448   0.0506555   0.2195624   0.2828139
   1.1655934   0.8064036   0.3112916  -0.3684906  -0.8099582   0.6863068
  -0.1099615  -0.1602929  -0.2417149  -0.0723473  -0.2066338  -0.2444076
  -0.1718716  -0.1435395  -0.1370042  -0.0844022  -0.1115070  -0.2799088
   0.0578410  -0.4654643  -0.0091350   0.2569474  -0.1818957   0.0875698
  -0.2722260  -0.1317301   0.6946987  -0.1593202   0.3980307   0.1387912
   0.7255005  -0.1863090   0.3924981  -0.1207109  -0.0175938   0.1397780
  -0.0025472   0.1303306  -0.1141375  -0.7770224   0.1138747   0.0757369
   0.2790970  -0.0852918   0.2088078  -0.0845255   0.2925799  -0.2182181
  -0.3706201   0.2252644   0.0774257   0.4308857   0.4379859   1.2170543
   0.0202135   0.9281958  -0.9990331  -0.0322554  -0.0310291   0.2703952
  -0.1055148   0.1532045   0.0559376  -0.4096109   0.2776070   0.4445978
  -0.1332072   0.1769087  -0.6478723   0.0919937   0.1562376  -0.1478955
   1.1529723  -0.1302962   0.9331956  -0.3238577  -0.0587440   0.1010130
   0.5614935  -0.5323343  -0.2710347   0.2281068  -0.3994695   0.1015067
  -0.0533896   0.4410523  -0.4712285   1.2739017   0.8357983  -0.4611976
   0.1707418   1.6503212  -1.0298998   0.2673844  -0.0565708  -0.0949449
  -0.0391876  -0.9147847  -0.6066992  -0.3031135  -0.0485684  -0.0123931
  -0.5056921  -0.2267028  -0.1722056  -0.1512468  -0.6642004  -0.3495076
  -0.0053826  -0.4124428  -0.1141057   0.2760582   0.3830481   0.3078560
   1.3629889   0.3662583  -1.5985428   0.2611579   0.0030956  -0.0043825
  -0.4747145   0.1089888   0.2902208   0.0309806   0.0883697  -0.2342056
  -0.5817446  -0.1879943   2.1516736  -0.6090947   0.9726899   0.1727033
  -0.0143469   0.0608815  -0.0715727  -0.0184956   0.1675615  -0.1996003
  -0.7882063  -0.1431607   1.4214055   0.1093224  -0.0109126  -0.4458430
  -0.0299609   0.2400420   0.1646259  -0.3693794   0.3318621  -0.0930500
   0.3444385  -0.2097949  -0.1741711  -0.0191474   0.1572683  -0.1616662
  -0.1119657  -0.1123497  -0.3251253  -1.1097705  -0.0241104  -1.2277986
  -0.2071339  -0.2058688  -0.1694332   0.4429538  -0.3627793  -0.7089579
   0.0731790   0.0763478  -0.0523412  -0.0256417  -0.2470982  -0.2027243
  -0.1093822   0.0854263   0.1445716   0.4649774   0.7837332   0.7941678
  -0.1873777  -0.8341225  -0.4823215   0.7108899   0.2100454   1.2280214
  -0.2323964  -0.3221291   0.0723523   0.8681577  -1.2467657   1.0871306
   0.9116477   0.8135204   0.3146137   0.2512929   0.0796939  -1.4042348
  -0.1196623  -0.0603880  -0.0010507  -0.2368915  -0.1173096  -0.1897729
  -0.0203742   0.0067899  -0.1449520  -0.3609271  -0.0359060   1.0314384
  -0.5844926  -0.2350196  -0.0903277   0.4777005  -0.4370784   0.6812560
   0.0009114   0.0204336  -0.3225012  -0.2081461  -0.5700537   0.8458744
  -1.0146809   0.8072959  -1.2067154   0.3554289   0.4265221   0.4512726
  -0.7098528   0.4300427   1.2048451   0.9105363  -1.0478087   0.8390361
   0.0767149   0.2491707  -0.0578837  -0.0688803  -0.2120489   0.3260404
   0.1113220  -0.1529642   0.2268905   0.2022477  -0.0448302   0.4070797
   0.0807404   0.6135644   0.0703625  -0.1380691  -0.0905415  -0.2020286
   0.0713274  -0.1917906  -0.5174762  -0.3614036   0.3368264   0.0734880
  -0.2724527   0.2129771   0.3588710  -0.1355094   0.2727819  -0.1220880
  -0.0513452   1.1907220   0.1707064   0.1818431  -0.4467048  -0.3396314
  -0.9643446  -0.5155634   0.1728614   0.2391512  -1.4998849   1.9938819
  -0.0006972  -0.9316632   0.8724256   0.0920424  -0.3336374   0.0447715
  -0.6190019   0.7013021   0.1250232   0.3465376   0.0190591   0.8248826
  -0.2272399   0.1612822   0.0326004   1.6991083   0.3425111   0.9320586
  -1.0515009   0.1069638  -0.4435111   0.1702999   0.8487268   0.0553368
  -0.0220113  -0.4563574   0.2199650  -0.1815590   0.4094767   0.1587641
   0.1459328   0.2766690   0.2660133   0.5279080  -2.5182126   0.5473033
  -0.1187696   0.1021186   0.1626595   0.4126637   0.6498550   0.0310201
   0.1300143   0.1560133   0.5349927   1.0843420  -0.8533436  -0.7827171
  -0.1515362  -0.4482212  -1.4503825  -0.2895554   0.1371032   0.0905453
   0.1938083  -0.2951578  -0.1025607  -1.9293740   0.9547623   0.1499683
   0.0082578   0.1132040   0.0427457  -0.4934109   0.4684585  -0.0092077
   0.0156492   0.3958853   0.3307479  -0.2328043  -0.1155758   0.1535140
  -0.3927672  -1.0856347  -0.7264296   0.2445189  -0.2428582  -0.1026444
  -0.3314924  -0.0012296   0.2808136   0.0355595  -0.3201656  -0.1045677
  -0.9362675   0.0321226  -0.0125623   0.0270495  -0.0110649   0.0345191
  -0.3207401   2.2291203  -0.6101163  -0.1927173  -0.2220303  -0.2426946
   0.4228734   0.1174291  -0.0264420  -0.0062190   0.1410562   0.1139466
  -0.0819954  -0.2172860  -0.3699687  -0.2858429  -1.0147441   0.7082159
  -0.2666450   0.0851777   0.1037512   0.6185445   0.1026744   0.8337196
   0.1067592  -0.0006631   0.3589507   0.2000829   1.5718013  -0.2964059
   0.0407738   0.1800777  -0.2593753   0.0937650  -0.3768504  -1.1133278
   0.2700118  -0.4890137   1.1463403  -0.0628539   0.0855335   0.3805751
   0.2317331   0.1377468   0.4511855   0.2906969   0.7062946  -0.5838836
   0.0308513   0.3760332  -0.2866072  -0.0477243   0.0323187   0.0332397
   0.0039739   0.3369409  -0.0368089   0.1977696  -0.5751937   0.5761902
   0.1424026  -0.3358217   0.0526708   0.7665826  -0.2821365  -0.5526056
  -0.0332343   0.1471095  -0.0014987   0.2343627   1.1734484  -0.0333715
  -0.2042983   0.5953376  -0.1168944   0.0653182  -0.0952862   0.2204861
   0.8403339  -0.0472540   0.5259576  -0.7269977  -1.7025419   1.1947550
   0.0091633  -0.0183153  -0.0702011  -0.3022524   1.0009450   1.2079960
   1.0873747   0.2716079  -0.2675867   0.2031541  -0.2402953  -0.4875647
  -0.5418558  -0.1662271  -0.0748738  -0.1830379  -0.0906583  -0.0892980
   0.1165500  -0.0596482   0.5356859  -0.1603797   0.3129714   0.1268882
   1.0890376   0.2225739  -0.2687345   0.2306519  -0.1728334   0.5944905
   0.1993379  -0.1416000   0.1378636   0.1365979   0.2785262  -0.1385031
   0.2529962  -0.0751432   0.0072652  -0.1829347  -1.5261078  -0.2930671
  -0.0945920   0.0202137  -0.1697041  -0.2522389  -1.7048297   1.3708179
   0.1372068  -0.4267219   0.0442772  -0.5126835  -0.2611854  -1.7545692
   0.2975260   0.7539482  -0.6859929   0.0524749  -0.0771055  -0.2030537
   0.7121229  -0.5936326   0.5062609   1.3269654  -0.4724044  -1.1458575
  -0.0711701   0.0909916   0.2933836  -0.2587985  -0.1045205  -0.0093466
  -0.1018332  -0.1513007   0.1027571   0.0964866   0.0557788  -0.0785709
  -0.1923008  -0.3619412   0.0188326   0.0304966   0.1013940   0.1962884
  -0.4400747  -0.7085634  -1.1230306  -0.4698476   0.0661621  -0.2553780
  -1.0327003  -0.6107694   0.4687695   0.6555797   0.6594049   1.3723236
   0.0026052   0.5366096  -0.2520504  -0.1120696  -0.2200947  -0.1004581
  -0.3649421  -0.1352837   0.3503638  -0.7507484  -1.3079698   0.6339436
   0.2219872  -0.2474249   0.3202612  -2.0103271  -0.4623187  -0.2943622
   0.2278782   0.0055112   0.0102170   0.1603531  -0.5626637  -0.5014434
   0.6894094   0.6892618  -0.5321195   0.1824491   0.2354502   0.1509044
   0.4184984  -0.2690217  -1.4210152   0.3119161   0.7878074  -0.6699295
  -0.1115522   0.3579422  -0.0460215  -0.1348567   0.0678819   0.0467722
   0.0514981   0.0046523  -0.0403987   0.1025354   0.4311657   0.2911344
   0.1086040   0.0943980  -0.3271177  -0.1053611  -0.1152539  -0.1333429
  -0.5471356   0.2555136   1.8833980   0.1103095  -0.2018110  -0.0095729
   0.9776871   0.7080648   0.7900105  -0.3664881  -0.0703962  -0.1487553
   0.8126546  -0.4778194   0.6026960   0.0079175  -1.2628551   1.2790586
   0.0126370   0.4346098  -0.1414517   1.0883687   0.3853620   0.2758811
   1.4855879  -0.8920743  -0.1548973  -0.0641255  -0.3921263   0.3344910
  -0.0964380   0.0426268   0.9888177  -1.0201098   0.6229278   0.5622774
  -0.1719210  -0.1007532  -0.3131802   0.2181958  -0.5029361   0.5570610
   0.0762686   0.0371427  -0.4392532  -0.0943634   0.5052214  -0.1986752
   1.3486321   1.4747331   0.1726557   0.4753682  -0.0768822   0.9924526
   0.0981058  -0.1691469  -0.0655160  -1.2747305  -0.7495796   0.3740330
  -1.2922176  -1.7024991  -0.6717559   0.5148818   0.0959332   0.0955642
   0.0073180   0.1370982  -0.0664560  -0.1564262  -0.0473482   0.1258529
  -0.1862420   2.0136183   0.9780423   0.2180627  -0.4322957  -0.0652674
   0.9805161  -0.4763897   0.8998714   0.0595149  -0.3062492   0.1219033
  -0.5065922   0.8968011   0.6439314  -0.1266813  -0.3079194  -0.5445689
  -0.0233783  -0.0448570   0.0345051   0.1208139   1.3789937   0.3643681
  -0.3073406   0.7536685  -0.1956236  -0.0697510   0.1202085  -0.0001635
  -0.4138719   1.2145264  -0.3197377   0.9343049  -0.6355794   0.7329500
   0.0113146   0.0085225   0.1040121  -0.1377864   0.2848862  -0.5282062
   0.5244046  -0.1521821   0.4823424   0.2127606   0.0500297  -0.1285791
   0.1114927  -0.1043007   0.5589525  -0.4996684   0.0161696  -0.2031334
  -1.0980532  -0.4709353  -0.5102546   0.1012663   0.0927309   0.1140224
  -0.2416320  -0.1180567   0.4100538   0.1789963   0.3706566  -0.0723959
  -0.2103751  -0.6389407   1.0699383  -0.0313983  -0.0870768   0.5328287
  -0.4363710   1.5573388   0.6209175   0.5697329   0.3677234  -0.1862437
   0.5672545   0.1444002  -1.3281104   0.0185941  -0.4719349   0.6378630
   0.2583178   0.1595461   0.2484678   0.3695333   0.9738464   0.1678865
   0.0673902   0.4133738   0.1994111   0.0355985   0.0572148  -0.0957114
  -0.8449385  -0.9837534  -0.4947813   0.2982456  -0.5407633   0.4652939
   0.0254009  -0.0041905   0.2032420   0.6082844   0.4933573  -0.0936111
  -0.5432640  -0.6059491   0.0714912   0.2430713  -0.1413201   0.1102662
   1.3385207  -1.4770235   0.1382148  -0.7823483  -1.1297838  -1.2884683
  -0.1774830   0.0736410  -1.5359073   0.2852552   0.2598836  -0.1126912
  -0.3087184   0.2359298  -0.3030808   0.3115460   0.0177089   0.2542103
  -0.0954993  -0.2976128   0.8596643  -0.1601649   0.0092788   0.1400151
   0.9406660  -0.1296535   0.4965788   0.3725944   0.2939469   0.3125784
   0.1726447  -0.0824003  -1.1506898   0.8728242   1.0549212  -0.6157823
  -0.1210121  -0.2836063  -0.3858895   0.3808918   0.9139301   0.9231549
   0.0247114   0.2040046   0.1496121  -0.5280980  -0.2003572  -0.1495316
  -0.7018855   0.1470279  -1.6988541  -0.8365732   0.1709909  -0.1035385
  -0.1995028   0.1060266  -0.4940918  -0.1766909   0.1404888  -0.3346059
   0.2962984  -0.9383827   0.2759098   0.0533231  -0.8268986  -0.2602901
  -0.1001429  -0.1699868  -0.0622182  -0.0274179   0.1295780   0.2196058
  -0.0279141   0.0674238   0.2354815  -0.1465591  -0.4614350  -1.0373358
   0.2316717  -0.2443709  -0.1390355  -0.7531137   0.6331453  -0.7660677
   0.4094552  -0.0747733  -0.3965434   0.0512793   1.1177225   1.6072177
   1.5515087   0.3209989  -0.2095560  -0.3348798  -0.2004366  -0.2999569
  -1.4822935   0.1232545   0.5469928   0.1076602   1.5411561   1.0492953
  -0.2213591  -0.4876875  -0.1913064   0.8372221  -0.2195859   1.2951306
   0.3600869   1.6304602   0.0134457  -0.0215690  -0.2143665   0.1727406
  -1.2761759   0.0630557   0.7858155  -0.8784645  -0.0201063  -1.3649782
  -0.0710908  -0.3444770   0.1046852  -0.8522472  -1.4643076  -0.2513170
   0.9301939   0.5872357   0.1204655   0.8753060   0.2712550  -1.3187142
   0.2383682   0.1542111  -0.3417065   0.0059946   0.3489544  -0.2523373
   0.1653783  -0.1452398  -0.1775940  -0.0327752  -0.1831787  -0.1266073
  -0.2627427   0.2494662  -0.0566828  -1.7203814  -0.8750747   0.5611735
  -0.2947245  -0.0433569  -0.0929245   0.7915679   0.2993973   0.0876435
   0.7452374   0.3845474   0.2153688  -0.3590962  -0.2351763  -0.1028192
  -0.4667685  -0.9267826  -0.5295940  -1.0173349   0.4910010   0.2641633
  -0.1858055   0.3325684  -0.3233996  -0.2829311  -0.2749369   0.7390925
   0.1852100  -0.1050873  -0.0145795  -0.0421524  -0.0453000  -0.1091082
  -0.3105616   0.1480239  -0.1940205   0.0864153   0.3249280   0.3114058
  -0.2185189   0.2035099   0.0632287   0.9164736   0.0129126   0.2694455
  -0.0351041   0.0588510  -0.0807613  -0.4629021  -0.0884227  -0.0636144
   0.3752262   0.4294400  -0.7990320   0.0660828   0.0060172  -0.1518091
  -0.5511329  -0.9252858  -0.3164444   0.3644983   0.3229585   0.4100440
   0.0083828  -0.1209105   0.1891471   0.2758669   1.2418117   0.3202230
   0.9523072  -1.4669989  -0.5904041  -0.3087825  -0.0764029  -0.0561204
   2.0977814  -0.7973814   0.5125096  -0.2373419  -0.2180757  -0.4138758
  -0.1651486   0.0032609  -0.2853722  -0.1079138  -0.8760363  -0.5915977
   0.4157272   0.6378198  -1.7916891   0.1549942  -0.0862410  -0.0002532
   0.6508881  -0.6545245   0.2540241   0.0558273  -1.0095573  -0.5250777
   0.0182921  -0.1068777  -0.3836964   0.0019956  -0.1425349  -0.0299942
  -0.4031797  -0.2068090  -0.0133711  -1.0685130  -0.5762910   0.1068348
  -0.0923492  -0.1225123   0.0162770  -2.0169953  -0.4001422   0.6283651
  -0.0858730  -0.2530223   0.3906535  -0.2408456   0.1750835   1.1158702
   0.0049484  -1.0151498   1.0918757  -0.1542404   0.0354716  -0.0116553
  -0.1989207   0.1824566   0.0265271  -1.6566660   0.2397891   0.0859696
   0.1475702  -0.0713607   0.1329946   0.1868371   0.1543922  -0.2861234
   0.1962261   0.0696881   0.0504408  -0.1416285  -0.3058467   0.0523387
   1.6108843   0.0872442  -0.8124657   0.3423111   0.0057515   0.0940052
   1.0976058   0.9614918   0.5799408   0.2427415  -0.0029259  -0.3025177
   0.2486093  -0.8932651  -0.0632267  -0.1331037  -0.2864490  -0.1983964
   0.8608004  -0.8144254  -0.8849137  -0.3614765  -0.0362933   0.2837393
  -0.0336788  -0.1376256  -0.5096537   0.0927549  -0.0701383   0.2531741
  -0.0432174   0.1781350  -0.1471030  -0.7755807   0.2855036   0.2856829
   0.0443010   0.0731761   0.2092384   0.3654075   2.1185453   0.9312157
   0.0182661   0.1112592  -0.0007720   0.0927629   0.1273218  -0.5143161
  -1.0507797   0.0829978  -0.2688121  -0.2231577   0.0932663  -0.3233005
   0.2514066  -1.1959927  -0.1364322   0.1399013  -0.0903359   0.2472923
  -0.3676233   1.0854074  -0.0134740   0.7447000  -0.8478437   0.8212222
  -0.4956338  -0.0248654  -0.1378523  -0.0461237  -0.3482472   0.0161980
   1.1649391  -0.0391285  -0.0609126  -0.4417362  -1.7957907  -0.5921207
  -1.0614375  -1.1684637   0.8180361   0.1700752  -0.1566884  -0.0137986
  -0.0844348  -0.3152112   0.1928330  -0.3336434  -0.0890765   0.0697599
   0.0831205  -0.6015976  -0.4442823  -0.1111454   0.1608118  -0.2123065
  -0.5178943   0.3569938  -0.5650818  -0.1089794   0.2032115  -0.3449237
   0.3655945   0.1364976  -0.9995367   1.3070204  -0.0645552   0.4424754
  -0.1049071  -0.1383416  -0.0056774   0.0383120  -0.1495926  -0.0861678
  -0.3098513   0.0198859   0.2097490   0.4180955  -0.3257139   0.2252318
  -0.2499358   0.1270283   0.0734371   0.2913206  -0.2738650   0.2378453
   1.4693948  -1.2460365   0.1615499   0.1810120   0.0638687   0.0470511
   0.5763501   0.9118759   0.6833455  -0.1322275  -0.0531840   0.0461615
   0.7367146   0.9384377   0.8488957  -0.7093649   0.6724984  -0.6938321
  -0.7037045   0.0903923  -0.8811743   0.0629661   0.0087384  -0.1035671
  -0.5317729  -0.1044266   0.0576747   0.1789041   0.0230002   0.2925610
  -1.3430920   0.3049490   1.1735793  -0.0037321   0.3035014   0.1404802
  -0.7029342  -0.1993732  -0.4041722   0.0752123  -0.0192257   0.3308319
   0.7750732   0.6258726  -0.9110426  -0.6955828   0.6792404  -0.0463442
   0.2284885   0.2787602   0.4827030  -0.8403477  -0.6906821  -0.1606069
   0.1324835  -0.4025327   0.4289450  -0.0004505   0.3165845   0.2598755
   0.2618336  -0.4514658  -0.5704372   1.0471416  -0.6817879   0.2058936
   0.2073399  -0.2714588  -0.1312144  -0.4909426   0.2714855  -0.9136355
  -0.2602939  -0.0178012  -0.2593188   0.6753202  -0.0496268   0.2521514
   0.1767726   0.6246372   0.6162649  -0.3572011   1.3539293   0.1460492
  -0.0330893   0.5813625  -0.3010462   0.4384910  -0.5595516  -0.3557285
  -0.0352052  -1.0570928   0.0436974   0.2805865   0.1246253   0.5051998
  -0.3058257   0.2332402  -0.3253545  -0.2635624  -0.1186275  -0.2081609
   0.4000599  -0.7317016  -0.7453347  -0.0714632  -0.1352522   0.1437083
   1.0050989   1.6411627   1.4703195  -0.1680437   0.0363318   0.0163088
  -1.1112068   0.1587332  -0.6267721  -0.1902883  -0.0066086  -0.2376392
   0.4696681  -0.8127753   0.5447844  -0.4954441  -0.8684619  -0.9201350
  -0.3286282   0.7938976   0.6427237   0.0295590  -0.0802252   0.0544600
   0.4443683  -1.6594683   0.0951957  -0.3979943  -0.2218803  -0.2441851
   0.2629499  -0.1310622   0.1447996  -1.5936175  -0.0664861   0.2574245
  -0.1210049   0.7938136  -1.0022817  -0.9643825   0.3579259   0.6963181
   0.3101324  -0.0075900   0.1664674   0.0755471  -0.0680594   0.0769143
   0.1839194   0.2683434   0.1682428  -0.9793889   1.4896295  -0.5500517
  -0.2025380  -0.1092457  -0.2131381  -0.6973939   0.7611521  -0.4441551
  -0.1944597  -0.1443525   0.2227503   0.6045024   0.2145075   0.5272459
   0.9864186   0.1150675  -0.1017063   0.2308021   0.0458518  -0.1321082
   0.0329392  -0.2884249  -0.0788197   0.6764055   0.3108580   0.8030283
  -0.3943743  -0.1112852   0.1448951  -0.6290331   0.7106752   0.6788209
  -0.2107695  -0.0761991   0.1351205   0.5649771   0.0356938  -0.0229117
  -0.1425678  -0.8114801  -1.3508287  -0.4471296   0.2755071  -0.3039034
  -0.1767708   0.0342738  -0.8264806   0.5292377  -0.2697359   0.1500503
  -0.0249834   0.2517144   0.2565320   0.0560619  -0.0971600  -0.2813858
   0.0018538   0.1481225  -0.0159684   0.3771375  -0.0532036   0.2693305
  -1.0229940  -0.3499607  -0.1793889   0.1352957   0.1030887   0.0067287
   0.6242047   0.5006412   0.3822371  -0.1682691  -0.1566030   0.4308687
   0.6792114   0.2705223   0.5656714  -0.1936977   0.8967873   0.5251974
   0.2021817   0.2214199  -0.0789617   0.5200931   0.6005237   0.7827675
  -0.1151058  -0.1007509   0.2672825   0.2588657   0.0417244   0.1088638
  -0.1440846   0.1347993   0.0472772  -0.9624425   1.1268522  -0.3512250
  -0.2581510   0.0569060   0.0271840  -0.7518853   0.7082846  -0.6393591
  -0.0842799   0.0483214   0.3423875   1.1320638  -0.4748350   0.8539092
  -0.1490385   1.2712560   0.0983372  -0.1604726  -0.1018634   0.6039093
   0.2981784   0.2488310   0.2090117  -0.1175253  -0.0243661  -0.0725162
  -0.1827557   0.0846761   0.1500683   0.1947561   0.2913659   0.0757065
  -0.1042515  -0.0204458   0.2003316  -0.0139610  -0.2682012  -0.3378623
  -1.1456190   1.7474245   0.7553962   0.6882791   0.7893825  -0.7594439
   0.5775459  -0.0606914  -0.0744674  -0.3367331   0.7193390  -0.0791313
   1.2860394  -0.1931424  -0.8776166   0.2403607   0.1121525  -0.4671041
  -0.8046498  -0.8590302   1.3029026  -0.7661320   0.5760579  -0.0030675
   0.2339683  -0.0270407   0.0954659  -0.2419560  -0.2581799  -0.7867360
  -0.1260591  -0.0535804   0.1941724  -0.3834279  -0.2094277  -0.0927790
  -0.2106710   0.1663697   0.2461963  -0.1549662   0.1180607   0.2968228
  -0.1546402  -0.1210130  -0.1211301  -0.3646268   1.0096297  -0.5206275
  -0.6821574   0.0643899  -0.2930449   0.4830647  -0.2903685  -0.5240096
  -1.6780055   1.2801162  -0.0568558   0.0575544   0.3862436   0.0765922
   0.0839313   0.4239035  -0.0070097  -0.3706549  -0.1786831  -0.1793869
  -0.4481231  -0.1417719  -1.4483513   0.7480617  -0.7254650   0.1309029
  -1.4049258   0.6315969   0.2953904  -0.0129757  -0.3681625   0.2203962
   0.8790973  -0.3220542  -0.0281098   0.2909825  -1.0547618   0.1095148
   0.2999111  -1.2638435  -0.8114738  -0.0033006   0.4607838  -0.1054640
   0.1101554  -0.2463707  -0.0523751   0.1791424  -0.0503017  -0.0854333
   0.1555427  -0.1004286   0.4364946  -0.2892431  -0.0810997   0.0378290
   1.2709165   0.6878858  -0.3283833   0.1132229   0.3661630  -0.4473682
  -0.3503621   0.8716207   0.1533795   0.3099842  -1.0511908  -0.3196542
  -0.1367359  -0.0991393   1.1173603   0.3077013   0.1128744   0.0862059
  -0.1741301  -0.0341934  -0.1019298   0.0561779   0.5103213   0.1449560
   0.1075589   0.8967519  -0.6725880  -0.0776068  -0.1538769  -0.1233134
   0.1683724   0.6501641  -1.3840406  -0.0264681   0.0203732  -0.0855154
   1.3565982  -0.1893883  -0.1941865  -1.3478993   0.2458053  -1.5187830
   0.3557800   0.1589392  -0.1223377   0.4072598   0.8822223   0.0354883
  -0.0616878   0.2603308  -0.1567543   2.4919778   0.4282912   1.4784344
  -1.6468204  -0.8499304   0.0687916   0.0904071  -0.1352649  -0.1223027
   0.0349477  -0.1726332   0.0134014   0.8789717   0.4946253  -1.1402090
  -0.5418590   2.0215984  -0.4293163  -0.1340264  -0.5438143   1.4122065
   0.1241508  -0.3644765  -0.0036087  -0.2396617   0.3433846  -0.1330255
   0.1772868   0.2275911  -0.0668098  -1.0129182   0.2657384  -0.9061273
   0.3262151  -0.1864820  -0.2950059  -1.9094809   0.0610688   0.4313975
  -0.0842657  -0.0657397   0.0157144  -0.6181599   0.4097132   0.9136342
  -0.4217002  -0.3799082  -1.2759158   0.2442708  -0.2068946  -0.0078093
  -0.5420483   0.6387541  -0.1318308   1.2277640  -0.3333687  -1.2105972
  -0.1474028   0.0688977  -0.2512562  -0.1032382   1.3966041   0.1440805
   0.3014620   0.2788263   1.3594513  -0.0630414  -0.1044512  -0.0273033
  -0.9067282  -0.0367904   0.1729060   0.7788753   0.0496551   0.6063241
   0.0871047   0.0415411  -0.1855807  -1.6380703   1.7605492  -1.6343285
  -0.9883370  -1.4786465   0.3856440   0.2429772   0.2656276  -0.5847825
  -0.3757593  -0.3821933   0.1578217  -0.0565718  -0.1417879   0.0917846
   0.0181859   0.0273381  -0.0364254   1.0705897   0.1524979   0.3224351
   0.0852057   0.3195742  -0.0595123   0.7029656  -1.1494755  -1.0896482
   0.2465928   0.2577133   0.2660957   0.4241106   0.2944417  -0.5074668
   0.0831621   0.3284254   0.8283650  -0.5529986  -0.0012936   0.0860366
  -0.6540085   0.4559342  -0.3266862  -0.6228545  -0.5814340  -0.3044269
   0.3521615   0.0151755   0.2905331  -0.0609366   0.0782375   0.0877581
   0.0249121  -0.0083372  -0.0406757  -0.0925601   0.3689734   0.0984502
  -0.0085022   0.1123555   0.4038755   0.3747753   0.0438327  -0.2375116
  -0.4543191   0.7490183  -1.6138300  -0.2326389   0.2835705  -0.1390701
  -2.3311960   0.6066683  -0.3721264   0.6122122  -0.0155295   0.2877369
  -2.0020095  -0.2571558   0.3314855  -0.3083701  -1.3689843  -0.5840261
  -0.1134140   0.0566674  -0.1398430   0.6477869  -0.1226665   0.4094735
   0.9087128  -1.6985158   0.2833175   0.0238056   0.2022392  -0.0652645
  -0.0542143  -0.0161476   0.4107338   0.1385563  -0.1197340  -0.4972439
   1.1313060  -1.1641335  -0.2431394  -0.1489607   0.0806169   0.2820699
   0.8563777  -0.3323487  -1.5292709   0.3130025  -0.0481100  -0.0002426
  -0.0773267  -0.0980210  -1.8306148   0.1859318   0.3072908   0.2610515
  -0.0761202  -0.0638036   0.0115199  -0.1819153   0.3954626   0.1389003
   1.6312360  -0.7287055  -0.5661167  -0.0444976   0.4029319   0.3787283
  -0.1452881   0.7919466  -0.4802667   0.1192980   0.1802105   0.2024395
   0.7687235   0.1147978  -0.4842889  -0.7492592   0.7338454   0.8245346
   0.0561520  -0.3074487   0.2300999   0.1446889   2.6187393   1.7644952
   0.1274949  -1.4749672  -1.1772041   0.1732510   0.0719966   0.2064102
   0.6541321   0.3143396  -0.0929325   1.5094292   0.4396465  -0.0866646
   0.1908193  -0.1915747  -0.1693512   0.7195530   0.2743871  -0.0416320
   0.2912847  -0.5730002   0.6312976   0.1374553   0.0231649   0.0893367
   0.0040659  -1.0492597   1.2624964   0.3161567  -0.2372844   0.7237072
   0.8812199   0.9004573   0.6649039  -0.1993862  -0.1227645   0.0791083
  -0.1629736   0.0644466   0.0445715   0.0041362   0.1609865  -0.0365084
  -0.1227036  -0.6300703  -0.2162619   0.0120398   0.2088623  -0.1473478
   0.1263630   0.0778163  -0.6837860   0.0831336  -0.1367071   0.0213982
  -0.8053127  -0.7190001   0.0882698   1.5338371  -0.5165893  -0.0169325
  -0.1429135   0.0563137   0.1064680  -0.2953572   0.2139797  -0.3957390
  -0.2722879  -0.2534593  -0.5121030  -0.2804149  -0.1238654   0.1320734
  -0.2544980  -0.0285219  -0.2768727   0.0198672  -0.0703688  -0.0144821
   0.2024902   0.0040516   0.2633284  -0.1340374  -0.0301701   0.0824845
   0.2019691  -0.1388003  -0.0949505  -0.3786182   0.1699061   0.4425881
  -0.0380620  -0.1059037  -0.2333312   0.3569624   0.2578234   0.4363471
  -0.3269624   0.0174682  -0.0283299   0.5832822   1.2155599   0.2480327
  -0.8848107   0.7976691  -0.5468260  -0.3221696   0.2369239   0.4307171
   0.0053457   0.1883798   0.1416249  -0.1977722   0.2971083   0.5656006
   0.2114250  -0.2498479   0.1210757   0.3036874   0.0596822   0.7789529
  -0.1137469   0.1263380   0.2100677  -0.5221491   0.1013940  -0.5708336
   0.0908206   0.1398629   0.1022568   0.5955245  -1.6015148  -0.0662281
   0.5047865  -0.0686351   0.0601265  -0.6521344  -0.1232436   0.3662908
  -0.1052278   0.0250776   0.0664151   0.4088295  -0.0245960  -0.2242838
  -0.0868985  -0.0002075   0.0912156   0.1875845  -0.3975012  -1.1845203
   0.3147565   0.0090568   0.1950371   0.6071991  -1.1527793  -0.0438797
   0.1996350   0.1786037  -0.0936094  -1.2764563  -1.0280341  -0.2486572
  -0.4563499  -0.5096193  -0.9568191   0.6153617   0.4980188  -0.0707318
  -0.0801915   0.3834954   0.1862714   0.3182510  -0.1933004   0.1914472
  -0.0541489  -0.2944692  -0.3589766  -0.2572959  -1.0514428  -0.1573050
   0.1525870  -0.2531809  -0.0555133   0.9124079  -1.4703405   0.1584507
   0.0032100  -0.0654796   0.1776116   0.8994535  -1.0118397   0.4642413
   1.0390264   0.1762729  -0.9760776  -0.4885350   0.3958624  -1.4037731
   0.1082727   0.3903343  -0.3157144   0.4527603  -0.1296661  -0.0663398
   0.2344750   0.1524047   0.1797158   0.7552304  -1.3866602  -0.9531239
   0.0299592   0.0996707   0.1482374   0.7542646   0.7238462   0.8445386
  -0.7588683   0.3328306   0.9079885  -0.1770451  -0.1009943  -0.1057876
   0.0819236   0.0724845   0.0207104  -0.0105774   0.1100977   0.3860642
  -0.3120790   0.1767915   0.9364584  -0.5281231   0.0251859  -0.0979056
   0.4458817   0.0022042  -0.1337367   0.4241039  -0.1829100   0.3335005
  -0.4951087  -0.8265450   0.3307488  -0.3017498   0.5997143  -1.6317249
   0.2277901   0.1499684   0.0407726   0.7230468  -1.3172989  -1.0812056
  -0.0920053   0.3737623  -0.5709874  -0.1324921   0.2945708  -0.1392097
  -0.6292147   0.7275635  -0.5248086   0.6451209   0.3861663  -1.0581035
   0.2332888   0.2922943  -0.2267252  -0.1175106   0.1199311   0.0616368
  -0.0091083  -0.3312476  -0.3943989  -0.1341187   0.0066906   0.2190823
  -0.2855578   0.4262977   0.0773959   0.0641694  -0.2627343   0.1514763
  -0.0563352  -0.4171233  -0.3319078   1.1855669   0.9058318   0.7687104
   1.6866736   0.5809531  -0.2486278   0.0277823   0.0543910   0.1544629
  -0.2489239   0.1215796  -0.3056095   0.1033631  -0.1381398  -0.0172186
  -0.2799643  -0.2664895   0.5479710   0.0278680   0.2376361  -0.1184242
  -0.7646477  -0.4146031   1.3828517  -0.1498188  -0.0190165  -0.1726164
   1.4915113   0.3535026  -0.0701496  -0.0127802  -1.7189053  -0.4753548
  -0.1121020   0.1417902   0.2396497  -0.6812571   1.3174913   0.2406973
   0.5857619   1.7617795  -0.5638973   0.2919751   0.2233642   0.1346093
  -0.7255306   0.9255320   0.3438638  -1.6958953  -0.3370337  -0.4688646
  -0.2400867  -0.2445359  -0.0243873   0.1596846  -0.6604292   0.2070396
   0.5945502  -0.4026806  -0.4783536  -0.1750509  -0.2650826   0.0295629
  -0.6986993   0.3905937  -0.3644401  -0.4822536   1.2825465  -0.1906082
  -0.6850991   0.3990889  -0.4356024   0.0049839   0.0890215  -0.0574372
   0.1517120   0.0810304   0.4214398  -0.0205251   0.0924360   0.1289002
   0.1721240   0.2598883   0.1754562   0.1653190  -0.1443564   0.1799327
   0.0964712   0.0785850  -0.0254997   0.0305119   0.1794489  -0.2317546
   0.0531549   0.1021911  -0.0920287  -0.4008403  -0.1478368  -0.3789637
   0.0549372   0.0068462   0.1518829   0.1393652  -0.0602259  -0.1946643
  -0.2707137  -0.2471270  -0.2243161  -0.0701786   0.2289473  -0.2028247
  -0.0262133  -0.2185079   0.1674108  -0.0585440  -0.2374910  -0.1097118
   0.1731542  -0.1997841   0.0690229  -0.0416931  -0.0624175  -0.5187697
  -0.1445024  -0.1211202   0.1209747   0.8411089  -1.6123400  -1.1621294
   0.1073904   1.1907560  -0.7670236  -0.1913047   0.1664743   0.2799350
   0.1478667   0.5519038  -0.0063027   0.2388605   0.1674294  -0.3421731
  -0.3015035   0.2089355  -0.2041599  -0.1412531  -0.8223853  -0.8478634
  -0.0885540  -0.0209882   0.1265492   0.1021974  -0.1302155  -0.1808784
   0.7914560   1.3740985  -0.5532798  -0.2304298   0.0200969   0.0201088
  -0.1030796  -0.0397805   0.0220043  -0.0584683  -0.2034950  -0.1217881
   0.1975969  -0.1771305   0.0086588   0.3846631   0.7543540   0.6562335
   0.7074480   1.3440109   0.9805047  -0.1154291  -0.0583973  -0.0339439
  -0.2160973   0.0839610   0.0438036  -0.0507119  -1.0894278  -0.5442275
   0.3362866   0.0859931  -0.2190614  -0.1768067   0.1343617  -0.1430723
   0.0179428   0.2348297  -0.1464514   0.7669736   0.4224789  -0.8858370
  -0.2511487  -0.0756853   0.2174510   0.5026203  -0.3401867   2.2383314
  -0.0771768   0.1551983   0.3058275  -0.9581162  -0.4079809   0.8185356
   0.2943254   0.2685314  -0.3002186  -0.0766078  -0.7194874  -0.2659700
   0.1158172  -0.1355642  -0.0264749  -0.0481329   0.0369468   0.0310886
  -0.1396469  -0.0061101   0.1447406   0.0672030   0.0495527  -0.2419893
   0.0635973   0.0958168  -0.1932200  -0.1103941  -0.0319773  -0.0383779
  -0.2407478   0.2188746   0.0238893  -0.0720813   0.0331957   0.0147454
   0.1296110  -0.1062178  -0.0349380  -0.2640373   0.0375953  -0.0651676
   0.0237637  -0.1828630   0.2389079   0.0365281  -0.3072081  -0.0999707
  -0.1052108  -0.1932656   0.1180399  -0.2575820  -0.0603821   0.1957752
  -0.1559192   0.1676773   0.2290448   0.1428914  -0.2100392   0.0875484
  -0.0386662  -0.0753689   0.0706737   0.0408397  -0.0572158  -0.0372119
  -0.0892910  -0.2286053  -0.0513988  -0.1498845  -0.1200013   0.0457723
   0.1299673   0.0139712   0.2045419  -0.1559096   0.1242405   0.0511973
   0.0229211   0.0262787  -0.0571906   0.1286740   0.0218126  -0.0276747
  -0.0785248   0.1428989   0.0020176   0.1174936   0.1874531  -0.0089871
   0.0582714   0.1415300  -0.0139862   0.0787008   0.0204824  -0.0637853
   0.0643274   0.0365940  -0.3116509  -0.0376793   0.0614231  -0.0673139
   0.0229588   0.1611986   0.1085465  -0.0073471   0.0427202   0.2603527
   0.0440194   0.0383016   0.0419793   0.0533389  -0.0624597   0.0503246
   0.0370985  -0.0033894   0.0842981  -0.0515448  -0.2512643  -0.2137226
  -0.0643683  -0.3146459  -0.4090063   0.0048073  -0.0044660  -0.0599058
  -0.0603740  -0.1087918   0.0053281   0.0283510  -0.1676146  -0.1411594
  -0.0352989   0.2450295   0.0259588  -0.1234268   0.0907748   0.0871323
   0.2592300   0.1858405   0.0880746   0.0282796   0.2453778   0.0687603
   0.0176798  -0.0814303  -0.0572325   0.2302850   0.1240474   0.2907674
  -0.3432775  -0.0653200  -0.0100345   0.1359592   0.2650219   0.0406564
   0.1544997   0.0249192  -0.1615425  -0.1164712  -0.0415569  -0.1012502
   0.2355759   0.1722507  -0.0561305  -0.1448874   0.0191534   0.1035471
   0.1280922  -0.1831450  -0.0600775   0.0862701  -0.2077278  -0.0738165
   0.1410942   0.2816599  -0.2959589   0.0925268   0.0392121   0.0610758
  -0.0697705  -0.0011615  -0.2581141  -0.0604520  -0.3694987  -0.0637158
   0.0225910   0.4953433   0.2922722   0.7295635  -0.2213444  -1.8977512
   0.2245125  -0.3413694  -0.8380957   0.1109231  -0.1479326   0.1341430
  -0.6676971  -0.0079843  -0.8685894   0.4004031   0.3673780   0.4099310
   0.1000185  -0.2398547   0.0895549  -0.4269600   0.5244288   0.6928733
   0.1921778  -0.2553501  -0.1612223  -0.6041240  -0.2924689   0.3813579
  -1.8105241   0.5673656  -1.1262095   0.4369482   0.8189981   1.6534064
   0.0634246   0.0513159   0.3211614  -0.1911905   0.3721982   0.6441877
  -0.0283276  -0.4797476   0.4709073   0.0926987  -0.0948266  -0.2084815
   1.1011139   2.2240736  -0.2940833  -0.0842113  -1.4896549  -0.5448636
   0.3765904   0.0061888  -0.1971618   1.1958049  -0.4554419  -0.8473858
  -0.2323719   0.5852743  -0.2198801   0.1947631  -0.2551461  -0.2415275
  -1.0081724  -0.7113284   0.0177709   0.2235758   1.0784596  -0.2004516
   0.1164164   0.1410999  -0.0741835   1.1861689  -0.5502251   0.2890791
  -1.1804870   0.2898815  -0.9254876  -0.0670303  -0.0213406  -0.0340449
   0.5576830   0.5864874   1.1759048  -0.9579437   1.0595059   0.2373841
   0.0468214  -0.1860204   0.0553037  -0.0419390  -0.1450473   1.4420493
  -0.9853435  -0.1974272   0.3259468   0.2935972  -0.0737581  -0.2001873
   0.3234548  -0.4581976  -0.9673136  -1.5647174  -0.9229182   0.4379178
  -0.1813842  -0.4116757   0.1681973   0.7064755   0.1596033   0.3200174
  -1.3364459   0.7259265  -0.2872827   0.3212483   0.0347008  -0.0127543
  -0.3589099   1.2815116   0.4262135   0.2985135   1.4318114  -0.0958303
   0.0950748   0.2331306   0.0524421  -0.1932562  -0.3560815  -0.0821681
  -1.3660257   0.0279517   0.2022536   0.0623153  -0.1744257  -0.0660499
  -0.6475051   0.0888077   0.0960191   1.4362102   0.7520131  -1.0167405
  -0.0702310  -0.2541184   0.1366451   0.5855081  -0.5013525  -0.6759687
  -1.0043034  -1.0661035   1.9054401   0.0457336  -0.0157832   0.0985580
   0.3340023   0.4126949  -1.3281504   1.3486405  -0.7630042  -0.4370246
   0.1151466   0.1558319  -0.0273905   0.6024548  -0.4724800  -0.4065656
  -0.6340059  -0.0575458  -0.2157683   0.0368598   0.0460839  -0.0129722
  -0.4045374  -0.3067185  -1.3524698   0.1080574   0.9483007  -0.0003862
  -0.0261934   0.1430847   0.4115051  -0.1380712   0.1630239   0.3609035
  -0.6393857  -0.3746442  -1.8076420   0.2559966  -0.1577357  -0.2965323
  -1.9830526   0.1518939  -1.2279945   1.3421778   2.1613342  -0.2229169
  -0.1428732   0.4823006  -0.0070154  -0.0005856  -1.1836316   0.6037895
   0.4423606  -0.2629879  -1.6567979  -0.0325597   0.1867095   0.2603510
   0.2342668   0.8467782  -0.0416801  -1.0687085   0.3102973  -1.0239930
  -0.3129434  -0.1556983  -0.0416138  -0.6983218   0.0371860  -0.1458684
  -0.8093070  -0.3434172  -1.1187222  -0.0785976   0.0751605   0.4209545
   0.2356515  -0.5726336   1.6046971   0.3900561   0.0577494  -1.0377225
   0.1539857   0.1159836  -0.1548569  -0.7143140   1.1066853  -0.6017951
   0.3454515  -1.4896910   1.1547579  -0.3142957   0.0589036  -0.1471262
  -0.1992599  -0.7886606  -0.2887808  -0.0735834  -0.5919139  -0.0598729
  -0.0480303   0.7107290  -0.1323110   0.2318693   1.0187156   0.8865482
   0.8930310  -1.5475873   0.8907343  -0.0245430   0.1847096  -0.2462298
   0.4955547   1.2359571  -0.3025726  -1.4138344  -2.4867228  -1.0327886
  -0.2987508   0.0276389  -0.1344111  -0.1353515  -0.4504484  -1.1337286
  -0.5840505   0.4999811   1.0082401  -0.1272648  -0.3300496   0.0927056
  -0.6913831  -0.3723147  -0.9380939   0.2269450   1.3268482  -0.9550508
   0.4422214   0.6055063   0.1724364  -0.5217345  -0.2700597  -2.4191264
  -1.0696971   0.5110314  -0.6628690   0.0603560   0.2747885  -0.1286645
  -0.4776542   0.1379931   0.2847774  -1.4986450  -0.3875604  -0.0737504
   0.2907412   0.0223956   0.1601762  -0.5490935   0.8986902   0.5649782
   0.3832484   1.6798805   0.9335022  -0.0522397   0.1067222  -0.3127177
  -0.6691932  -0.0871379  -1.6905901   0.3576278   0.7997053   0.8128121
   0.0155222  -0.1979192   0.1381046   0.4221279  -0.6768999   0.1113948
   0.0322336  -0.3642332   0.2133464   0.0043636  -0.0836416  -0.0247627
   0.6235815  -0.7612936  -0.5236558  -0.7350559   0.6023394   1.2124193
  -0.2981689   0.1621694   0.3345668  -0.6238974  -0.6206804  -0.5383008
   0.4398497   0.4991063   1.0479912  -0.2706350  -0.1213063   0.0127759
   0.9173100  -0.6381954  -1.0552742  -0.8216725  -0.3023087   0.6481266
   0.0652393   0.1779364   0.0391391  -0.1111369   0.0503284  -1.0987139
   0.2361425  -0.7922527   0.8685683   0.1093276   0.2406367   0.1736276
  -0.6605078  -1.0294396   0.5315316   0.2321284  -1.2100048   0.1836185
   0.0074355   0.1065616   0.1981530  -0.1537768   0.7700105  -0.2933423
   0.4686091  -0.1270235  -0.1653971  -0.0086860   0.2097218   0.3802986
   1.4518021  -0.8746474  -1.2617655  -1.5219654  -0.4917760   1.2521919
   0.2456810   0.1579560  -0.0061356   0.1007073   0.1472835   0.1209455
   0.8695558  -0.5397956  -0.1060872  -0.1192353  -0.3171529  -0.1871034
  -0.8390275  -0.3630641   0.4846770   0.9107573   0.5329610  -0.0651825
  -0.4062597   0.2653474   0.1095504  -0.8227711   0.4327072  -0.0183539
   0.1310998  -0.4721098  -0.9858088   0.3048454   0.2412086   0.1471827
  -0.2017056  -0.2783853   0.4415317  -0.4110837  -1.0326263  -0.2937567
  -0.1364368   0.1938977   0.1196441  -0.6121585   1.2637600  -1.2660725
  -0.0234658  -0.1535203  -1.1351448   0.2033847  -0.0859577  -0.3408794
  -0.3489154   0.7101334   0.6247452   0.0753505  -0.0034876   0.2588340
   0.1908315  -0.0172912  -0.2068852   0.0652074  -1.2728564   0.9699836
   0.6823538  -0.2185688   0.1091700  -0.3284089  -0.1456032   0.6648847
   0.7673607   2.1949335  -1.2567075   0.5556625  -0.2573218  -0.2350914
   0.1514362   0.2443748  -0.0737995   1.6055012  -0.8626737  -1.1222335
   1.1565144   0.0368543  -0.2628521  -0.0263469   0.3308253   0.1557048
   0.8597297   1.0636727  -1.1510849  -0.9591115   0.2951946   0.4453332
  -0.0073329   0.2777796   0.0008569  -0.3334051   1.4820396  -1.1351102
   0.0518941   0.1249143   0.3313074   0.1224658  -0.0182076   0.2377005
  -0.8377170   0.4282659   0.5501783   2.0575845  -0.3018163   0.6742612
  -0.1799951   0.1052506  -0.1151836   1.2474885  -1.2621886   0.2777576
  -1.3024863   0.1453142  -1.1361231  -0.1757130   0.2185839   0.2188536
   1.4124323   1.8724096   0.1458802  -0.2112851  -0.5299235  -0.8612493
   0.1178327  -0.1545486  -0.3979205   1.3273386  -0.2734389  -0.1288699
   0.3770619   1.3459743   0.1552178  -0.0441574   0.0283259  -0.2983979
   0.6912801  -0.5397247   0.8267070  -0.8364861   0.5893147  -0.4261323
  -0.0172164  -0.2702476  -0.1549960   0.1647485  -1.0647289   0.8983919
   1.1225422   0.7615611  -0.3477536  -0.2936550   0.1076195  -0.0282796
   0.0296625  -0.7551667   0.1103877  -0.3229128  -0.1516975  -0.6575101
  -0.3708237   0.0912979   0.0051398   1.3242135   0.1771518   0.8930294
  -0.6643780   1.1095576   0.0374243  -0.2870028  -0.1917777   0.0546861
   0.3240558  -0.9334007  -0.9190386   0.3692853   0.4384534  -1.1056142
  -0.1082517  -0.0042153   0.3578796   0.6543098  -0.0786216   1.7287873
  -0.7637704   1.0720175  -0.2350950   0.3338565   0.2155759  -0.2179873
   0.4554976  -0.9990550   0.8058668  -2.1501012  -0.6044145  -1.7137624
  -0.1389125   0.0355160  -0.0642834  -0.0609982   0.8223738   0.5387074
  -0.6000652  -0.1762401   0.5028236  -0.0384020   0.3008632   0.0864395
   0.0925534   0.6539985   0.1264246  -0.2508057  -0.0588836   0.3098555
   0.0669692  -0.1414619  -0.1098586  -0.3108224  -0.4458544  -0.0427946
   0.7465722   0.4629458  -0.8077291   0.2741194  -0.0069811   0.1625057
  -0.4781092   0.0774050  -1.6921867   0.1225565  -0.4445400   1.5661224
   0.0302716  -0.3350238   0.2259116   0.1582574   0.6047098   0.2273676
   0.2624619  -0.6753865   0.1048128  -0.1320440   0.4907338  -0.1426625
  -0.1454176  -0.2462358   0.2028872   0.7691804  -1.0003751   0.1080584
  -0.0260478  -0.1025981  -0.1484663   0.3667419  -0.2694919  -0.1877860
  -0.7953287  -0.8168565  -1.6672893  -0.1844879  -0.0053708   0.1982274
   0.0525300   0.0022401  -0.6818210  -0.1934949  -0.1617750   0.2373971
   0.0022236   0.1604000   0.0944965  -0.5381221  -1.6821466   1.1319075
  -0.2275824   0.5422939   1.3244743   0.3690402  -0.3244502   0.5231510
   0.1569428  -0.9746807  -0.9809180  -0.1710782   0.3308736  -0.6023188
  -0.1037066   0.2601925   0.1627797  -0.9761157  -1.2837112  -0.3485969
  -0.7240075   0.1799976   0.3541251  -0.0509055  -0.3145923   0.0245327
   1.1125858  -0.8374588  -0.8802361  -0.1822321  -0.4592585  -0.1934506
   0.1380167   0.0028284  -0.1669760   1.0248103  -0.7101592  -0.7385393
  -0.1046937   0.1936606  -0.9472527   0.1002184  -0.2052121   0.3704221
   0.6628488   0.2259911  -0.5727141  -0.6611204   1.0917676  -2.1151418
   0.0144081  -0.0380835  -0.2666253   1.1326960   1.0374436  -0.6960106
  -0.1977128  -0.1513023   1.8298698   0.0461938  -0.0322230   0.0820917
   0.4432644   0.9457938  -0.5843841   0.0337189  -0.9502612  -2.6802172
   0.1620966   0.0700686   0.0871240  -0.6034273   0.0718741   0.1177956
  -0.4383096   1.2299111  -0.6346512   0.0469315   0.2380983   0.3285470
  -0.9826463   0.6650819   0.2911027   0.9019596  -0.3191099  -0.5722914
   0.1020386   0.0959474  -0.3238596  -1.4330537  -0.1022657  -0.1065258
   1.6709828   0.4182112   0.2878002   0.0187372   0.0234966   0.0271255
  -1.6559107   1.2701656   0.8725865  -0.5817239  -0.2140844   1.6494867
   0.1624900  -0.4310867  -0.1720231   1.0153473  -0.3008431  -0.2338543
   0.1079059   0.0364190   0.3912476   0.3956343   0.2834705  -0.2847145
  -0.8463722  -0.8169456  -0.4301812   0.3508116   1.3982584   0.0522242
   0.3538791  -0.1509867   0.1585693  -0.6691959   0.8140679  -0.0024474
  -1.1032671   1.4933310   0.0589270   0.1589581   0.0749541   0.2528978
  -0.0564186  -1.7791630  -0.3040707  -1.2091984  -0.0964383   0.1899253
  -0.0889969  -0.0429484   0.1251819   0.0485325   1.1511293  -0.6798232
   0.1587209   0.7825801   1.2542733   0.0556368  -0.1088876  -0.1672369
   0.0341382  -0.3022527   0.7182391   0.1738423  -0.2050383  -0.8984152
  -0.0581507  -0.2895122   0.3129494   1.2906164   0.2472995   0.2180725
  -1.6470784  -0.2637616  -0.3063695   0.1582213  -0.0264740  -0.1225725
  -0.8433009  -0.3832434   0.0165428   1.2198788   1.3147174  -0.1759878
  -0.1324389  -0.1379864  -0.1766562  -0.4183740   0.8838952  -0.1777125
  -0.3449060  -0.0825534   0.0811700  -0.0916801  -0.0394681   0.0065975
   1.2484378  -1.1208059  -1.3670924   1.0347756   0.5424700  -0.1335030
  -0.4011753  -0.3676454  -0.3845358  -1.9920900   0.0677713   0.2743295
   1.0387868   0.9421787   0.7456365   0.2703330  -0.2212985  -0.0021841
   0.2987121   0.6574791   0.0062061   0.6407199   0.1542928  -0.2034345
   0.1457200  -0.1832302   0.2901023  -0.6791305  -0.0453028   0.8270682
  -0.7964216  -0.3167272   1.1887262  -0.1354146  -0.1510610   0.3754228
   0.5036405   0.5561530   0.3367477   0.2281289  -0.4818026  -0.8879797
   0.2151019   0.0823654  -0.0354128  -0.1984872   0.4789128  -1.6763684
  -1.1996261  -0.6929500  -0.1637120  -0.0164563   0.1271921  -0.3980050
  -0.6859198   0.0769941  -0.2714672  -0.3589365  -0.3225675   0.2205008
   0.1042288   0.3355827   0.1233946   0.8122171  -1.2136600  -0.6072196
   0.0070136  -1.1095105   0.5129554   0.0151268  -0.0962894  -0.1625536
  -1.1083942  -0.0745499   0.2267900  -0.9112631   0.7369192  -0.4468457
   0.2482778  -0.0719396   0.0873483   0.2447591   1.4731631  -0.7606224
  -1.0833299   1.7985184  -0.4514904  -0.2990663  -0.0709867  -0.0188855
   0.0379117  -0.2602910  -0.2392651  -0.8133112   0.3221740  -1.3398819
  -0.0020682  -0.1607293   0.0370908   0.9110687   0.0109705   0.1009614
   0.3630515  -1.9104584  -0.0125935  -0.2867219   0.0889755   0.0325631
  -0.2323308  -0.1802340   0.2974708   1.3714396  -0.7663602   0.4594626
  -0.2508090  -0.0298529   0.2793285   1.5882115   0.0532808  -1.4304229
   0.1474188  -0.0777331   0.8544276   0.1958397  -0.3259904  -0.1719597
   0.1759707   1.1248932   0.2309216  -0.9138404   0.0273013  -0.8635441
  -0.0477273   0.2801121   0.0723492  -1.1875803  -1.3103019  -0.3184795
   0.5334447   0.1005278  -0.8782171   0.1874957   0.0757176   0.1341672
   1.5863425  -0.0852626   0.2937074   0.0728692  -0.3946628   0.4145283
   0.2586646  -0.0973548  -0.0944134   0.0758971   0.4991817  -0.0806047
   0.5887934   0.8254518   0.3816923  -0.1035447   0.2888742  -0.1641546
  -0.0742581  -0.4425140  -0.3827490   0.2301499   1.4928117   0.4836792
  -0.4971169   0.1254280   0.4003738   0.5623976   0.0196400  -0.5984010
  -0.0626529  -0.1249417   0.2091637  -0.0250313   0.2429949  -0.1846183
   0.2593452  -0.1222406  -0.2494915  -0.6365578   0.0105580  -1.0422410
   0.2399036   0.1307277   0.3946838   0.4500929   0.4180886  -1.4391504
  -0.1954374  -1.2087635  -0.2415735   0.2598710   0.0021993   0.5282885
  -0.1671195  -1.2048400  -0.3662307   0.3134227  -0.5021944  -0.4981976
  -0.2672871  -0.2455898   0.2521872   0.7036203   0.1516826  -0.9082770
  -0.1935145  -1.1207572   0.5155901   0.1123372  -0.0735574   0.2238931
   0.8425197   0.5677531  -1.5628923  -0.2809452  -0.6684434  -0.3939095
  -0.0712767   0.3738020  -0.0863400   1.1521830  -1.0158653  -0.1790879
  -0.3690803  -1.1539060  -1.0337447   0.0557189  -0.2539989   0.0749623
   1.3051904  -0.9279038   0.8340371   0.0345074  -0.8502808  -1.1537072
   0.4771581  -0.1169386   0.1083847  -0.3275616   0.6003943   0.4069151
  -0.5713596  -0.4335381  -0.0717691  -0.4258514   0.0615382  -0.0314273
  -0.6348640  -0.8579922  -0.2863607   0.6683982   0.5289427   0.4957731
  -0.1115814   0.0076937  -0.1694732  -0.4151812   0.3032293   0.8151368
  -0.6861423   0.3122915   0.8797203  -0.2037521  -0.0144992   0.1091946
   0.3269872  -0.2768810  -0.2588952  -0.6185160   0.0825866  -0.8148503
  -0.0897815  -0.1338336  -0.1810337  -0.5806026  -0.8674986  -0.2476116
  -1.1752295   1.6289246  -1.0062731   0.2154592   0.3473646  -0.0266389
  -0.3763317   0.4605367  -0.1755499  -0.7267256  -0.5701513  -1.3943972
  -0.0001780  -0.3487645   0.0891151   0.5959822   2.3586877   1.0398190
  -1.2297066   1.2698728   0.7645185   0.0596129  -0.4011032  -0.1704931
   0.9585405   0.3582148  -0.1758719  -0.1330655  -0.6414072   0.9755638
   0.0418497   0.0539291  -0.0313646   0.6512603   2.0345464  -0.1178526
   1.3180145  -0.3224636   0.8696109  -0.1524224   0.2861690   0.0893711
   1.1053450  -1.6205326  -0.3104369   0.4476062   0.0666024   0.1421300
  -0.2667645  -0.3945414   0.1479925   0.4375002  -1.3921587  -0.1444178
   0.8385038  -1.6314440  -0.4237406  -0.0353713   0.2983432  -0.2829574
   0.0893252   0.1973761   0.4549947  -0.3859863   0.6622040  -0.5002687
  -0.0748936   0.2776306   0.4422381   0.7508960   0.6702508  -0.8186620
  -0.2941099   1.2441236  -0.0467498   0.0726145   0.5321066  -0.0706388
  -0.4283742  -0.5140220  -0.8058654  -0.0412198  -1.3800913  -0.6099436
  -0.3010030   0.2188177  -0.0149277  -0.8683212   0.1282263  -0.2422798
  -1.3833902  -0.4188843  -0.3270570   0.2760839  -0.1441462   0.4638452
  -0.3405623   0.9073361  -1.3163413  -1.2034649  -0.4064268  -0.5598126
   0.0832824   0.1099211  -0.2203995   0.7220762  -0.2712607   0.9492735
  -1.0425319   0.9353658  -1.5809352   0.1524149  -0.0400766   0.0664710
  -0.3764455  -0.1606239   1.0517838  -1.8222967   0.0189227  -0.6719225
  -0.2091981   0.0357430  -0.2140300   0.3784899  -0.5959137   1.8896685
  -0.8133668   0.6383809  -0.6167059   0.1876934   0.1308445   0.0223875
  -0.3866423   1.2089683   0.2835015   0.2926429  -0.2231283   0.6785786
   0.2609668  -0.2911077   0.1660988  -0.9104893   0.7056540  -0.6127911
  -0.1261864   0.1296791   0.2485113  -0.1474710  -0.0233408  -0.2058112
  -0.7480454   1.1954797  -0.6854713  -0.2471057   0.5766064   0.4473379
  -0.0049211  -0.1087538   0.1646553   0.1304761  -0.2097527   0.9767061
  -0.8493437  -0.2534742   0.3948465  -0.0758826  -0.1777831   0.3358234
   0.1150695   0.0502990   0.4107147   0.1273762  -0.4925543  -0.9188015
   0.2284263   0.1367490  -0.0435669   0.0539395   0.7146677  -0.9418407
   0.9488716   0.2391917   0.2167243   0.1238996   0.2709441   0.1575792
  -0.2016260  -0.6053377  -0.9099835   0.0294172   0.2192666   0.4046893
  -0.1248242  -0.0698091   0.0003404   0.5545930  -1.2896553  -0.4571200
  -0.7447312  -0.3868775   0.3465001  -0.1657645   0.3135302  -0.2603441
   0.2780525   1.5352391   1.1317495   1.8425680  -0.3615377  -0.3404820
  -0.0953022  -0.1144006  -0.0561831   1.6242996   0.9820412   0.4681672
   1.3227583  -0.8384766   1.7037342  -0.2908429  -0.0234563  -0.0749888
   1.0227009   0.4234723   0.0820579  -0.6062080  -0.3890000  -0.1905228
   0.0686345  -0.2545807  -0.0403631  -0.1028799   1.5086693   0.3094239
  -0.2420529  -1.8319310   0.5482516   0.4612576  -0.3420267   0.1848250
  -0.5509040  -0.3357452  -0.6201305  -0.8754875  -0.1059834   1.7095355
  -0.1396614  -0.2223164  -0.5015967   1.1114066   0.4883423  -0.9929469
  -1.4397631  -0.0206064   1.4248629  -0.0780751   0.0413444   0.0461254
  -0.6887920  -0.3545515  -0.2034480   0.0871793   0.3891573  -1.0539027
  -0.1808738  -0.0575049   0.1686412   0.0124493  -0.4555962   0.1740014
  -0.3621345   0.1405646   0.2589946   0.0107537  -0.1107959  -0.3786074
   1.6132169  -0.7468329  -1.0053483  -1.6813756   0.4023492   0.4050413
   0.3903967   0.4647512   0.0172125  -0.8360543   0.8466149  -1.3364173
  -0.4688896   1.0643844  -0.6567494   0.0656740  -0.5706062  -0.2843012
   0.4864323   0.1807947   0.2726827  -0.4154438  -1.2355785   0.5785118
  -0.1316816   0.0978015   0.1039911  -0.4807203   0.0795788  -0.4127636
   0.9801510  -0.0594992   0.2300186  -0.1688734   0.0516289   0.0384933
  -0.2633062  -0.3574017   0.3858434   0.5198135  -0.2681710  -0.3126745
  -0.0642395   0.0135188   0.4887693  -0.3668194  -0.3859110   0.1807906
   0.0842072  -0.3170691  -0.1918953  -0.3453676  -0.0036807   0.1031031
  -0.4340114   0.9217443  -0.8483836   0.6352368   1.2990951   0.8131125
   0.2069950  -0.1878523   0.1372804   0.8183388  -1.3151781  -0.2736980
  -0.6944564  -0.3579749   0.2085306   0.1801323   0.1416466  -0.1301076
   0.1342834  -0.4144829  -0.9551838   1.2585981   0.5095276   1.1950614
   0.3235503  -0.1429283   0.2092109   0.1091713   0.6633059  -0.2023982
   0.0114990  -1.2354366  -0.1741841  -0.1617760   0.0613722   0.1120169
  -0.2306083   0.7009657  -0.4651061  -0.8085009   0.0293619  -0.6377303
   0.0479261   0.0200858  -0.1553816   1.1906596   0.1805602   1.7657321
   1.0693944   0.7386243  -1.4719705  -0.2844625  -0.1840657  -0.0303554
  -0.9956253   0.5655204   0.2298866  -0.2703057   0.2220208  -1.0596395
   0.2751621  -0.0406592   0.0856327  -0.2003579  -0.0590073  -0.8764624
  -0.3324053   0.1544942   0.5359271   0.1560735   0.0621322   0.2691570
  -0.0691078   0.3096061  -0.4795644  -0.3864343  -0.9999156  -0.1696858
   0.2248635  -0.0825086  -0.1820640   0.2149661   0.8378093   0.6982586
  -1.0460566   1.0310719  -0.6354860   0.0113181   0.2334066  -0.1592464
  -0.2708407   1.1486439  -0.8603914  -0.7980111   0.8349556   0.6303838
   0.0322927   0.1937721   0.1191523  -0.5346275  -0.5259386   1.1864543
   0.2427312  -0.4723598  -1.6294584  -0.1402477  -0.0701814   0.0114013
  -0.3154588  -0.6997011  -0.6711036  -0.9512876   0.4586073  -0.3882505
   0.1276798  -0.1943899   0.1871732   0.4388648  -0.1298845  -0.7770786
  -0.6723931   0.3160071   0.6339656   0.0010087  -0.2229748  -0.1492150
  -0.1757141   1.1627220  -0.0185652   0.3141641   0.4603664  -0.5530750
   0.1022298   0.0771293   0.0597249  -1.0066239   0.7485558  -1.2244376
   0.6148654  -0.7430875  -1.3469447   0.2381266  -0.0369191  -0.1803356
   0.8683098  -1.6950455  -0.3362813  -1.0412778  -0.2521628   0.9701850
   0.1514272   0.1074726  -0.1964472   0.3212822  -0.4251920   0.2014461
  -2.0051637  -0.8077715  -0.5238360   0.1552121  -0.1429221   0.0366342
  -0.5750846   0.3973357   0.5012976  -0.4175818   0.5418844  -1.4816731
  -0.0964215   0.0367426  -0.0895549  -0.2553912  -0.9674207   0.3819674
   0.6509025  -0.1182328  -0.8792111   0.3622535  -0.1149250  -0.3476920
   0.5142970   0.9251311  -0.7093035  -1.3442119   1.0885626  -0.7621032
  -0.0105261   0.4266776   0.0179930   0.7118804  -0.5669310   1.6746678
  -1.2166892  -0.2769088  -0.0849248   0.1994391   0.0818488  -0.0726117
  -1.6899520   0.6378434   0.4737127   2.7195746  -0.8322680   0.9799280
   0.3098819   0.0967711  -0.0844369  -0.0798104   0.6489693  -1.1216555
   0.6057739   0.0373940   1.0871061   0.0683485  -0.0855960  -0.0739052
  -0.2254679  -0.2643304   0.6631441   0.5522069  -0.0098564   1.1230417
  -0.0657933   0.2822516  -0.0369250  -0.5485898   0.0225052  -0.4965468
  -0.5988047  -0.4693655   0.7173127  -0.1715704  -0.0300197  -0.1874311
  -0.7526024  -0.9738366  -1.0347222   0.9642607  -0.3297605  -0.3591738
   0.1021932   0.2382668  -0.1392903   0.2111696   0.3713169   0.5454429
   0.8393119  -1.3627842  -0.1650194  -0.0730395   0.0298227   0.1818631
   0.2202599   1.1311232   1.4062468  -0.0026181  -0.6622233  -0.3058150
   0.4001304  -0.3538563   0.5046027   0.4808583   0.7020788   0.4495885
  -0.7912140  -0.0122427  -0.9167089   0.1209898   0.1200538  -0.1260923
   0.8664502  -0.3309696   1.6282947  -0.0244946  -1.4662993  -0.5248153
   0.0758115   0.0291636  -0.1956765   1.2077210  -0.3131471   0.0145668
   1.1849757  -0.2189936  -0.1557818   0.2367687  -0.1349699  -0.0671277
  -0.3694448  -0.0634937  -1.2515208   0.7394514   0.3361028  -0.1872995
   0.0478135   0.0824539   0.0794834  -0.7366407  -0.0148061   0.9609426
   0.1061009  -0.7216395  -0.0471929   0.0863842   0.3565980  -0.1530770
   0.3130423  -0.1156881   0.8994551   0.3781531  -1.5382812   0.3883393
   0.1356601  -0.4418956   0.2381713  -1.3416761  -0.1500569   0.2650366
  -1.2618896  -1.4989243  -0.5060773  -0.1891701  -0.1794748  -0.1552948
   0.0858266   0.4014929  -0.6736147   0.2377863  -0.4704404  -0.3316344
  -0.0718245   0.1335561   0.0956940  -1.0314929  -1.2541487   1.1018858
   0.7568970  -0.0072430  -0.9531385  -0.0315351   0.0741514  -0.0871379
   0.5905926   0.9635269  -0.3161576  -0.8307589   1.5938410   0.0551218
   0.1762931  -0.2265189  -0.1445933   0.1967638  -0.4702792  -0.2724700
  -1.4577379  -0.7992008   0.5185506   0.3653124  -0.4021679  -0.0113110
  -1.5202039   0.6242982  -0.0278848   0.9731440   0.2083584   0.1721799
   0.2079228   0.0656075  -0.4891442   0.9916210   0.8163210  -0.9373475
   0.2423807   0.9852927   0.2227242  -0.0715209   0.3321072   0.1231879
  -0.6214282  -0.5067477  -0.0441575  -0.9941117   0.1813631  -0.4555531
  -0.1013605   0.1854595   0.1669819  -0.6717107   0.1379582   0.6328172
   0.8632234  -0.1908037  -0.3009745   0.0633553  -0.4319305  -0.2751588
   0.5126430   0.5830880  -0.0555423  -0.1261546   1.1351068  -0.1382056
   0.0618903   0.3264236   0.1164524  -0.0535718   0.5724446   0.4945571
  -1.6975122  -0.1512956  -0.6323059   0.0013979  -0.2147130   0.3746026
  -0.7192312  -1.2244672   0.9181009  -0.5356179   0.3251868   2.4390340
   0.4154093  -0.3323219  -0.1056266   1.0387435   0.0503927   0.8742666
   1.0689404   0.4362182  -0.4459798  -0.1018480  -0.0917801   0.1671709
  -0.6836730   1.1685369  -0.3730478   0.2758570   0.9343588   0.3164543
  -0.0729321  -0.3501501   0.1167811  -0.6333547   0.5349476  -1.0837438
  -0.1602427   1.9474955   1.7621252   0.0714267  -0.1354086  -0.0299749
  -0.3580365   1.3865653   1.6581130   0.1551310   0.7270346   0.6383236
  -0.2533676   0.0897640  -0.1895186  -0.1954590  -0.7064723   0.3228341
  -0.4800756   0.5659634  -0.3210210   0.1770525  -0.0707126   0.0881950
  -1.7836333   0.1797573   0.5178050   1.1875811   0.4052987   0.6641806
   0.1946444   0.0282111  -0.0580458  -0.9252152  -1.0763017  -0.5202222
  -0.2338719   0.7196045   0.2441572   0.0380807  -0.0050155   0.1326246
   0.4623111  -0.1831020  -1.7637919  -0.7431644   0.1733636   0.1441329
   0.0973397   0.4959618  -0.2601973  -0.0100677  -0.3760768   0.7077904
   0.1656589  -0.3779816   0.6548811   0.0428959   0.1733197   0.2513134
  -0.5216244  -0.1795264   0.0326432   0.2279420  -0.4502366   0.8705303
  -0.3050926   0.2091894  -0.0752843   0.6789989  -1.1424224   0.1757283
   0.5435882  -0.2186594  -0.2247199   0.1559529  -0.0048266   0.1179479
   0.6889864  -0.3706118   1.1184778   1.2735868   1.2250734  -0.2956251
  -0.1259496  -0.1962942   0.3332889  -0.0607484   0.7625745  -0.7753642
  -0.2301810  -0.9907742  -0.0648257  -0.2616475  -0.1971262  -0.0719635
  -0.8416623  -0.0832212   1.3598884   1.7686860   0.5058423   0.8895127
   0.0948813  -0.0164528   0.1083550   0.0666846   0.2353906  -0.4554062
  -0.1090914  -0.1964580   0.3745339   0.1098649   0.1589783  -0.0947136
  -0.7702797   0.2663780   0.0521702  -0.2551373   0.1530525   1.0410909
  -0.0861783  -0.0904278  -0.1482792  -0.3170514  -0.0010242  -0.3965745
   0.7511035  -1.4082702   1.0760655   0.3068417  -0.1271506  -0.2029647
  -0.7984853  -0.9015709  -0.0211613   0.0002623  -1.2178207  -1.2674459
   0.2363921   0.3548887  -0.0027317  -0.5753191  -1.0901734  -0.0060302
  -0.1573376  -0.5722730  -0.7329094  -0.1624702   0.2180469  -0.2804414
  -0.3290820   0.7605536  -0.4788528  -0.6443677   1.2522621   1.1785814
   0.1096587  -0.0911118   0.0923317  -0.3726253  -0.4737215  -1.6963576
  -0.0869303   0.3773762  -0.6892862   0.2058114   0.3490166  -0.1758674
  -0.0152080   0.0478821  -0.2481120   0.2067755   0.4255153  -0.3253296
  -0.1395389   0.3440593  -0.4001289   0.4690624   0.5097725  -0.2879434
   0.7895348  -0.4670857   0.6190950   0.0413046   0.0063701   0.1179902
  -0.6510782   0.8839976   0.7547333  -0.3333000   0.3758529   1.0871662
  -0.0784229  -0.1287393   0.1947925  -0.0997153  -0.2252820   0.0650839
  -0.6292501   0.4742520   0.0282365   0.0556259  -0.1727766   0.0942273
   0.6418563  -0.9068534  -0.0097060  -0.3624185  -0.7459936   0.9565220
   0.5596765  -0.0355794  -0.1075695   0.9847379  -0.9793319  -0.3215234
  -1.3886952  -1.1085241  -1.1063773   0.1736665  -0.1474773   0.0263148
  -1.4927869  -0.8633399  -0.3170088  -0.6777727   0.7348536  -0.1327988
  -0.0102544   0.1131466   0.2141632   0.8939809  -1.4521317   0.5649850
   0.8199889  -1.2716306  -0.2612772   0.1450450   0.3404677   0.0125592
   0.6300984   0.0855309  -0.6049979  -0.7941869  -0.6975249   0.5821067
   0.2569774  -0.1086128  -0.2224653  -0.6381525  -0.3615327  -1.0677699
  -0.1426040  -0.6096363  -0.2861564  -0.0197896  -0.0683984   0.0282650
  -1.0861210  -0.8022911  -2.0210674   0.3542466  -0.0871061  -0.2925555
   0.2831985  -0.0831043  -0.0068459   0.0331782   0.3768294  -2.0398952
  -0.7716066   0.3063855  -0.0528740  -0.0733283  -0.1658881   0.0137989
  -0.0399364  -1.4188707   0.2110044  -1.0941408   0.7582142   0.9745841
   0.1227611  -0.0260235  -0.3391172   0.3991448   0.8183534   1.0084413
   0.0497700  -0.1574091   0.4376224   0.0859322   0.1403916  -0.0009748
  -0.3570755   0.2596606   0.4478583  -0.2593544  -0.8846419  -0.1806474
  -0.2284364   0.2400947   0.1241770  -0.8470768   1.9360403   0.1765296
   0.3782506   1.5331000  -0.0625203   0.1442027   0.0117365   0.5475947
  -0.7365913  -0.3766050   0.3080718  -0.3044741  -1.0805627   0.2967312
   0.0759400  -0.0988957  -0.0308884   0.4504042  -0.9256510   0.5471691
   0.4306176  -0.2123275  -0.1003263  -0.0696311   0.3593900   0.0813726
   0.3586227   0.2016016   0.2817101   0.1648092   1.4205144  -0.3787992
  -0.0081172   0.2410380   0.1411866  -0.4726712  -0.5494611  -0.5971693
   0.1612857   0.8108117   0.2905718  -0.0614511   0.0272089   0.0620363
   1.1925151   0.0919067  -0.0873676  -0.1213570  -0.2648637  -0.3688891
  -0.1334790   0.1307060   0.0715725  -0.2468681   0.1808644  -0.9748960
   0.4206897   0.0304900   1.5370678  -0.3431729   0.2497906   0.0203115
   0.7129976   0.4963377   0.1842011   0.0643788   0.5767714   0.5762427
  -0.1031572   0.0857259   0.0414712   0.9399115  -0.1482915  -0.1674973
   0.2184859   0.4225746   0.1682979  -0.3842033  -0.0585695  -0.1864392
  -0.9677734  -1.0266025  -0.2963116  -1.1874931  -0.9409593   0.1360802
   0.0742626   0.1120258  -0.1663297  -0.8355605   0.9119665  -0.3957819
   0.4360653  -0.8906912  -0.2936014   0.2406110   0.0339442   0.2668956
  -0.8413700   1.5904430   0.3882422   0.6758767   1.2555522   0.1759908
  -0.1165293   0.2489779   0.3339696   0.0131992  -0.8162881  -1.0299526
  -0.7820110   1.2838110  -0.7543207   0.1567155  -0.0144342   0.2790809
  -0.4870212   0.6900487  -0.3959021   0.8209242  -0.9427431   0.1522805
   0.1083760   0.1102547   0.1651491  -0.0000386  -0.3436239  -2.0054467
  -1.3944187   0.0627811   0.3409861  -0.1045413   0.0254725   0.2678186
  -1.1064782  -0.0922595   0.5085502   0.8967496   0.8209312  -1.1041316
  -0.1603935  -0.1020294  -0.3429945   0.1213964  -0.2393543  -0.0562013
  -1.0744244   0.6440277  -0.1722726   0.0926495  -0.0334952   0.1041166
   0.5006964   1.2217857   0.1281911   0.4306409  -1.5891768  -0.0672249
  -0.0527067   0.0654056  -0.1110173  -0.2671092  -1.3638495  -0.9428243
   0.4279966   0.4807107   0.6168635  -0.0507672  -0.2585818  -0.0907339
  -0.9451696   1.2956249   0.0439786  -0.5863398  -0.0632456  -0.5271499
   0.1308533   0.1251289   0.0024571  -1.0124542   1.1342792  -0.0088426
  -0.1303801   1.1393514  -0.1439684   0.0518197  -0.1140191  -0.2226843
   1.4163470   1.2121533  -0.5694175   1.2213810   0.6260605   0.5646650
  -0.1894010   0.0154872  -0.1574462  -0.2981759  -1.2919263  -0.8959906
  -1.8168503   1.3304219  -0.2967249   0.2559754  -0.0595190  -0.2332787
   0.0402909  -1.3746665  -1.0029292   1.6320250   0.4544056   0.5490121
  -0.0585735   0.1015127   0.0001053  -0.0942094   0.3794765   0.5184787
   1.5402133   0.7263601  -0.8934857   0.3173300  -0.2270652   0.0859391
   0.7125530  -0.6324514   0.5715996  -0.6341074   1.0794255  -0.1193541
  -0.0195768   0.2264924   0.1471167  -0.9552830   0.7876940  -0.0368302
   0.0910569  -0.5254442  -0.3984755   0.1457047   0.2355309  -0.1116674
  -0.5034836  -0.8338260  -0.7356255  -0.0077358   0.0685477   0.2507972
   0.1660928   0.2189877   0.1549280   1.4579232  -0.3999363   2.3547040
  -1.2167478  -0.7873529  -0.1335460   0.0920712  -0.0484029  -0.0597252
  -0.1836941   0.2769850  -0.3405571  -0.6684598  -0.1153781  -0.4797166
   0.0526598   0.0411885  -0.2078849   2.0759701   1.5468108   1.4834992
   1.0574587   1.4655739  -1.2763154  -0.2834730  -0.0333650   0.2787025
  -0.3132406  -0.3576159  -0.2398476   0.8764698   1.1881068   0.2683111
   0.1157806  -0.0253428   0.0688670   0.6216005   0.5860309  -0.9426559
   0.7116800   0.2142072  -0.6133148  -0.1178573   0.4712816  -0.0242988
   1.2996317   0.1002370   0.1739131   0.2401167   1.6337446  -0.4656611
  -0.0186407   0.0836734   0.1850055   1.4692501   0.9647727  -0.5056266
   0.9961282  -0.7117741   0.3109792  -0.0464819  -0.1829932  -0.0176242
   0.4812823  -0.0527813   0.5209051   1.0529276  -0.3601840  -0.2086288
  -0.1306095   0.0205713   0.2891430   0.2036737  -1.6349159  -0.4237301
  -0.6330354  -0.2770642  -0.0355134  -0.0799164   0.0049212  -0.2362649
  -0.1239815   0.7411726   1.6801974   0.1421164  -0.9306945   0.4004817
  -0.0495695  -0.1023323   0.1433536   0.0306912  -0.7166391   0.8580297
   0.2453777  -0.3976586   1.4622789   0.0283447   0.0983613   0.0743112
  -1.4486921   1.0088571  -0.1173125   0.7955052  -0.5232499  -1.0270445
  -0.0401589   0.0447446   0.1545708   0.0341748  -0.0273644  -0.3678748
   0.1146467   0.7085080   0.7095066  -0.4803744   0.1237598  -0.1364496
   1.2964273   1.1737624   1.5011599   0.6192000  -0.2137205   0.2003477
   0.3623996   0.1426086   0.0379274  -0.0892670  -0.7136498  -0.7125466
  -1.2306527   0.9651368  -0.3051645  -0.1032510  -0.1725861  -0.4110329
   1.0225221   1.0145534  -0.9175867   0.9281622  -1.0028307   1.0195261
   0.1984736  -0.0878449   0.8269442  -0.4570328   0.3596422  -0.7827313
   0.5744602  -0.8732149   0.5294577  -0.1130171   0.0849267  -0.2629605
  -0.0857903  -0.7475734   0.2213775  -0.9071168   0.4615862  -2.1275260
  -0.1661130   0.1685060  -0.0765609  -0.8995789   0.3843434   1.6139514
  -0.8692032   1.1956805  -0.1917450   0.0270890  -0.0550677   0.2522060
   0.6328301  -1.6827830   0.9693628   0.9519121  -0.0088413   0.2482743
  -0.0487044   0.1284822  -0.3811307  -0.0083226   0.1501123   0.4271534
   0.9819132   0.3008048  -1.2824429   0.1478253   0.0009248   0.2177747
   1.3361082  -0.0432125   0.7905363  -1.0324608  -0.6376036  -0.3166909
  -0.3213955  -0.2250368   0.1686772  -0.5285501  -0.2395277  -1.1338021
   1.3383289   0.8763007   0.2641780  -0.1195048  -0.1557655  -0.0457619
   1.5518310  -1.0238777   1.2103040   0.7644181   0.6785346   0.6388896
  -0.0237527   0.3923935  -0.2788870   1.4472016   0.3439071   0.6296767
   1.1039410  -0.6089797  -0.6456326  -0.3332914  -0.1240960  -0.1265345
   0.0628679   0.0765474  -1.2377614   0.4173714  -0.2754652   0.5514517
  -0.2010268  -0.1022027   0.2818669  -0.7490117  -0.0427098  -0.5384014
  -0.1172916  -1.6173530  -0.5235063   0.2565535  -0.0103203   0.4851021
   0.6077546  -0.3700371  -1.0746048   0.3427083   0.1391769  -0.0862079
   0.1752567   0.0730977  -0.1040040   0.0549593   0.0873561   0.7289885
  -0.6762672   1.0387707  -0.3806812  -0.1871696  -0.0692595  -0.0012421
  -0.2836612   0.1204032  -0.0177051   1.2645962   0.2389663  -0.2788480
  -0.0259932   0.0364138  -0.0267034  -0.2743171  -1.1428375  -0.3396036
   1.1775788   0.3799156   0.2709497   0.4175975   0.0853594  -0.0689882
   0.3828028  -1.0043733   1.5190567   1.0867433   0.5517484   1.4012460
  -0.3549195   0.0023709  -0.0081698   0.1716419  -0.5224523   1.0152645
  -0.4926721   0.0476564  -1.4760899   0.2267330   0.1093636   0.0185555
  -0.1088689   1.2207245   0.3718841   0.0072920  -0.4302327   0.8622451
   0.2904755  -0.3588983  -0.0303351   0.0640255  -1.1470421   0.3883628
   0.0937945  -0.4442555  -0.8024099   0.3945310  -0.0546561   0.1554207
  -0.6770060  -0.5270312   0.5637438   0.8220787   0.3859542  -0.7054689
   0.0980906  -0.0898419   0.7548319  -0.4438326  -1.0700240   0.6175452
   1.6757853  -0.0242145   1.5807630   0.0762267   0.1372040   0.3219508
   0.5028876  -0.5240315   0.0935634   1.0529588   0.5391753  -1.0842801
  -0.1900442   0.2752796  -0.0222709  -0.2187898   0.7961736   0.0120103
   0.3830563   0.9019135  -0.6625381  -0.1217433  -0.0687150   0.1612888
  -0.1714248   1.1980417   1.0875560  -0.9146638  -0.2279268  -0.3517648
   0.1811315   0.0678919   0.0644777  -0.8948220   0.1063819   0.5693477
   0.4079004   0.6987836   0.5769807  -0.0243378   0.1177535  -0.0635433
   0.0472168   1.1358535  -1.4048252   0.4670089  -0.6314629   0.8887363
  -0.1380287  -0.1870143  -0.2440482  -0.5907497  -1.2005818   0.1567471
  -0.5987636  -0.1494773   0.8766257  -0.0855042  -0.1811499   0.0003616
  -0.3182317  -0.6643020  -0.4956262   0.5271007  -0.7676840  -0.1971171
  -0.1702904  -0.2449864  -0.0449179   1.1907962  -0.9381502  -0.1947592
  -0.6584532  -0.7177782  -0.0903884   0.1630858  -0.0895846  -0.2958271
   0.4538592   0.0120121  -0.9885173  -1.1906670   0.1551205   0.3237901
  -0.1897584  -0.2188078  -0.2009241  -0.0876122  -0.4581647   0.2769537
   0.5516062  -0.1758630  -0.0954499  -0.1486108   0.0535000   0.2338627
  -0.3303764  -0.6824474  -1.0286701  -2.1762869   0.3786007   1.0673939
  -0.2691037  -0.0256022  -0.2497755   0.6827660   0.4122726  -0.4375507
  -0.4206878   1.5694863  -0.9905429  -0.2854029   0.0540598   0.1670794
  -1.1321116   0.7381780   0.2104478   1.2896865   0.4349686   0.4496746
   0.1168726  -0.1516964   0.0486950  -0.7440752   0.2868675   0.3108417
   0.2573780   0.8656814   0.3629245   0.0605000   0.1403625   0.1590904
  -0.8526836  -0.8976034   0.9658787   0.5437551  -0.6841734  -1.0745544
   0.0210216   0.1182003  -0.0076688  -0.7307492   0.0882981  -0.0524051
  -0.0506662  -0.7478890  -1.1452883  -0.0253857   0.0453507   0.0031971
   1.1021622  -1.0658510   0.4410081   0.8189758  -0.4795461  -0.1511350
  -0.1787314   0.5955123  -0.0487040   0.7651434  -0.2615096  -1.2652306
  -0.4986455   0.3984237  -1.3841983  -0.0580528   0.0815080  -0.0607682
   0.7907819   0.8740977  -0.3488761  -0.0494823  -0.1413588   0.2300871
   0.4770310   0.1714345  -0.2942659  -1.3188659  -0.8822769  -0.1299811
   0.4729140  -0.6200465   1.2100476   0.3133318   0.0690863  -0.2209391
   0.1632643   0.2098547   0.8333553   1.0255796  -0.0106321  -0.9849546
  -0.2205002  -0.1858751  -0.1981770  -1.7210271   1.4909761   1.1841249
  -0.8377332   0.2104585  -0.8067835  -0.5154027   0.1477641  -0.0594997
   0.8175586  -0.2733099   1.6375239  -0.2426683   0.9742750   0.2983486
  -0.0944276  -0.2741658   0.1674609   0.3835394   0.8534677   0.1672362
  -0.3975712  -0.4508080  -0.5050211  -0.0808176  -0.3493395   0.0158384
  -0.7915358   0.4399234  -1.3974527  -0.5423648  -0.4345510   0.2589573
  -0.2798385  -0.5359536   0.0495111  -0.0472931  -0.8413222  -0.4445770
   1.0702440   0.7444142   0.1951102  -0.0153925  -0.0320403   0.2161948
   1.1025779   1.3935544  -0.0863178  -1.9792011  -0.0979152   0.0247245
   0.1853266  -0.1771379  -0.2872868   1.0534816   0.6573303  -0.3027578
   1.3197849  -0.7342392  -0.5774521  -0.2180714   0.0724639  -0.0513520
  -0.1573205   0.1697576   0.6582479  -0.7935563  -0.1686174   1.8404068
  -0.2726296   0.0760738   0.1408992  -0.8456787   0.7290017   0.4492561
   0.1665479  -0.5831215   0.7467127   0.2164272  -0.2054204  -0.3430314
  -1.4307750  -0.3879183  -0.7943273  -0.2838707  -0.7212447   0.5833127
   0.0642760  -0.1111003  -0.0398158  -0.2948105   0.9483777  -0.1973144
  -0.3234856   0.5703931  -0.5453304  -0.0821941   0.2366985  -0.0370053
  -1.0194044  -1.0187995  -0.1974403   1.4362578  -0.6878536  -0.7214995
  -0.1619840  -0.2315940  -0.1353291   0.0302179   0.3077118  -0.7616593
  -0.7182680  -0.8359859  -0.5239594  -0.0432548   0.1743867  -0.1112504
  -0.5761414   0.1612913   0.5510999  -0.8380829   0.6749581  -0.7543741
   0.0724220  -0.0361978  -0.0743706  -1.0784797   0.7152509   1.5013067
  -0.2566217  -0.9818000   0.8110222  -0.1126880  -0.0044099  -0.0516343
   0.5388379   1.0060366   0.0337086  -1.2063150  -0.3437962   0.2598888
   0.0217553   0.0050925   0.1601398  -0.7102373  -0.6476298  -0.5283411
  -0.4532134  -1.0694349   0.3892556   0.1548672   0.1786383   0.3755092
  -0.5350804  -1.2012407   0.1769753  -0.5413167   1.5570669  -0.9446350
   0.0372637   0.1944269  -0.1980554  -0.0408789   0.1860197   1.3945885
   0.3511334   1.6364094  -2.1085117  -0.2010856   0.1977731  -0.2052927
   0.3242417  -1.1074893  -0.0174273  -0.8803396   0.4738187  -0.8166906
  -0.0311233   0.1020121  -0.1146143  -0.1674148   1.9549814   0.4140861
   0.1365869   0.9836015  -0.5799682   0.1646297   0.0855682   0.2425047
  -0.4944222   1.5929980   0.0018302   0.2581971   0.3870109  -0.2954357
  -0.0663447  -0.2647614   0.0896660   0.2348159   1.0334786   0.2801312
  -1.2537328  -0.2391853  -0.6004131  -0.0058211  -0.2228694   0.0522419
  -0.3252421   0.0894151   0.7550835  -0.4312897   0.0164376   0.2084795
  -0.1452526  -0.0475002   0.2882250  -0.3409145  -1.1672301  -0.6440924
   0.1753370  -0.1676098  -1.3421184   0.2060951  -0.2151015   0.1238049
  -0.5522016   0.2399837  -0.0720840   0.5098336   0.6595868  -1.2632347
  -0.0444645   0.0329039   0.0142726  -0.2158409  -0.1278787   0.3202615
  -0.2805645   1.5545798  -0.2713141   0.1100903  -0.1438392  -0.1195121
   0.3815174  -0.2533957  -0.2415993   2.0524685   0.1603993   0.1687189
  -0.2574479   0.1099846   0.3101829   0.5128903  -0.0158547  -0.0851316
  -0.6691012  -0.3298302  -0.4170777  -0.1181500   0.1703418  -0.0841573
   0.8707417   0.2118594  -0.2840744   0.9021990   0.9657167  -0.1805188
  -0.0323662  -0.0597901  -0.0398685   0.0293493   0.5014266   0.7276097
   0.4347070  -1.0375437   2.0661578  -0.4100199   0.2027071  -0.2732751
  -0.6993328   0.8445472  -0.2867202   0.6813369  -1.0620090  -0.2836920
  -0.2048090   0.1590055   0.2928717   0.3219689  -0.1173114   0.3959878
   0.0333580  -2.1256527   1.7239389   0.0082421   0.2329172  -0.0613909
  -0.7007353  -1.8087171   0.4659388  -1.5272300   1.3223648  -0.6931298
   0.2333820   0.0552119   0.3432217   0.1398378  -0.3275503   0.7380345
  -0.0011881   0.9930648   0.9393131  -0.0305940  -0.0791576  -0.0860730
  -0.0696022  -0.9326470  -0.5513781  -0.2801064  -0.2690632  -0.2197982
  -0.0721712  -0.0541216  -0.1489438  -0.6638640   0.3494395   0.3467959
  -1.1204545   1.2323056  -0.8179189   0.2770747   0.0382283   0.0656579
   0.7455519   0.4810253   1.5217751   0.9419582   0.3194096  -0.0025741
   0.1319120   0.2453081   0.2051958  -0.5576538   0.2240677   0.7989818
  -1.4564909   0.9991299  -0.0875079   0.1204837  -0.1711456   0.3221040
   1.3019625   0.6015222   1.2367479  -0.8351615  -0.2437488  -0.4648112
  -0.6591403   0.2966441   0.2111846   0.3330384  -0.3210695  -0.2417858
  -0.1875762  -0.2876410  -1.5120396   0.0021137   0.1472074  -0.1328791
  -0.1304335   1.1215056   1.2687843  -0.2308065   0.1107962  -0.6509544
  -0.1890965   0.3972542  -0.2970280   0.6265661   0.4593355   0.5956138
  -1.2124854  -0.2660321  -0.9714072   0.0122358   0.4109921  -0.0781362
   0.9627306  -0.3516211  -0.3658804   0.2564593  -0.1980629   0.7580166
   0.0162434  -0.2979425   0.0498256  -1.2838982   0.2590252   0.1605373
  -0.4317143   0.8213208  -0.2348613  -0.1068242   0.1534442  -0.2111783
   0.8524672  -0.8228495   0.2177709  -0.0114254  -0.4998437  -0.2956715
   0.2697436   0.0882164   0.0180731   1.6130714  -0.0811229   0.4458384
  -0.0587838  -0.1325696  -0.0314674  -0.1188181   0.3402529   0.1658660
   1.1526654  -1.3761218   0.6497375   0.4258362  -0.6376360  -0.2799543
   0.8377356   0.5051950   0.1640507  -0.3285416  -1.9113282  -1.2499772
   0.9841304   1.6463545  -0.6424497   0.4428860   0.4293715   0.0674833
   0.6843206   0.2480246   0.4713461   0.1131513   0.6567915   0.7638900
   0.0367838   0.2206544   0.0070777  -0.4772916   0.0018540  -0.3170466
  -0.1093419   0.3358924   1.1041964   0.0040042  -0.0271686   0.0104881
   0.0591234   0.1944736   0.9081062   0.8329413   0.5723046  -0.0964601
   0.3041213   0.1257293   0.0705214   0.7102509  -0.1274393  -1.2984548
  -0.8329261   0.2734469  -0.1715381   0.2797060  -0.2131028   0.1568482
   0.4958055  -0.3236819   0.8917389  -1.4280271   0.8234720   0.2418988
   0.1488672  -0.0037810  -0.0043327  -0.7644026  -0.6326409   0.5045024
   0.1048495   0.6121457   0.7824955   0.2602183  -0.2395188   0.0299985
  -0.0743320  -0.7169717  -0.2595345  -0.9380831  -0.1408508   1.4832271
  -0.2343674   0.1212208   0.1448136   1.1042650   0.5346816  -0.9508093
  -0.8074015   0.1420441   0.0581616  -0.0929338  -0.3330727   0.0135316
   0.1637949   0.9203758  -0.7313258  -0.4987500   0.3025027  -1.0192187
  -0.0372433  -0.3464907  -0.0774105   0.0818912   0.3338864  -0.2611577
   1.2887902  -0.2270553  -1.4127410  -0.0534454  -0.2483292   0.2593060
   0.0178649   0.5345670   0.5115561  -1.2080066  -0.7383731  -0.6081934
   0.0493693  -0.0255846  -0.2322642   0.1837973   0.2707626  -0.8657323
   0.8063983   0.5621711  -1.6229784   0.1634804   0.3340496  -0.2936249
  -1.2799363  -0.9043661   1.5266392  -1.1272840   1.0012572   1.4333270
  -0.0517025  -0.2615714   0.0224426  -0.5372568   0.2703746  -1.4780681
  -0.1505004   0.9946791   0.3285172   0.1067650  -0.3411132  -0.1186376
   1.3347180  -0.4667462   0.1804627   0.6305737   0.7078351  -0.8086257
  -0.1722998   0.0840731  -0.0883455   0.4458468   0.5108554   0.6377133
   0.6837002  -0.7773227   0.2515742   0.1217187  -0.0861055   0.0139429
   0.0960318  -0.9585515  -1.6222385   0.2521462   0.5351957  -0.4913943
   0.1544039  -0.1556377  -0.2314653   0.3242779  -0.9756701   0.4607438
  -0.6492520  -0.0105649   0.3245370  -0.4487007   0.1209261  -0.3080374
  -0.6073312  -0.0062474   1.1451645  -0.3929884   0.3741977  -0.0505947
   0.1020527  -0.2567682  -0.1463335   1.5529815  -1.3354849  -0.1787266
  -0.1109150  -0.2713304  -0.0926791   0.4910661  -0.0566726  -0.0006574
  -0.3264065   0.7529189   0.4453330  -0.1625615   0.2673544   0.4025201
   0.1008983   0.1560609   0.4084070  -0.9549208   0.8644539   0.0591704
   0.2999157  -0.1074937  -0.9123662   0.0251637   0.1009104   0.1140882
  -0.4165011   0.5370038   0.2995999   0.6558058   2.2682724  -1.6981822
  -0.0269912   0.1340607  -0.0624301  -0.1776822  -0.2557579   0.1251184
   0.9850778   0.1084003   1.4979186  -0.3504641   0.0544555  -0.0260801
  -1.3189110  -1.3056742   0.2139874  -0.5415344   0.3840495   0.6914135
  -0.1685019   0.3115982  -0.1396129  -0.0134588   0.2878346   0.5300370
   0.6049157  -0.8100281   1.0799394  -0.0295851   0.1672165  -0.0768196
   0.0492374  -0.8289810  -0.3773677   0.2587577   0.1926765  -0.2078938
   0.2662243   0.1883058   0.1372807   0.4187317  -0.7155382   0.7032961
  -0.0748408   0.3563689  -0.6019809  -0.2725350   0.0724475  -0.2273895
   0.4016696  -1.8037481   1.2643642  -0.6228231  -0.5578721  -0.2992381
   0.0315971   0.1567690   0.0592550   0.4566664  -0.8511938   0.4676357
   0.4576998   0.6989602   0.3969366  -0.1185369   0.0042406   0.1985809
  -0.2423386  -1.4258654  -0.9050109  -0.6205846  -1.0704566   0.6939756
  -0.2641791   0.0251781  -0.0457113  -0.2040806   1.2765515   0.5176817
   0.2583112   0.0307791   0.1963083  -0.2946721  -0.3062672  -0.3055016
   0.8085944  -0.1830689   0.1779857   1.1256260  -0.1490489   0.1518839
   0.1104453   0.1864830  -0.0858397   0.5285996   0.8399839  -0.6741654
  -0.1795131  -0.6558889  -0.5181080  -0.2103066  -0.1620784  -0.0398744
   0.0370244   0.4555900  -0.8992075   0.7225462  -0.3641488   0.0507775
   0.1432670   0.1034696   0.2033549   0.2446019   0.1001571   0.2126308
  -0.2745308  -1.0365895  -1.2739096   0.0848870  -0.0211156   0.2541845
  -0.0413111  -0.7561534   0.8343250  -0.4722772   0.9968931  -2.3022129
  -0.3724577  -0.0470760   0.0927210   0.3373861   0.6143756   0.8269877
  -0.7793716   0.5090796  -0.0226316   0.3016807   0.0403746  -0.0973149
   0.1804022   0.1122804  -0.9251980  -0.3528240   0.0164278  -1.1502169
  -0.0571239  -0.0237176  -0.0454000   0.0310585  -0.9280451  -0.4588509
   0.3027732  -0.8461602  -0.7875382   0.3047144  -0.0601588   0.1373879
   0.8210612  -1.0426468   0.2554616   2.0984573  -0.0873494  -0.9092401
   0.2671756   0.0871060   0.0996401  -0.3133970  -0.9327387  -0.5323622
   0.1744358  -1.6903394  -0.4989436   0.2522674   0.1908600   0.0121056
  -0.2304304   1.1478745  -1.0562063   0.7125620   0.4675317  -0.5002798
  -0.2179644  -0.0729905   0.0546632  -0.2111589   0.2211723  -0.3173829
  -0.2908787   0.5546169  -1.3732005   0.0662663   0.1486037  -0.0630054
   0.8441412   0.3532326   1.2277508  -0.5295217   0.5261749   0.2592422
  -0.1727803   0.0684991  -0.0204556  -0.3950823   0.5220762   0.1916342
  -0.0470059   0.0295851  -1.1928084   0.2215112   0.1556699  -0.1197757
   0.6414112  -0.7184103   0.7027056  -0.6404550   0.5164987  -0.1934430
  -0.0601415   0.0078383  -0.0654973  -0.7982310   0.0119395  -0.6734784
   0.1928125   0.3690925  -0.6546371  -0.1443591   0.0195600   0.1225977
   0.3437601  -0.3536315  -0.2649315   0.0331550   1.2942623  -0.2128259
  -0.2279831   0.1856122  -0.1022440  -1.2106367  -0.7748203  -0.6792980
   0.4802518  -1.1844320  -0.4441765  -0.2415676  -0.2154618   0.2486739
  -0.2632144  -0.2778630   0.2050370  -1.1356126  -0.9806374   0.6701908
   0.0368783  -0.1131538   0.0437494  -0.6641558  -0.4328477   1.0063183
   1.2742920  -1.0285592  -0.2615969   0.0066609   0.0638675  -0.2162185
  -0.4147078  -0.5170119   0.6674340   1.2906027   0.1345361  -0.3128224
   0.0556798   0.1129157  -0.1142325  -0.2496102   1.0365120  -1.2337526
  -0.2642164   0.3039824   1.1392586  -0.0747633  -0.1649129   0.2746915
  -2.0021192   1.1914268   0.0781561  -0.3543045   0.7326213  -1.9218050
   0.0231814   0.0389182   0.3919784  -0.7069325   0.2484123   0.8986438
  -0.2670928  -0.1442501   0.3284863  -0.0104593  -0.3235995  -0.1633736
  -1.0228727   0.2574534   1.0240901   1.2899830  -0.3919815   0.1473390
  -0.1275786   0.0546381   0.4749960   0.1470060  -0.5834639  -0.1270302
   0.1118300   0.1920140   0.5194744   0.1370901  -0.1541411   0.1918844
   0.1470851   0.0708437  -2.2623471   0.1064420   0.0544284  -0.0746994
   0.5305737   0.0083971   0.2942143   0.0917652   0.3262625   0.6243416
   0.6590116   0.0202489  -0.1037134  -0.0594029   0.0033065  -0.3055880
  -0.6276240   0.8860923   0.1586685   0.0408708  -0.5116551  -0.6432138
  -0.0944480  -0.4571020  -0.3868493  -0.5960663  -0.0087429   0.7747048
   0.2325247   0.5078118  -0.5774220  -0.1995684  -0.0085639  -0.1501946
   0.0277640  -0.6101623   0.5459979   0.5881018   0.7076146  -0.0643547
   0.1545561  -0.2420624  -0.0297029  -0.5451810  -1.4100927   0.1962905
  -0.0530760  -0.0749386   0.1342794   0.0720387   0.2912749  -0.4231834
  -0.0475833   0.1836626   0.3190926   0.1431203   0.3545801   1.1038710
   0.1298685  -0.0164226  -0.2766383   0.4583359  -0.2627267   0.9799856
   0.4433435   0.6516719  -0.0018583   0.2169627   0.0958038  -0.1034045
   0.1584878   1.6126880   0.0010905  -0.2403126  -0.1518358   0.2418878
  -0.3757911  -0.3775061  -0.0956642  -1.0280043  -0.1688879  -0.2970113
  -1.1794185   0.4932930   2.1453484   0.2735661   0.1155012  -0.0798341
  -0.6816768   0.6547243   1.0713421  -0.3639572   0.1607618  -0.7036143
  -0.0178150   0.1754753   0.1398542  -1.9336566  -0.3101811   0.6877835
  -0.1448910   0.3178650   0.6521684   0.3069545  -0.0118201   0.3839917
  -0.0196992   0.0659577  -1.0227091   0.9021196  -0.2223037   0.0310476
   0.1475502  -0.2956134   0.2833887  -1.2275493   1.4708514   0.2485593
  -0.3447725   0.2583168  -0.0255561   0.3051138  -0.2577672  -0.1611452
   0.7896928  -0.1155205   0.4004715   0.0047060   1.6527474  -2.2818254
   0.0047309   0.1159515   0.0462649  -0.9509466   0.5374982  -0.2769261
  -0.6501856  -0.7344129   0.5542025  -0.2249028   0.0842208   0.2002477
  -1.1729113  -1.0958784  -0.2288104   1.3225502   0.9010608   0.5942009
  -0.0415254   0.0309249   0.2969199  -0.5617414  -0.1358765  -0.3551089
   0.2143512   2.0138632   0.9283877  -0.0292753  -0.1482691   0.2157028
   1.7066673   0.1369660  -1.1171029   0.2025598   0.3866702   0.6518512
   0.1800536  -0.0046975   0.1650948   0.9732840  -0.4002810   1.5312015
  -0.7068258   0.0906492  -0.4880593  -0.2163725  -0.0553579  -0.0638525
  -1.1800057  -0.4880823   0.0424779   0.1426360   0.3506235  -0.5358549
   0.0195497   0.0518948   0.1306743  -0.0400590  -0.1333374   0.9411513
   1.0034184  -1.0693646  -0.9739189   0.1507954   0.0913358  -0.1120192
  -1.4957447   0.8291211   0.3509695  -0.3900297  -1.5150411  -0.1392189
  -0.1871283  -0.2925807  -0.2347710   0.3913886  -0.9339694   0.6353202
   0.3425447  -0.7894884  -0.6089977  -0.1016675  -0.1074591   0.0479010
  -0.1516732  -0.6141768   0.3499844  -1.4800872   1.0312460  -0.9207049
   0.2778908  -0.0699828  -0.0241049  -0.0204509   0.0395990  -1.4015662
   0.4838505   1.5327645  -0.2670394   0.2695255  -0.1578147  -0.1655017
   0.0580962   0.1618333   1.6139753  -0.0702459  -0.1547417  -1.7178947
   0.0276781  -0.0110272   0.1218905  -0.7140180   0.1299959   1.1112734
   1.5615036  -0.1368832  -0.4609851  -0.2394662   0.3862707  -0.4740156
  -0.7280427  -0.5055930   0.5163050  -0.3327039   0.6227861  -0.8887911
   0.1431009  -0.0206371   0.1571903  -0.0104049  -0.5510116  -0.2045810
  -0.5427249  -0.4806069   1.7446801   0.0573882   0.1667354  -0.0724748
  -1.3950460  -0.2804505   0.9874615   0.5567076   0.0456958  -0.6710198
  -0.0455541  -0.3388460   0.1279256   0.0651291   1.5014739   0.1329515
   1.3097505  -1.1975336   1.5218103  -0.4454916  -0.1002414  -0.2012696
  -0.4513270   1.2402682   1.1688163   1.2082761   0.0980871   0.9563800
   0.1532058   0.2198716  -0.2220090  -1.0745802   0.0965235  -0.5129166
   0.0047292   0.6914613   0.2095447   0.0297374   0.1792051  -0.0983770
  -0.4904106   0.7488667  -0.8004093   1.3451900   0.9009588  -1.0858511
   0.1653894  -0.2605748   0.0250675  -0.0994138  -0.2919107  -0.0122566
   0.4938980  -0.2302036   1.7254791  -0.1398492   0.3743688   0.0385894
   0.2663464   1.2770750  -1.5062073   0.4692689   0.7989058  -0.4920055
   0.0830911   0.2757227   0.1304901  -0.4768524  -1.0499203   0.5706707
   1.6737497   0.0203879   0.2569259  -0.2607408   0.1688481  -0.2758046
  -0.2033269  -0.8678396   0.4635255  -1.2319200  -0.5261342   0.1355379
   0.0253055   0.1273121  -0.0310979  -0.2480944   0.1832524   1.1049196
   1.9952147   0.8773600   1.7521462   0.2123808   0.0779376  -0.1077432
  -0.4482211   0.4906657   0.2625753  -1.1691595  -0.1916071  -0.3689972
   0.0136261   0.0965368   0.2563411   0.5526518   0.1308469  -0.8767329
   0.1674201   1.1186908   0.1733745  -0.0026803   0.1827477   0.1259372
   0.0970402  -0.6363166  -0.3145205  -0.3653577   0.3156948  -1.6093481
   0.1336351   0.0148649  -0.2127432  -1.6364905   1.2773459   0.3569901
   0.0871342  -0.0985751   0.0197260   0.1511252   0.3667278   0.2260489
  -0.6658019  -0.0877786   0.4763228   0.5579289   0.2447891  -0.1681664
   0.2324188  -0.0509121  -0.0342233  -0.1840054  -1.8402934   0.1294913
  -0.0038096   0.9266866  -0.3148222  -0.0003240  -0.1391681  -0.1579932
   0.0842157  -1.1534434  -0.9330091  -0.2750215   0.4932505  -0.1510441
  -0.1293545   0.0284068   0.3257627   0.4956049   0.7512525  -0.0103863
   0.2461590  -0.4488193   0.4458337   0.0565545  -0.0149237  -0.1606873
  -0.5927898   0.2502576   0.4684023  -1.0945204   0.5794651   0.2246259
  -0.0242600   0.4748485   0.4331925  -0.1180164  -0.3505074  -0.1445307
  -0.5184663  -1.0585577  -1.3055003  -0.2909316  -0.3128832   0.1280437
  -0.9566301   1.3520878   0.1137408  -0.6297985   0.9083662   0.8617418
  -0.5826263  -0.2476045   0.1820681   0.3589219  -0.4616568  -0.6245367
  -0.5142132  -0.8610225   0.2438279   0.1839833   0.3847491  -0.1643551
  -0.3565454   0.9122122  -0.7723055  -0.2067080  -0.8013455   0.5857009
   0.0763263   0.2946222   0.0174893   2.1074457   1.1967433  -0.6605447
   0.3458062   0.8243372   1.2417205   0.0185943   0.0716289   0.1289125
   0.2399724   0.0785458  -0.3578535   0.6505075  -1.1179260   0.5555521
   0.2806623   0.0242552  -0.3438353   0.4275251   1.2984517  -0.5711175
   0.1369513  -0.3063507  -0.0566683   0.1960457  -0.2273031   0.1323404
   0.1223999   0.4070755   0.8992693  -2.3204532   0.4535949   0.9380620
  -0.2067075   0.1300650   0.1761553   0.6323847  -0.5743155   0.1018101
   0.0652739   0.2977499   1.0077354  -0.1118784   0.1074919  -0.2301693
  -1.6354926   0.5985988  -0.8774540   0.6320680  -0.0227028   0.2657054
  -0.0262395   0.4704524  -0.3356903  -0.2996574   0.5339017   0.2008793
  -0.6115934   0.7114692   0.5682195  -0.1158335   0.0194295   0.0711190
   0.8662592  -0.1968622  -0.9651424  -0.5288449   0.5040516   0.3682298
  -0.2195703   0.0928641  -0.1342609   0.5631198   0.6148337  -0.7228174
   0.0714621   0.4129257  -0.7537590   0.1022474   0.0313437  -0.1509770
  -0.2961151  -0.2648852   0.9608462  -1.2275462  -0.2403244  -0.0697159
   0.3528283  -0.0042168  -0.1119699  -0.4580037  -0.0973272  -1.5060662
  -1.7357072  -0.6575969   0.0299524  -0.4569469   0.3590829   0.2245909
   0.2567766  -1.6058815  -0.3152395  -0.6252240   1.6384612  -0.7867637
  -0.1353123  -0.0195283   0.1530638  -0.6130329  -0.1200524   0.9090915
  -0.8644423   0.4876924   1.7584278  -0.1712655   0.3921321   0.2593422
  -0.1617271   0.2178435  -1.2885989   1.5042284  -1.2434535   0.3026588
   0.0377079   0.1888879  -0.2501673  -0.6895468   1.6769196  -0.1777986
  -0.0410203   0.2555645   0.3330752   0.2015387  -0.0241574  -0.0201940
   1.6643695   0.7731265   1.1249144   0.2513414  -0.0018657   0.5532817
   0.2729846  -0.0515427  -0.2243974   0.4830745  -1.5062936   0.1280452
   0.7647991   0.8269279   1.7304562   0.1646758   0.0482301  -0.2613266
  -0.0249238  -1.0373239  -0.0989607  -0.4361008   0.1002356  -1.2645797
  -0.3281913  -0.1086877   0.0424674  -2.0297888   0.8162839   0.3405605
  -0.1410127  -0.4268944  -0.2669995   0.0724204  -0.1552893  -0.2075789
   0.8547647  -1.2740310  -0.6481975  -1.2611205  -0.4050528   1.2673417
  -0.0197239  -0.0054443   0.1674493   1.0881891  -2.3505984   0.1004658
  -0.0563659  -0.2836948   0.5526773  -0.3588527  -0.0884234   0.1401219
   1.1799117  -0.3796154  -0.9875245  -0.5503514  -0.2934940  -0.8055746
   0.2524930   0.1838169   0.1589508  -0.0158869   0.8753719   0.7977557
   0.2926754   0.5248009   0.4425322   0.1196330   0.2655809  -0.0043843
  -0.2712708  -1.5972097  -0.9871218  -0.9098536  -0.6850196  -0.4081130
  -0.2184790  -0.1784630  -0.4116866  -0.3889149   1.0310326  -1.7124638
  -0.2047192   0.4213001  -0.4304079   0.0130480   0.3173077  -0.2550608
  -1.5711611  -0.7298996   0.4276384   0.4074724   1.5274116  -1.3585535
  -0.2066935  -0.2430779   0.0615154   0.5420124  -1.7401895   1.4657997
  -0.1312771   0.4221360   0.3125564   0.3438569  -0.1064416  -0.0032271
  -0.0221264  -0.1454002  -0.8105972   0.8725282  -0.6365428   0.4136793
   0.0748950  -0.0089966  -0.1953934   0.2422282  -0.4281543   0.3439693
   0.8712976  -0.4614770  -0.8687231   0.0655606   0.1452507  -0.0355714
   0.0553532   0.1689596   0.4348064  -1.8098406  -0.8845566   0.6606157
  -0.0986171   0.1216950   0.0916544  -0.2850282  -0.6069535  -1.4037100
   0.4416136  -1.3296457   1.5705787   0.1907256  -0.0983226   0.4937336
   0.0043068   0.0230002  -0.4239811  -0.0268190  -1.1667760  -0.5509866
  -0.0267848  -0.2308983  -0.2426884  -1.0361198  -0.8896490  -0.3380818
   0.7581059   1.4051605   0.3279224  -0.0727050   0.0149213  -0.0638717
   0.2579250  -0.2543975   0.0488906   0.3855284  -1.0526892  -0.3926610
  -0.1080806   0.0437752   0.3031621   0.7030718  -0.3954358   0.5859623
  -0.7035704  -0.7776483  -0.7828605   0.2962101  -0.0631967   0.1115077
   0.0830111   0.1907366   1.8516383   0.3327133   0.8360627   0.0222723
  -0.0496451  -0.1571279   0.0661334  -0.5561458  -1.6395527  -0.4074990
  -0.2497753   0.0144689   1.2368831   0.2145377  -0.1614018   0.1093906
   2.2514441  -0.5221475   0.4502124   1.0934097  -0.0554251   0.7224339
   0.0377797   0.1183897   0.0420829   0.5993044  -0.3162046  -0.9337064
   1.4198690   0.7965979  -0.4663828   0.1785133   0.0099945   0.1639115
  -0.3623725   0.5624984   0.2707951  -0.1468817   0.5829539  -0.1459446
  -0.0620733  -0.0232717  -0.1765610   0.5185138   0.0526935  -0.7539610
   1.3193995   0.1961176   0.6002910   0.0671003   0.6677490  -0.0343931
  -0.4586889  -0.9711256  -0.7082421  -0.0170444   0.1339689   0.6901561
   0.0939309  -0.0833261   0.0026764  -0.0780591  -0.1147800  -0.4164726
  -0.3742650   0.4291283   0.2161509  -0.3346497  -0.0438109   0.0356422
  -0.3094542  -0.5750313  -0.1666460  -1.7820067   0.1006481  -0.0514618
   0.2907333  -0.2831917   0.0844207   0.1242844   0.8447057   1.3581300
  -0.4355842  -0.0457295   0.3842152   0.6855661  -0.2352436   0.2411676
  -0.1135101  -0.2593917  -0.5749632  -0.6023381  -1.6174632  -0.4191734
   0.0874843   0.1728664   0.1224368   0.5503829   0.7915820  -1.6203480
  -0.5367842   0.4691753   0.8901223  -0.1839755  -0.1996631  -0.4469124
  -0.7859974   0.8586470  -0.5369654  -1.1416187  -0.3686975  -1.0178636
  -0.0745825  -0.4958195  -0.1934483   0.1218173   1.1741322  -0.4394755
   0.0475816   0.8464683  -0.3194734  -0.0445689   0.0433726  -0.1588759
  -0.4714733  -1.7837014   0.4358203  -0.8580902  -0.3470968   1.0628957
   0.0125982  -0.2730601   0.2856720  -0.1775682  -0.3659941  -0.2364495
   0.4619098   0.2413035   0.3703347   0.0246194  -0.1199494   0.0277807
  -0.7017903  -1.9895667   0.3196852   1.4691825  -0.0541825  -0.4436279
  -0.0615051  -0.4351003  -0.1544611   0.3853651  -1.1210762   0.4839958
   0.4138709  -0.3538131   0.5296581   0.1550703   0.2785471  -0.1220113
   0.9274435  -0.2886479  -0.3835090   0.5648596   1.0879292  -0.1267836
  -0.2463389  -0.0259203   0.0579803   1.2977400  -0.2204283   0.6323547
   1.3124827  -1.8081258  -0.3792409  -0.2162589   0.2173321   0.2396834
  -0.1630911   0.9835493  -1.0065991   0.5579441  -0.6348783   0.6051858
   0.0611308  -0.5306888   0.2707088   0.2993258  -0.0379470  -1.4910543
  -0.2516151   0.1413711   0.1333933  -0.1480629   0.1705540  -0.0773707
   1.7790454  -0.0408024   0.0682761   0.1052062   0.6653165  -1.7121117
  -0.1183622   0.0286719   0.3654139  -0.3738454  -0.3103434   1.1896652
   0.3086553  -0.1640345  -1.8580079  -0.0295172   0.0154573   0.1210492
   0.7298317  -1.6833789  -0.1426423   1.0264480  -0.4982918  -0.3932713
   0.2097343  -0.1678275   0.2089610  -0.2065931  -0.1202859   1.3511008
   0.3250535   0.3439646   1.0511586  -0.1442858   0.1047250   0.0480748
   0.0589771   0.0570629   0.2278471   0.4657080   0.2400717  -0.1363348
   0.3098175  -0.0190708   0.3645998   0.1635692  -0.6890436   0.0198840
  -0.8677995  -0.3835576  -0.2632548   0.0382235   0.2120788   0.1217377
  -0.3424858   0.3356151   0.6859045   0.7237251  -0.4035367   0.8029920
   0.2077320   0.2629363   0.1241209   0.9532011   1.4703526   0.2606513
  -0.3112136   1.0460902   0.0246827  -0.2175848   0.0089725  -0.0999475
  -0.6450572  -0.9691251   0.2023278   0.1311743  -0.7648099  -0.9631441
  -0.1864131  -0.1748141  -0.1640364  -0.8938564  -0.1687398  -0.9401882
   0.5242715  -0.1260144   0.2720488  -0.0704174  -0.3706513   0.1491344
   1.9037605  -0.9335651  -0.5813277   0.7999669  -0.6168628  -0.6215660
   0.0096022   0.1422338  -0.0928767  -0.0791796   0.9324164  -0.1088553
  -0.0834063  -0.9608250  -0.0320166  -0.0484695   0.0171935  -0.2612744
  -0.5592193  -0.1258230   1.3732620   0.1720117  -0.2129434   1.2987074
   0.3406045   0.0946625  -0.0383952  -0.7929285   0.3155016   0.0480150
   0.8482567   0.2670476  -0.0061421   0.0645859   0.1688892   0.0973312
  -0.0692604   1.0350283   0.3815344  -0.9917656   0.1718986   0.7906697
  -0.3902487   0.1814944  -0.1019797  -1.4487437  -1.8212691   0.3525674
  -0.6730683  -0.3118139  -0.1918615   0.2389328  -0.1772910  -0.0040295
   0.8746809  -0.1275122   0.2521573   0.0119811   0.5895366  -0.7959291
  -0.3283323   0.3987387   0.2327023  -0.8818322   0.0895780   0.1853684
   1.7470028  -0.4771401   0.7493498   0.0228408  -0.4884889  -0.0050051
   0.7772481   0.2062784   0.1524354   0.2605257  -1.6703107   1.6275416
   0.2013631  -0.3297772   0.3599887  -0.1896802   1.2120901  -0.9002866
   0.2957782  -0.1570247   0.5828623  -0.1064779   0.2837298   0.1610738
  -0.2767789   0.3766033   0.4361510  -0.4120217  -0.4004214  -0.2309347
   0.0146627   0.2022362  -0.0638602  -1.1534594  -0.1409709  -0.6149184
  -1.1712270   0.4538518  -0.8772531   0.1381375  -0.4182280   0.0332194
   0.6260684   0.1026349   1.6861667   0.1279582  -0.3640907  -0.6634601
  -0.1045409  -0.2291579  -0.2190483   0.7215784   0.4048663   1.4502967
  -1.1949919  -0.1056771   0.5631960   0.0255817  -0.2856850   0.1579668
  -0.1776714  -1.1909574  -1.5619243  -0.0647655  -0.5415937  -1.1111700
  -0.3692221  -0.0887388   0.0159646  -0.9772558   0.1073357   0.9955569
  -1.1349538  -0.7527502  -0.4349313  -0.3659509   0.0484248  -0.2020351
  -0.6094850  -0.0794954  -0.8795921  -0.3940561   0.5352642  -0.5895886
   0.0590909   0.0787318  -0.2023072  -0.4537471   0.8827428   0.9359173
   0.5721168   0.6496875   0.5587031  -0.2665895  -0.3692097  -0.1443002
   1.0684839   0.1443535  -0.0057008   1.8554623   0.3699736   0.4174368
  -0.0302804  -0.2242624  -0.1089610  -0.6054265   0.3354660   0.4199494
  -1.3890769  -0.1376970  -0.0832271  -0.3307997   0.1657131  -0.0138580
  -0.0748756  -1.1364889  -0.3350832  -1.0898413   1.1578075  -0.2193238
   0.1753371   0.0413068   0.1050012  -0.6519197  -0.0439647   0.5538329
  -0.8915968  -0.4295129   1.0955551  -0.2322242   0.1645439  -0.0366923
  -0.2598143   0.4219745  -0.1418380  -0.9669155  -0.8923587  -0.1889188
  -0.0579692  -0.0020580  -0.1344036  -0.2243266  -1.2107062  -0.5231063
   0.7752010   1.4915004  -0.4245620  -0.1162278   0.1008809  -0.4369076
  -0.7049623  -0.6579143   1.3452273  -0.3249744   1.0964523   0.6206154
   0.0920821   0.3642015  -0.1103085  -1.6366406   0.8376711   0.4807742
  -1.4232124   0.8009399  -0.6416986  -0.1494111   0.0000122   0.2552695
  -0.6586485   0.8759565   0.2779224  -0.3978127  -0.8452086  -0.8944989
   0.1237012  -0.1770150  -0.2142132   1.1552218   1.1231336   0.6059534
   0.1312144  -1.1335463  -0.2361892   0.2148991   0.1229105  -0.0449289
   0.2234714  -0.1317456  -0.6244082  -1.1812014  -0.4827797  -0.3675561
   0.3922097   0.1791328   0.1483334   0.2437540   0.2731684  -0.4083278
  -0.1396229  -0.3231885   0.9921849  -0.1071562  -0.0320862  -0.1532478
   0.5461615  -0.6028647   0.1927944   0.0210837  -1.0132008   1.7850932
  -0.0008489   0.3420536   0.1909804   0.3490751  -1.1936059   1.5797437
   0.1760891   0.3932241   0.2124902   0.0116403  -0.1688079  -0.1252570
   0.6137430  -0.3445215   0.3500018   0.0484570   0.3795366  -0.1448744
   0.0108649  -0.3441583  -0.3559260   1.1410070  -0.0196041   0.5546972
   0.9400099   0.0088735  -0.1701408  -0.3637831   0.0549582   0.1853958
   1.0945673  -0.6111849   0.4386700   0.5854830  -0.5284041   0.2771394
  -0.1083868  -0.4266634  -0.0218958   1.4360356  -0.4436749  -0.7237224
  -1.1301043  -1.0804493  -1.4063118  -0.2929735  -0.1377765   0.2048827
   0.1883459   1.8301825   0.9243858   0.6646797   1.4215200  -0.6976524
  -0.2088035  -0.1882192   0.2362486  -0.3628852   0.2345327  -0.8338136
   0.0074244  -1.4461448  -0.5225068  -0.1128885  -0.0587857  -0.1609174
  -0.8078339   0.1414276   1.2632507   0.2389565  -0.0577394   1.2319801
  -0.3797393   0.4791943  -0.0833327   0.1913085   1.7865395  -0.7331906
   1.0623804   0.2768679  -0.3810366   0.0349699  -0.0157206  -0.1964264
  -1.4264006  -0.5940087   1.0288733   1.4544549  -0.4414990  -0.0602812
  -0.1785606  -0.1450315   0.2278199  -0.1503783  -0.1109961  -1.1856574
   0.4957599  -0.1434427  -0.2263436  -0.0935043  -0.0185810   0.2408416
   0.6697565  -0.9330753  -0.4461253   1.1887291   0.8490437  -0.3630772
  -0.0993335  -0.3019113  -0.1976262  -0.2724925  -0.5179770   0.6485581
   0.1133045   1.9562292  -1.0802861  -0.1513341  -0.0837075   0.3554350
   0.4324975  -0.0204827  -0.2009538   0.0873317  -0.7874940  -0.5232920
  -0.0594938  -0.0485498   0.3655994   0.5546157   0.2452340  -0.2893627
   0.2257107   1.2585725   0.5686797   0.3056394  -0.3293011  -0.0075305
  -0.3763788  -0.3253093   1.7761807   0.2091281  -0.1896600  -0.2142542
   0.1557429  -0.0812770  -0.1175970   0.4943658  -0.8929733   0.1685621
  -0.2017826  -0.2055171   0.0261605   0.1071623   0.2438210   0.1290620
   0.8904111  -0.7174507   1.0564760  -0.0956717  -0.9865265  -0.5165581
  -0.0190216  -0.1854099   0.2348509  -1.1160910   1.2789745  -0.7902611
  -1.3887893  -1.8148744   0.0287748  -0.2274452   0.0872687   0.5584894
  -0.4199566   2.0807516  -0.1676334   0.4747042   0.4423770  -0.4854816
   0.0050593  -0.1855786  -0.0563282   0.2275355   0.4004485   0.4491644
   1.8691752  -0.8060822  -0.1953187  -0.2028693  -0.0841627  -0.0905192
  -1.0105143  -0.2312447  -0.7338510  -0.6396544  -0.0009340  -0.2350717
   0.1556379  -0.1716459   0.1672967  -1.3840783   0.1997488   0.8066038
   1.7897754  -0.3487134   1.8970525  -0.3619577  -0.0566430  -0.2321488
   0.1884524  -1.1031204  -0.8854475  -1.3760373  -0.4561068   0.3706474
   0.0654597  -0.1052338  -0.3022347   0.1062209   0.1597505  -0.9465506
  -0.0078827   1.2737354   0.2497031  -0.2297767  -0.1146095   0.0304125
  -0.2566280   0.3135010   0.5173862  -0.9851575   0.8447285   0.0537651
   0.2775502   0.1000622   0.2400049  -0.7407629   0.1364723  -0.5930738
  -0.4876386   0.7528588  -0.2295037  -0.2336310  -0.2712489  -0.4061978
   0.8884507  -1.6401769  -0.0143963   0.8204690   0.1592803   0.1125042
   0.1607108   0.2974734  -0.2586239  -1.3943376  -0.0428041  -0.3868798
   1.3638400  -0.4408249   0.9252250  -0.0889651  -0.2424382  -0.2488772
  -0.7128175   0.2000736   0.3475187   0.3091526   0.5864387   0.0478959
  -0.0476690  -0.1371033   0.0297727   0.8199223   0.2136842   0.4490712
   0.4685205  -0.3930254  -0.4656666  -0.1050945   0.1006031   0.0096158
   0.9078261   0.7667940   0.3174785  -0.1749318   0.0048148  -0.8256998
  -0.2572705  -0.0216750  -0.2339613  -0.3673395   0.9790861   0.1337549
  -0.3501523  -0.0817245   1.0593783  -0.0031589  -0.0056011  -0.1563969
   1.6668762  -1.0332456  -0.0415538  -0.1872238   1.0251842   0.2940279
   0.2515516   0.3383803  -0.1207513  -0.0336071  -0.4133810   0.0082783
   0.4363802  -0.5283712  -0.2333130  -0.0520081  -0.0765482  -0.1557389
   0.9183452  -0.0796812  -0.8282818   0.5485132  -1.5379867  -0.6842708
  -0.2858785   0.0437477  -0.1868016  -1.0102633  -1.6235969  -0.0989371
   0.8545076  -0.8857605   0.9753488  -0.0391901   0.0724647   0.1094570
   0.9091310  -0.1741361   0.2518881  -0.7376172   0.5105596  -0.2540341
   0.0824539  -0.0435457   0.0861295  -0.2146191  -0.6927922   0.0515378
  -0.0147088   0.4224051  -0.9430499  -0.3409380  -0.0025966  -0.0366841
   1.0905060   1.1131099   0.6687060   0.1842671   0.1942845  -1.2442240
   0.4157050  -0.1373832  -0.0716445   0.5189694  -0.5273717   2.2798155
  -0.7475995  -0.1834233   0.5329445   0.5682311   0.0031805  -0.5081147
   0.7916667   0.1573291   0.2977797  -0.5622653   0.6546937   0.4588007
   0.0858486  -0.0953941  -0.1809404  -1.0109592  -1.0852617   1.0333487
  -0.5009326   0.6302701   0.8052637  -0.2061379   0.0016193   0.2919646
  -0.4560861   0.2291222   0.0217757  -0.7940228   0.1393699   1.2143278
   0.0475684   0.0268265  -0.1276683   0.4904970  -0.1569365  -0.9909117
   0.3831841  -0.0099357  -0.4728184   0.1589693  -0.1018620  -0.0516820
   0.0464109   0.6161734  -0.4498520   0.4923328   1.8217598   0.0032346
  -0.0497964   0.1314562  -0.1728120   1.5282876  -0.6871427   1.0794394
  -1.0965075  -1.4186026   0.1823700   0.0333713   0.0007575  -0.0452942
  -0.1352714  -2.0430763   0.1748789  -0.7862107   0.2938367   0.0868637
   0.2841204  -0.0753334  -0.0013200   0.7226839   0.1138280   0.7173066
  -0.3343684   0.1564702  -0.8077265  -0.0079033  -0.1036221   0.1671630
   1.2488229  -0.5038707  -0.6293343  -0.4178597  -0.0185586   0.6443120
  -0.0793751   0.0178268  -0.1169775  -1.0864249   0.5889413  -1.4235079
  -0.5658110   1.1408034   0.8366251  -0.0037188   0.1507284  -0.1228868
  -0.4878851   0.5638506   0.2607630  -0.4274290  -0.2119753  -1.0172390
  -0.0338091   0.1248530   0.2383775   0.0671333   0.3080807  -0.2826182
   0.3048836  -1.3683205   0.0428401   0.0910741   0.1230031   0.3395664
  -1.0789099   0.1679087  -0.3832125   0.7351059  -0.6893003  -0.4717198
  -0.4663267   0.0043643  -0.2941572   1.3335153  -0.4091969   0.1343735
   0.0873041  -1.4820713   0.1370735   0.1369555  -0.0309244  -0.0984071
  -0.5879160  -1.0815155   0.2580843   0.1819522   1.9466028  -0.0905322
  -0.2095024   0.0194250   0.4131685  -0.2435292   0.4051188  -1.4426591
   2.0615169  -0.3115439   1.1303486   0.3515266   0.0660649  -0.0017224
   0.4405463   1.1185295   0.3116720  -0.5015550  -0.9858607  -0.4226953
   0.1154503   0.0109632   0.1735954   1.9749886   0.9033358  -0.5076735
   0.4449707   0.3734641  -0.7823458  -0.0791011  -0.0490665  -0.1077196
   0.7826135   0.7980535   0.1237609   0.3730972  -0.0357309   0.6746789
   0.0740854   0.1185993  -0.0103767   0.5595552  -1.1179929  -0.4266632
   1.6551903   0.1135451   1.2487975  -0.0196756   0.2738827  -0.0993413
   0.2003330   0.6933064   0.8385088   0.1180201   0.4350988   0.1897261
  -0.0878191   0.3835629  -0.1310330  -0.7978772  -0.6821859   0.4123440
   0.3185902   0.2986550   1.2108687  -0.0498975  -0.2817382  -0.0578229
  -0.0254682   1.2204738   0.9697923   0.3797680   0.3272754   0.0496872
   0.1907442  -0.1534796   0.1216749   0.0320104  -0.1502659  -0.8916330
   0.3286956   0.5066542  -0.6521900  -0.1377145   0.0075809   0.0793485
   1.2626146  -0.9002917   0.2914889   0.8428929  -0.1134804   0.5168479
   0.2441181  -0.3105700   0.0428953   0.2781084   1.4388036  -0.3956640
   1.4988012  -1.3292787  -0.5353181  -0.0181288  -0.3377343  -0.1023290
   0.0718852  -0.5144150   0.0370316  -0.2785461   0.9962444  -0.0503309
  -0.1761871  -0.1559690  -0.1067349   0.7693820  -1.8412335   0.1515551
  -0.7692513   0.2647551   0.0972356   0.0419688   0.0128543  -0.0443875
   0.7584788  -0.1366147   1.3925371  -1.3350241   0.6425062  -1.6749780
  -0.0523051   0.1475065   0.0139154  -0.9012713   0.2335541  -0.6532649
  -0.2347567  -1.0004538  -0.2030347   0.4213535   0.0672696   0.2899453
  -0.9078300  -0.2667370  -0.5516029  -0.1426108   0.3946448  -0.9959719
   0.0510722   0.0614482   0.1753546  -2.0721425  -0.8350442   0.0971213
  -1.2345731  -0.0233667  -0.1019174   0.2589420   0.2235267   0.0543249
   0.3737532   0.2874499   0.5366997   0.5866192  -0.1596979  -1.3014945
   0.0337056  -0.2592620  -0.1157662   0.4576648  -0.5634709   0.1771746
   0.1533983  -1.6017953  -0.4408508  -0.0783550  -0.0861610   0.1968305
   0.1543302  -1.0072341  -0.9667759  -0.2887252   1.2337058   0.0420411
   0.2995417  -0.1564353   0.0002922  -0.4147759   0.6476569  -0.8821829
  -0.0586913   0.0613929   1.0316078   0.3622702   0.1037674   0.3403142
  -1.7865904  -0.6925412  -0.8659938   0.9373921  -0.4953438  -0.8791354
   0.2564558  -0.1719403   0.0153589  -1.2843928  -0.3435982   0.2749904
  -0.8382898  -0.7752144   0.6290094  -0.0804654   0.0278551  -0.1355794
  -0.5774787   0.6986574  -0.2894328  -0.4193416   0.0452742   1.7090898
  -0.0843973  -0.2382020  -0.0128416   0.0045296   0.8323106  -0.8822474
   0.0230212   0.1819693   0.0624937  -0.0173343   0.0861709  -0.4910172
  -0.4229564  -0.1728769  -0.3453088  -0.2945568   0.8702901  -1.4063344
   0.2450711   0.1937737  -0.1081862  -0.0919845  -0.1024282  -0.0369090
   1.7156290  -0.3405374   0.6553397  -0.3398064   0.2173950   0.1973078
   0.4383515   1.0593880   0.8564669  -0.0922102  -0.1670086   0.6302846
  -0.2655955   0.1243558   0.2833886  -0.9239338   1.0125304   0.1938802
   0.9043914   0.7060348  -0.5127554  -0.1620696  -0.0127699  -0.1454903
  -0.7310808  -0.5283330   0.6770230   0.2932691   0.7074646  -0.7252741
   0.4859555   0.3038223  -0.1736030   1.0846871  -0.6636211  -0.1432788
   1.0480462  -0.3335383  -0.7214299  -0.0467151   0.0607656  -0.2143900
   0.5153832   0.3909656  -0.3604422   0.5767520  -0.3561065  -0.0186158
  -0.1156494  -0.0522860   0.0168947  -1.9896211   0.4005197  -0.2726131
   1.4713159  -0.2877716  -0.5201507  -0.1049837  -0.1742086   0.0437432
   1.8857288  -1.0109479  -0.5993650   1.2352656  -0.0031581  -1.0467612
  -0.3389433   0.2712530   0.2900942  -0.1562188   0.4034048   0.9197802
   0.2601925  -0.2736526  -0.5928921  -0.0861770   0.0223406   0.2336949
   0.6310475   0.4826832  -0.6964447  -0.2939181  -0.6639442  -0.4786300
  -0.0870290  -0.2412339   0.0332941   1.0814041   0.2687329  -0.1697009
   0.0044635   1.0236972  -0.4459551   0.2339558   0.1525025   0.2161516
   0.4272517   1.2661793   1.2248280  -0.1392943  -0.3164499  -0.4311206
   0.1696081  -0.1505473  -0.2018654   0.7748012   0.4975700  -0.5725608
  -0.8087826  -0.8018792   0.4204767  -0.0870448  -0.2011814   0.2984394
  -0.8736112   0.5751650  -1.6223329  -0.6926915   0.2260345   0.2555845
   0.1716112  -0.0171673  -0.1125427  -0.2460855   0.7720950   0.2939569
   1.0077624  -0.1125000   1.1134337  -0.0054740  -0.1330094   0.0412776
   0.3577402   1.0656596  -0.1649306   0.5982824  -0.5311047  -0.1965769
   0.2572388   0.2793263  -0.1543413  -1.7042641  -1.1631096   1.1816763
   0.8380322  -1.7753745   0.7496838   0.2769321   0.0168595  -0.0142425
  -0.2568171   0.3702938   0.0944780   0.2958285  -1.0734836  -0.3388317
  -0.1611730  -0.2255988  -0.3191877  -1.1069804  -0.1782802   0.4164486
   1.2075634   0.2381619  -0.9995881   0.3421904  -0.0072593   0.1532369
  -0.0629052  -1.1658129  -0.5281652  -1.9331837   0.1246723  -1.3315101
   0.2013785  -0.2362417   0.1141534  -0.3668410   0.8532459   0.3152533
   0.2968568  -1.2936767  -1.4291738   0.2271284  -0.4560266   0.0742788
   0.2704304   0.6022121   0.3915257   0.9482132   1.0002919  -0.7644127
  -0.2236655   0.1370591   0.0163111   0.3933951   0.0342242   0.2980321
  -0.2955382  -1.1286961   0.1442838  -0.1362109  -0.2880126   0.2692347
   0.0655052  -0.5743603  -0.2693683   0.2813872   0.1061542  -0.0660416
   0.5803419  -0.0167071  -0.0644799   1.3377081  -1.4760452  -1.0694282
  -0.0923631   0.5095139  -0.1804898   0.2722032  -0.0369359   0.1449657
  -0.1167807   0.3286982  -1.6024882  -0.3991350   0.4090699  -1.2306877
   0.1241540   0.1024560   0.1919219  -0.2559277  -0.4652654   0.7809466
  -0.7167075  -0.2652638   0.2384739   0.0245353  -0.1189328   0.0189249
   0.1943992   0.3878234  -0.8818989  -0.0358371  -1.6058822   1.9605838
   0.2118579   0.0378632  -0.1287919   1.3576126  -0.1364664  -0.1721251
  -0.2421081  -0.4780453  -0.2513843   0.3279080   0.3045524  -0.0230805
  -1.0544458  -0.6977443   0.3415289  -0.2299479   0.6474922   0.5433707
   0.0206027   0.0508453   0.1372457  -1.1438504   1.8178271  -0.3133966
  -1.2014033  -0.4660331  -0.6357432  -0.0063639   0.1546295   0.0538360
  -0.2510447  -0.4194034  -0.3992352   0.1459459   0.5354632   0.2752351
   0.1878823  -0.1478429  -0.2232749   0.3295328   0.5656090  -0.0015181
  -0.5532755   1.1903210  -0.8908636   0.1992405  -0.0033799   0.0623732
  -0.2393403  -0.8521489  -0.9157056   0.5143338   0.1788019  -1.0793166
   0.2234253  -0.1889914   0.1931810   0.1280385  -1.3075776  -1.1565236
   0.4414126  -1.2370877  -1.0777258   0.0825683  -0.0160244  -0.1352186
   1.3299475  -0.5723296   0.1884469  -0.0416168  -0.7816773  -1.1743693
   0.1679319   0.0039866  -0.1492595  -0.3748289  -0.5210180  -1.6160053
  -0.1638378  -0.4203792   0.2070341   0.3408867  -0.2794141   0.4273424
   0.1603086  -0.8998473   0.0450155   0.4490022   0.3969567  -1.5135647
   0.0219866  -0.3022890  -0.1914365  -1.0195086   1.0213095   0.1926290
  -0.6334158   0.1387393   1.2178306   0.2668841   0.0488859   0.1707218
  -0.1728208   0.6331964  -0.3836768   1.5368788   0.6228771   0.7358125
  -0.2535306  -0.2971862   0.1820393   0.9714920  -0.3608425   0.4786828
  -0.6234194  -0.6578494  -1.6790262   0.1398452  -0.2902258   0.0001544
  -0.3845371   0.2253031  -0.1233689   0.6919193  -0.5681124   0.1210524
  -0.0337903  -0.0109829  -0.0979441  -1.4220603   0.3813505   0.0202971
  -0.2674978  -0.1336964  -0.6576667   0.0274834  -0.0038846  -0.0416675
  -1.6625037  -0.9597041   0.3292878  -0.2928124   1.4735205   0.1742422
  -0.0449321  -0.1250560   0.1529515  -0.4108991  -1.2241845   0.2307773
   0.0174274  -0.3502005  -0.4157152   0.1584958   0.0055223   0.0061853
   0.8655089   1.6840381  -0.4227645   0.3749247  -0.8687764  -0.4317810
  -0.0661204   0.2617125  -0.0256433  -0.5574298  -1.6930119  -0.4596313
   0.4376107   1.2695224   0.7778467  -0.1729926   0.2555445   0.1319019
  -0.7776750  -0.3255799  -0.2912589   0.4077902   0.4471919   0.6314616
   0.0770936  -0.0263580   0.0324949   0.2342800   1.2747590   0.4352619
   1.0105136   1.3133211  -0.2831078   0.3522776   0.1538602   0.6155067
   0.0524139   0.1222751   0.7557068   0.7951271   0.4299916   0.8893225
   0.1860349   0.2116226  -0.1778114   0.1960709  -0.4433090   1.1236769
  -0.2188626   0.7729490  -0.0864305  -0.3061183  -0.2557069  -0.1277237
  -0.0193619  -0.3852971   0.2910818  -0.0144301   0.1941726  -0.6578247
  -0.1056032  -0.3362106   0.1210383  -0.3781722  -0.7911097  -0.9700954
   1.0024195  -1.0701383  -1.2923642  -0.1131659  -0.0380395   0.0255161
  -1.0302075   0.4159972   0.9000087  -0.1044880  -0.3212302   0.0974453
  -0.2452012   0.1536872   0.0182538   1.3995613   0.7750465   0.1511505
   0.3840866  -0.7274059   0.6322868  -0.1456372  -0.1242747   0.0755142
  -0.3502909   0.4218660   1.3178291  -0.6208115   1.2483364  -0.1995813
   0.0470526  -0.0222175   0.0896065   0.3307842  -0.5287922   0.1263295
  -0.1301072   0.1523624  -0.3255015  -0.1736778  -0.1291956   0.1298452
   1.3166348  -1.3033607   1.9367338   1.0972646   0.5302729   0.6027761
  -0.2829220  -0.0278587   0.1088859   0.0021083  -1.7217453   0.0356722
  -0.3553740   0.2973141   1.2703518  -0.3661855  -0.2713864   0.4123218
   0.2801954  -0.6551484   0.6303758   1.0489554  -0.9547340  -0.9923297
   0.1450597   0.2932247   0.2748632   0.5943967  -0.4292205   0.4277747
   0.6531362  -1.1271300  -0.8898579   0.3682099   0.2294432  -0.0805013
  -0.6476168   0.2475021  -0.8265769  -1.8647265   0.2345596   1.5232736
   0.1928609  -0.0151215   0.0861842   0.0087251   0.3498817   0.0694088
   0.8120547  -1.0725043   0.7569492   0.1448547   0.3024693   0.1085754
  -0.3550378  -0.8330892  -0.4163569   0.5846278  -1.0234910  -0.9254420
   0.0245986  -0.2279389  -0.1314277   0.7261916   1.6369759  -0.8218073
   0.3346981   0.1560753   0.8593206  -0.1297734   0.0002369   0.4454324
  -0.4380510  -0.6945406  -1.4197914   0.0683159  -1.8315030   0.1754065
   0.0254347   0.0950073   0.4130884  -1.2965736   0.5907399   0.1361540
  -0.0546652   0.7295855  -0.8624081  -0.1474255  -0.0098006  -0.1700740
   1.2952052  -0.4348683   0.7258251   1.5921159   0.9493723  -1.0238545
   0.0768450  -0.0932635  -0.1194958   0.4870125  -0.7404559  -1.1911412
   1.5125610   1.2726564   1.4410714  -0.0143278  -0.0411324   0.2535380
  -0.6448679  -0.6426456   0.8167474  -0.9542001  -0.6630779   0.6013201
  -0.3999526   0.1901540   0.0571036   0.4764759  -0.0623090  -1.2823974
  -1.1130607  -0.8746751  -0.5973134  -0.2944223  -0.0210686   0.2397297
  -0.9134495  -1.2766130   0.8921407  -0.7046190  -0.3221756  -0.1931886
   0.3730359   0.0045265  -0.1009415   0.3259559  -0.5028986  -0.7815589
  -0.6115267  -0.5409032  -0.4742729  -0.1629914   0.5686746   0.2103318
  -0.3205176   1.8473248  -0.1834641  -1.0884126   0.7728167   0.1967151
   0.1722127  -0.0276684  -0.2874539  -1.8179683  -0.7953992  -0.2159427
   0.5913494   1.1618903   0.0926357   0.1311565   0.1273133  -0.2295814
   0.6123690   0.5021662  -0.7570902  -0.9808886   0.4192954   0.1516833
  -0.0528528  -0.0707292   0.3640923  -0.2669849   0.1554663   0.1447788
  -0.1373141  -0.5023546   0.0444770  -0.3586942   0.0499161   0.3144492
  -0.4690024  -0.4052531  -0.4883729  -0.2117937  -1.5593616  -0.3139559
  -0.1102518   0.4308734   0.1260746   0.6392086   0.4249367   0.7045270
   0.2043811   0.0385283  -0.3147661   0.1024982   0.3795605   0.0299138
   0.3669265   0.4533699   1.1953745   0.4864799  -1.4922598  -0.5738997
  -0.0524621  -0.0251003   0.4279755   0.8367402   1.0205896  -0.6123372
   1.1026564   0.1301889  -0.7740550   0.0474851   0.4143143  -0.2034431
   0.4889885  -0.9735325  -0.2219557   1.1915653  -0.4188929  -0.1013164
   0.0682823  -0.0057019  -0.3292341   0.9928175   1.1152114   0.3376693
  -0.0865359  -0.7685025  -0.1279750  -0.3198326  -0.0295967  -0.0514010
   0.1084292  -0.0694197  -1.6329106  -0.9521059   0.3119959   0.3748583
  -0.0262120   0.0371341   0.3648043   0.6747765   0.9681775   1.0559330
  -0.3461407  -1.5431582   1.3920344   0.0059703   0.0976803  -0.2896661
  -0.1558848   0.6237287  -0.2190212  -1.2276618   0.9495494  -0.2488221
   0.1161582   0.0633068  -0.2932264   0.7124679  -1.1676815  -1.2874312
  -0.9929808   0.6124059  -0.1448445  -0.2252194  -0.1329333   0.0043358
   1.2495441   0.6819320   1.4611630   0.1648278   0.3183639   0.8156659
   0.0898019  -0.1322836  -0.1355857   0.8646984  -0.3292983   0.0191552
   0.6610356  -0.7580998  -0.2264116   0.1155277  -0.5345591  -0.2440775
  -0.1539738  -0.0772902   0.4503946  -0.2763567  -0.1436618  -0.1973006
   0.0372435   0.2317772   0.1744124  -0.5527711   0.7167156  -0.5534911
   0.4545220  -0.6463405   0.7162280   0.2382843  -0.3117278   0.1816637
   0.3863701  -0.0024667  -0.2007567  -0.0399293   0.5512662   0.9877817
  -0.1960711  -0.2852236  -0.0333531   0.8677979  -0.4017459   0.0959775
  -1.3550439   1.7980681   0.8904881   0.1039556   0.0229504   0.0590225
   0.4616448   0.1826603   0.6427768   0.9579619   0.3841943  -0.6022413
  -0.2881118  -0.2621286  -0.2395656   0.5086214   0.8695442   0.3295637
   0.0248449  -0.1511485  -0.3059283   0.1208573  -0.1441897  -0.0868978
  -0.1638300   0.3347294  -0.5245785   0.2484688   1.1792497  -0.1923561
  -0.2427341  -0.1202695  -0.4906414   0.5839013  -1.1935088   0.2847275
   0.9191038  -0.1109850  -0.5072972  -0.1953067  -0.1205054  -0.0051941
  -0.5557335  -0.0163452  -0.3100193  -0.0525801  -0.4020316   0.4416600
  -0.0928346   0.1993898  -0.5343010  -1.5773388  -0.1736526   1.1888562
   1.0839261   0.7002697  -0.4129057  -0.2172256  -0.0774680  -0.0663032
   0.7293163   0.1981405   0.0966551  -1.2818628  -0.2840533  -0.8510575
  -0.2122404  -0.0252962  -0.4173223  -1.2774146   0.1529243  -1.0440205
   1.5724583   0.7449945   0.5349361  -0.3481697  -0.2343479   0.1612393
  -0.6050925   0.3890291   0.4228043   1.4476056   1.5737691   0.6018148
   0.2003692  -0.3504841   0.0771788  -0.9537772   2.7101760   0.1364660
   0.2227294   0.8437653   0.0826061  -0.2037366  -0.0282963   0.1318141
   0.6410357  -2.2021597  -0.3874840  -1.0730339  -0.9815360   0.6361473
  -0.1924916   0.1107445   0.1927912  -0.0470615  -0.1005484   0.0608743
  -0.2201761  -0.8768653   0.3238832   0.3223067   0.3650231  -0.0074638
  -0.8842201   0.1074803   0.1217442  -0.0330234   0.1544029   1.0451025
   0.3712018   0.0359732  -0.2671623  -0.6714823   0.4362878  -0.0818490
   0.0769074  -0.0688650  -0.6881730   0.1852563   0.0444222   0.1212374
  -0.1429537   0.3404927   0.9227926  -0.8963706   0.3613744   0.2425449
   0.0367111   0.3422681   0.3054580   0.7457542  -0.6425974  -0.3836402
   0.7810815  -1.5612052  -0.9284765   0.3286620  -0.0862673   0.0244966
  -1.1593334  -0.5877530   0.6867278   1.4861323   1.3924713   1.3076471
   0.3069867   0.0147251  -0.3010595   0.9664092   0.4138294  -1.0945230
   1.5313916  -0.9956503   0.7052586   0.3623403  -0.0484840   0.0871238
   0.7581259  -0.3683097  -0.0297968  -0.3106765  -1.0625784   0.3274712
  -0.0441464   0.1587985   0.1689942  -0.9712588  -0.5929407   0.6096152
   0.4967733  -0.3581903  -0.4865589  -0.3230383   0.0982248   0.2283866
   0.4629235   0.4943834  -0.9672023   1.3008849  -0.2330254   0.8026068
   0.2150242   0.1822442  -0.1606674  -0.7303649  -0.7380271   0.7742346
   0.8197568   0.7245278  -0.4986071  -0.1013713   0.0758952  -0.4555243
  -1.0885919  -0.8024473  -0.0526727   1.9230989   0.6815593  -0.2216018
  -0.0132131   0.3475407   0.2004316  -0.2635703  -0.1905853   1.4340591
   1.6294867   0.5703819   1.0720702  -0.0312954  -0.2236292   0.3802914
  -0.2916105  -0.9961095  -1.4276020   1.1266502   1.4584791  -0.3054737
  -0.4365131  -0.3175483  -0.0025851   0.6752071  -1.3131794   1.1418510
  -0.5805824   0.9018255   0.6317245   0.0613752   0.1754100   0.7037753
  -0.5008849  -1.5986630   1.0247765   1.0456837   1.0225150   1.7219843
   0.1606455  -0.1801144   0.0604850   0.2832159  -0.5240054   1.2778932
   0.2525659   0.6251626  -0.9383064   0.0046166   0.0307174   0.1842400
   0.4029119   0.4116908   0.4859518   1.2470165  -1.1358387  -0.3284807
  -0.3401053   0.2272557   0.0148665   0.0203095   1.3336387  -0.7179258
  -0.3344264   0.7591654   0.0312840  -0.1783767  -0.1013328   0.1143047
  -1.0075176   0.2290830  -0.5792483   0.6295476  -0.2557716   0.2502702
  -0.0705364   0.2134279   0.4093714   0.5146723  -0.5971646  -0.3461484
   0.1675906  -1.4560201   0.3023600  -0.2604912   0.0682244  -0.1156533
  -0.4939077  -0.5146241   0.0786367   0.0354027   0.3091857  -1.0047930
   0.0539436  -0.1168807  -0.2026895   0.5201473   0.0441979  -0.1444998
   0.4716930  -0.3817348   0.4391190   0.1951145  -0.0654009  -0.0006243
   0.5002806   0.2920576  -0.9667684  -0.8331313  -0.0275647  -0.5504642
  -0.1755230  -0.3199244  -0.2496632  -0.0509114   0.0936882  -0.0166581
   0.0801152   0.5789266   0.8508902  -0.3603299  -0.5059233  -0.0652583
   0.8469518   1.4669823   1.0699491   0.0651114   0.5552114  -0.9386833
  -0.1388573  -0.1432229   0.0640974   0.1221792  -0.2687009   0.8430822
   0.2199945  -0.7111907  -0.7733651  -0.4031126  -0.0604490  -0.1576824
   0.8966518   0.5243593   0.7784889   0.1871511   0.6740442  -0.5815445
  -0.0591722  -0.2166288  -0.0778998  -0.7018648   0.7966038   0.1594058
  -0.2205794   0.0876247  -0.0790521   0.2537567  -0.4552163   0.0068874
   0.5928020  -0.9224719  -1.3683524  -1.0472268  -0.5759610   0.2545868
   0.0618136   0.1468076  -0.1429972   1.1822873   0.0653842   0.5709730
  -0.0625759  -0.0412465  -1.0178859   0.0749378   0.0876919  -0.3528206
  -0.1935444   0.0660997   0.1269511   0.5347346   0.4801135  -0.5830319
  -0.1607338  -0.1646344   0.0803889   0.5378031  -0.6006343  -0.8542082
  -0.2206570  -0.0640485  -1.4043814  -0.0236502   0.2405720   0.2855961
   0.1775084   0.9411195  -0.6634478   1.7788641  -0.0026409  -1.0067690
   0.2955281   0.1687975   0.0870288  -0.1521913   0.6182256   0.1493655
  -1.0708985   0.2981666   0.7564172  -0.1762505  -0.0429606  -0.1658849
  -0.8902606  -0.1814618  -0.5238753  -0.2583198   1.7021256   1.7607847
   0.2994692  -0.0480661   0.1687193  -1.8518149   0.6971826   1.5180789
  -0.1797581   0.0602916  -0.4149404   0.0748283  -0.0604938   0.2043381
   0.4685188   0.3760415   0.0501801  -0.5046666  -0.1262168   0.4797589
  -0.1822543   0.2674667  -0.0933804   0.1454252   0.1189342  -0.5264570
  -1.6020722  -0.0371160   0.5996922   0.0664626   0.1110405  -0.0625219
  -2.2032052   0.8624132  -0.2388088   0.8091607   0.1484045   1.1292628
  -0.0789910  -0.2603710  -0.0660035   0.1885767  -0.6716251   0.1498085
   0.4091088   1.0913402   0.5729478   0.0711992  -0.0369278  -0.0025862
  -0.2328276   0.5388322  -0.2366004  -0.2189321  -0.7498008  -0.6064428
  -0.0105292   0.0869892   0.2105991  -0.8421753  -1.5219517   0.2835009
   1.8912866   0.3917486  -0.2662326   0.0040952  -0.2930517  -0.0604582
   1.3500175  -0.1745098   0.5704466  -0.4096251  -0.1991364  -0.2924884
  -0.1064486   0.0082928   0.2590737  -0.1559743  -0.4841418  -0.9550625
  -0.4033456  -1.2237693  -0.7009083   0.1274871   0.2277947  -0.0836422
  -0.8285933  -0.8377166   0.7029823  -0.2953284   0.5580628  -0.2665535
   0.0277017  -0.0516614   0.2902354  -1.1567246  -0.3454386  -0.3205910
   0.2524336   1.5338687   0.6215674   0.0045877   0.1926828   0.0228210
   0.1908405   0.6329075   0.3877319   1.6041122  -1.0007735   2.1926495
  -0.0322044  -0.0669439   0.3722467   0.2343874  -0.3854066  -0.0134866
  -0.0358494  -0.6628305  -0.9264390   0.1092280  -0.0315678   0.0395699
  -0.5069250  -0.0789688   0.8264271   0.8008248  -0.1490393  -0.1357202
   0.3233375   0.1665304  -0.3923680   0.3950355   0.1507407   0.7653395
   0.6227881   1.7405322   0.9342035   0.0884128   0.0245320   0.0642563
  -0.3548776   0.9088466  -0.7828543  -0.0175480  -0.0535460  -0.2337452
  -0.2350532  -0.2564846   0.0077473  -0.3673675   0.8242274  -1.7152372
   0.8225877   0.0649097  -0.0808116   0.0249326   0.1257486  -0.0577584
   0.7179102   1.3772920  -0.0708944   0.4988450  -1.0356618  -2.4784040
   0.1836794   0.2213893   0.0634975  -0.8229596   0.2870017  -0.3090752
  -0.1636351   0.1430104   0.2798699  -0.2062924   0.0306596   0.1130675
   0.2499774   0.1949521  -0.0897410  -0.5873164   0.0770631   2.0464017
   0.0553673  -0.1106690   0.3161841  -1.5450936  -0.6691866   0.8482482
   0.3992010  -0.3584022   0.4044968  -0.2453579   0.1552258  -0.0118573
   0.6442268   0.9276534   1.2825498  -0.2596403  -0.5411128  -0.5511518
   0.3171175   0.0762079  -0.0863310   1.3966385   0.7578097   0.5715136
   0.0923602  -0.0534961  -0.3546343   0.1357023   0.0892204  -0.1225732
  -0.4163536  -0.1056497   0.8668713   1.0418725  -0.1438567   0.6571477
   0.0349347  -0.0948028  -0.1166084   1.1902018  -0.5811416   0.0152250
   0.2309981  -0.5662693   0.8390245   0.3724354  -0.2140569   0.0410980
  -0.7483922  -0.7435257  -0.5907337   0.7514431  -0.8348793  -0.1783872
  -0.1078337   0.0683362   0.0209930  -1.8761792   0.0892548  -0.2015896
   0.3531187   0.0789313  -0.2160537  -0.1520929  -0.0596013  -0.0791227
  -0.6688262   0.6115923  -0.9178304   1.1469445   0.5940006   0.2987292
  -0.0252751   0.0493550  -0.0078274   0.0863911  -1.3116277  -1.0180819
   1.4819230  -1.6019809   0.9359768  -0.1803891  -0.1604492   0.2237273
  -0.5081160   0.6020382   0.2988176  -1.1026218   0.1338589   0.2659019
  -0.4128369  -0.1243255   0.0054415  -1.7305029  -1.1413270   0.9407762
   0.0992184   0.3421121   1.4079330   0.1835046   0.1621290   0.0200896
  -0.3446727   0.0227357  -0.7530357  -0.0818297  -0.3305254   0.6152442
  -0.0541105   0.0491810  -0.2080813   1.4903755   0.7648365  -1.3635918
   0.3903081   0.7467069   0.9142508   0.5025758  -0.1259108  -0.1030433
  -0.3799481  -0.5077610  -0.4646322  -0.2955469   0.0913769  -0.2347573
  -0.1573862   0.2241160   0.1624307  -0.4536866   0.3664909  -1.3407986
   0.0310123  -0.2174691   0.3395711   0.2594850   0.0505838   0.0790731
   0.6608703  -0.2444030  -1.0376204   1.0302446   0.0407031   1.3903601
  -0.2015888   0.0187664   0.0934012   0.0728521   0.7024122  -0.1405931
   0.9749529   0.4662540  -0.3853845  -0.0093877  -0.0300438  -0.1344485
   0.4412308   0.1851812  -0.0808633   1.1683075   0.5462154   0.0025573
  -0.1719947   0.3464182  -0.1794733  -0.3595476   0.0671090   0.4652844
   0.0680858  -0.0717793  -0.0115841  -0.1734271  -0.0403835   0.1708137
  -0.1015385  -0.2737253   0.2561918  -0.2303618   1.6127735  -0.2156908
   0.3482533   0.2015385  -0.0797683   0.7220575   0.8012888  -0.3273957
   0.8344192  -0.2741791  -0.4998577   0.0381841   0.0131572   0.1765128
  -0.7693284   1.1364243   0.2178796   0.1127166  -1.2531821   0.4254823
   0.0387012   0.2047006   0.0012574  -0.5476208  -1.0467367   1.0047788
   1.0537172   0.9357698  -0.9370428  -0.3091307   0.1275518  -0.2875825
  -0.8036462   0.6250472  -0.2286235  -0.3705050   0.9272542   0.5485377
  -0.0209478  -0.2988340   0.0424966  -0.1349147   0.6494230  -1.4190710
   0.0519269   0.0326822   0.3295692   0.1310991   0.0328723  -0.3961531
   1.5940774   0.2757274   0.5330076   0.4549887  -0.1569959  -0.1065240
  -0.0244882  -0.1303222  -0.2421742  -0.6713852  -0.7450304   0.1001150
  -0.3648795  -0.7588974  -0.4766647   0.1711900  -0.2394483   0.2928664
   0.5338486   1.2041057  -0.7050066  -1.0847501   1.2013104  -0.8649020
  -0.0782285   0.1468193  -0.1075958  -0.5773820  -0.8882152  -1.2870986
   1.9073917   0.5704235  -0.9143122  -0.1085273  -0.0052021  -0.2060226
   0.5501274   0.1642493  -0.2705032  -0.0170971   0.2457756   0.0802746
   0.1383637   0.1466658  -0.2642143  -0.6128363   1.0424271  -0.9029461
   0.5866626   0.0314316   0.0370109  -0.2256790   0.0205733  -0.0365555
  -0.8656830   0.2977206   0.3613623   1.6819041   0.2771122   0.5240379
   0.3112437  -0.2137217   0.1526147   0.1606663   0.2798722   0.7561504
   0.1428784   0.3734109  -0.7283758  -0.1272073  -0.2044529   0.0003174
   0.1167573   0.9944539   0.2412045   0.2719462   0.4104831  -0.1268296
   0.1154925   0.0249317  -0.0202958   0.5509479   0.5442891  -0.0085253
   1.0021849  -1.1678732   1.3944642  -0.1984957  -0.0464842  -0.0753159
   0.7921752  -0.6355459   0.4937556  -1.2402705   0.7316722   0.4788920
   0.2051416  -0.3014109   0.0142266  -0.4448700  -1.2189995   0.9421425
   0.5152320   0.1640047  -0.6006103   0.1423105   0.0475817  -0.0939498
   0.1619800  -0.2722407  -1.0138758  -0.3699434   1.3331757   0.4194918
   0.0760394  -0.3255836  -0.1629516   0.7633032  -0.9760862  -0.1917823
   0.1488366  -0.2205357  -0.4966998   0.2913837  -0.4156406  -0.1280460
  -0.1523305   1.3747088  -1.3902037  -2.9818092  -0.9337362   0.2572346
  -0.3168915   0.0831242   0.0798578  -0.7816514   0.6269417   0.0203735
  -0.8825532  -1.2237850  -1.2620797  -0.0601356   0.4091706  -0.2998905
  -0.4167814   0.0218904   0.2731544   0.6546628   0.1907405  -0.5514130
  -0.1288209   0.0201279   0.1191934  -0.4835525  -0.8742109  -0.3118095
   0.6339528   0.5843796  -0.7921466   0.0227680  -0.0954290   0.0899825
   0.4292193   0.2521952   0.5988572  -1.6453713  -0.1959871   1.2449436
   0.2529255   0.3789820  -0.0479102   0.6376246   0.1541468   0.5703223
   2.1865953   0.1819170   0.1256175   0.0987646   0.1070424   0.5134189
   0.8292562   0.9962843   0.9521362   0.1878570  -0.2721817  -0.4312947
   0.2524831  -0.3052851  -0.1192789   0.1305300  -0.0973615   1.0101635
   1.1368550   0.4145522   0.4329770  -0.0374135  -0.3193400  -0.1357981
  -0.2110256   0.3023997   0.0959218   0.0267393   1.1276628  -0.3923449
  -0.1552751  -0.1221799   0.0244356  -0.3624267   0.4999019  -0.3574700
   0.3392001  -0.2520592   0.7231869   0.1064124   0.0426706   0.1396604
   0.2336336   1.8255592  -0.3884276  -0.8926609   0.7577202  -0.6875934
   0.1179011  -0.2790696  -0.3642679  -0.5815003  -0.0026667   0.7542891
  -0.4565223  -0.0431213   1.0774969   0.1810279  -0.3083558  -0.2004540
  -0.6949143  -0.2762987   0.3771368  -0.7385853   0.2921903  -0.4678625
   0.0395575   0.0615792  -0.0324533  -0.1091190   0.8508533   0.7594747
  -1.9540778  -0.9253829  -0.0124196   0.1371768  -0.0438314  -0.2895373
   0.0591435  -0.0631485   0.7283786  -2.1961065   0.7505992  -1.3549754
  -0.0996910  -0.0089984  -0.0911093  -1.0061792   0.9303882  -0.3607054
  -0.0500750  -0.4703841  -1.1400660   0.1194286   0.1134804  -0.0885796
   1.0913903   0.4443445  -0.1814597  -0.0849501  -0.8788140  -1.1285440
   0.0560280  -0.1256187  -0.2478410  -0.3244609  -0.9641501  -0.2838789
  -0.6203983   1.3999400  -0.4038670   0.2845954   0.3462725  -0.2776602
   0.6388131   0.0339653  -0.4778338   0.1592205  -0.0320806  -1.4973682
   0.1152005  -0.0368384   0.0764871   1.4266376  -0.1501300   0.1178888
   0.1946802   1.8690284  -0.3134408  -0.4582120   0.1526536  -0.1370494
  -0.2354035  -0.5815618   0.0001061  -0.2451838   0.6252800   1.4410996
  -0.0372271  -0.1314836  -0.0488683   0.7664783   0.5310763   0.9227298
   1.1086952   0.1087693   0.1970427  -0.0672558   0.2636092  -0.4320852
   0.9272836  -0.4830452   0.6198551  -0.3574249  -0.0340523  -1.8093827
  -0.2278331   0.0033020  -0.1140289  -0.4624222   0.8511492   1.6394454
   1.0092470   0.5391615  -0.8102375  -0.1830564  -0.1628382   0.0453695
  -1.6629378  -0.0154459  -1.4000201  -0.1584501   0.5251767   0.4952256
   0.0604260   0.0985833   0.0439396   0.6195040  -1.2306920  -0.4425574
   0.8473415   0.0443487  -1.4745664  -0.1125097  -0.1725938   0.0776375
  -0.5395474  -0.3905336  -0.9019149  -0.5474084   0.4364843   0.6521691
   0.0782516  -0.0736062  -0.0976806   0.5695751   0.7292479   0.0844357
  -1.2269879   1.0760681   0.1970535   0.1921447  -0.0798973   0.0122916
   2.8318258   0.8675369   0.6926185   1.4545284   1.5744651  -0.0934651
   0.0491306  -0.1165496   0.0766282   2.7619087   1.4653547  -1.2118026
   0.8753078   0.2519403  -1.0194091   0.0264504  -0.2043078  -0.2421996
  -1.9314691   0.7139070  -0.5205944   0.5411900   1.1220111  -0.4797603
  -0.2622353  -0.1493201   0.3714163   0.1532124  -0.9711728   0.5427942
  -0.9364464   0.5022057  -0.2310755  -0.2449486  -0.0186613   0.3039045
  -1.7799973  -0.0219028   0.9302574  -0.0806889  -0.0234446  -0.8367290
   0.0940289  -0.0788729  -0.0776923  -1.0628616  -0.4699502   0.6147917
   0.6364753  -0.6738208  -0.4790725   0.2378514  -0.1111859  -0.0635738
   0.6233657  -0.1514719  -0.3928580   0.3792722  -0.5204629   0.8503467
   0.0039262   0.3531919   0.1109867  -0.0910153   0.5100768  -0.4082229
   1.3424239   0.9359905   1.0403998   0.1734274   0.1405930  -0.0492057
   1.1100500   0.7865707  -0.0756037  -0.0820085  -0.0047607  -0.6657549
   0.1276100   0.2860896  -0.2504035   0.6624107  -1.5563423   0.0659037
   0.2388887   0.7998808  -0.0013250   0.1305833   0.3923931   0.0284123
   1.6387889   0.0256220  -0.2369458  -0.0895707  -1.5838183   1.4974117
   0.1506703   0.0298810   0.0670850   0.2960179  -1.5265079   1.1407232
   0.6714953   0.5707388   0.5637815  -0.0152642   0.1289725  -0.0717149
  -1.0691487   0.6781172   0.8052567  -0.4822617   0.3572365  -1.0239841
  -0.2141258  -0.2073660  -0.1303595   0.9885958  -0.7790321  -1.5189037
   0.1025398   0.0446864   0.8698991  -0.2804591  -0.3185317   0.0024151
  -0.5026559   0.5182011   0.6354493   1.1927252  -0.7061411   0.1693340
   0.1820322  -0.0535632   0.3017320   0.0848056   0.1369218   0.0678378
   0.6259724   0.5347238  -0.8444082  -0.0262191  -0.0704048  -0.1036925
  -0.4869803   0.2132311   0.1077372   1.0262630  -0.3262350  -0.3693003
   0.2805733  -0.0449687  -0.1477238   0.1387884   1.1133921  -0.7769050
   1.4045633  -0.1371361   0.0322225   0.0394409   0.1130002   0.2343246
   0.8310688   0.3856073  -1.0175408   0.2440747  -0.7077683   0.5669104
   0.1073558   0.3942348  -0.2993903  -0.0354346   0.1669105  -0.6859940
   1.6735657   0.2228064   0.3343445   0.6001338  -0.0593994  -0.3762538
  -0.4338443  -0.5402690   1.6697042  -0.4929325  -0.0760217   1.2682329
  -0.0108895   0.1951264   0.1565101  -0.3403083   0.3602358   0.1270444
  -0.5190944   0.4761673  -0.5182073   0.0750565   0.1175165   0.0029496
   0.0348618   1.1094825  -0.7444473   0.0145157  -0.2714493  -0.0705645
  -0.3479079   0.0067835   0.0814630   0.5531326  -0.3985531  -0.4622745
   0.3807766   0.9217520   0.5905074  -0.2726138  -0.3297009   0.3251184
   0.3272656   0.6431505  -0.6727077  -0.5436084   1.3011030   0.8342597
  -0.1025522  -0.0988337  -0.1714719  -0.0028372  -1.2342654   0.3481445
   0.1964014  -0.3165139   0.4159625  -0.1342712   0.0174834  -0.1950958
  -0.5956162  -0.0037463  -1.4721108   0.6461718   0.5373018   0.5016336
   0.2548078   0.0233528  -0.0737931  -0.6912991   0.8605446   0.3806909
  -0.1490706  -0.6972982  -0.0178752  -0.0044022  -0.0957056  -0.0698293
   0.8493902  -0.1032464   0.2777784  -0.8108398  -1.5215319  -0.3470599
   0.2640336   0.3542198   0.0294445   0.5183377   0.6829719   1.0400738
   1.0754965   0.4105277  -0.9926481  -0.1667032  -0.1456212   0.0349316
  -1.0388649   0.3238286   1.1801923  -0.8906937  -0.7119842   1.4611524
   0.1071605   0.2371323  -0.2596847   0.8049627   0.7783133   0.1101546
  -0.4859548  -0.6502459   0.0598570  -0.0906972   0.1174092   0.1043424
   0.7321086   0.7194785  -0.7470833   0.8634589   0.3810821   1.2628728
  -0.0918212   0.1635104   0.2773067   0.7085396   0.2435304   0.0084228
  -0.3928418  -0.9022028  -0.7146424  -0.0113485   0.1337977   0.0851730
  -0.4812155  -1.5072387   0.4446263  -1.1243746  -0.0090440  -0.1376567
  -0.5038118   0.1879098  -0.1006616   0.5809271   0.3144534   0.6126062
   0.6360926  -0.2641057   0.2196230  -0.2039530   0.1035303  -0.1501542
   0.3365244  -0.4616297  -0.1756486  -1.1663868   0.7259407   0.2906373
   0.1047431   0.2072872   0.2386154  -0.0729846  -0.6423033  -0.7703556
   0.0341548  -0.9403799  -0.4168167   0.0769292  -0.0218305   0.1294765
   0.8325859  -0.9596291   0.9706080   0.1063139   0.6713677   0.4615587
   0.0296309  -0.1434980  -0.2201203  -0.6701863   0.4013575   0.9131144
   0.4926126  -0.9993741  -0.0777195  -0.0781407  -0.1338045  -0.1486542
   0.2043827  -0.6604301  -0.3033613   0.4818355  -0.5474767   0.4053225
  -0.0646333  -0.2033862   0.2584758   1.5737861  -0.9593929  -0.3988626
   0.1606949  -0.9058507   0.0788799  -0.2281323   0.2879392  -0.2193440
   0.6341472  -0.5020979  -0.0839434   0.4302622  -1.2133895   0.7068653
  -0.4494889  -0.0743683   0.0312197   0.3469123   0.6761338  -0.2190378
  -0.2388861   0.3467747   0.3846785  -0.0517931  -0.1251830   0.1671339
  -0.3387992   0.0830778   0.0544567  -0.0596487   0.2921448  -1.3285579
   0.2186925  -0.0676634  -0.1312163   0.8697963   1.7237673  -1.1423435
   0.1504108   0.8509226   0.8050406   0.0283223   0.1479290   0.0902933
  -0.8169441  -0.0128685   0.7365304   0.9990456   0.3355559  -0.1426288
   0.1633516   0.3132796   0.3533327  -0.1337106  -0.1911978  -0.5525458
   0.3071184  -1.0819001  -0.3727652  -0.1533203   0.1662347   0.0143418
   0.0281187   0.9568929  -1.3391150   0.1486437   0.4410925  -0.9298385
  -0.0342129  -0.0275103   0.1473551  -0.4185504  -0.4293181   2.0354283
   1.2871224   0.0188497  -0.9232198  -0.1525243  -0.0899515  -0.2702411
   0.1156813   0.6630250   0.7160440  -0.7943455   0.8419557  -0.1473521
  -0.1494825  -0.2468344  -0.1763520   0.0107342   0.0556508   1.6179767
  -0.6094378  -0.3120401   0.0210916  -0.0095797  -0.0425239   0.1968926
  -0.6439400   0.4042181  -0.9856503  -0.1378061   0.7653634  -0.9792616
  -0.1440394   0.2870712  -0.0253092  -0.8853909   1.5159305   0.1259342
  -0.4921618  -1.5322965   0.0126491  -0.1091745   0.3018366  -0.2517046
  -0.1137859  -0.4946335  -0.4386923   1.3104954   0.7853680  -0.7927530
  -0.1289664  -0.2094829  -0.3413265  -0.6217766  -1.1749777  -0.4564236
   0.3388577   0.9614382   0.0658471  -0.0319953  -0.1228922  -0.0512783
  -0.4311823  -1.0142491  -0.7872992  -0.0841399   0.9054376   1.1266598
   0.1043914  -0.1212357  -0.1679178  -0.2978406   0.1042432   0.6379264
   0.7466151  -1.3259064   0.9506394  -0.2595597   0.1228556  -0.2900655
  -0.5651350  -0.0458028   1.8091283   0.0540603  -0.0754522   0.0824972
   0.2260083   0.0290559   0.0847446   0.5216888  -0.3740530  -0.0420449
  -0.5008291  -0.8306014  -1.3521245   0.2497579  -0.0394235   0.0027273
   0.2189002  -0.5092907   0.5059265  -1.5944044  -0.4285094  -0.1242380
  -0.1189128  -0.1319459   0.0941727   1.1513861   0.0311906   1.6203470
   0.4979312  -0.9426469   0.0668611  -0.0617416  -0.1642385   0.2772262
   0.4695638   0.4550701  -1.1361496   0.4173130  -0.3012862   0.8668681
   0.1771283   0.0538618   0.1050590  -0.0952757   1.3292056  -0.9382227
  -0.3045686   0.8184777   0.2454460  -0.0509904   0.1582945  -0.4307847
  -1.4966028  -0.2008026   0.2319191   0.2083416  -0.3923386  -0.3394350
   0.0018561   0.2524320   0.3569067  -0.1027700   0.8618869  -0.0208868
   0.8288207   1.1445683  -0.1380259   0.2217226   0.0319815   0.2273275
   0.9986503  -0.6838023   0.4483097   0.5794725   0.1521239  -0.8037867
  -0.0633132   0.0203061  -0.3727552   0.4231850   0.1488269   0.3697402
  -1.5042056   1.1480556  -0.6165293   0.1093206   0.2752703   0.3149830
   1.5524830   0.7285182   0.8208696   0.2956391   0.6417990  -0.1657754
  -0.3290526   0.0244323   0.1026821   0.9169575   1.1905477  -0.7102031
  -0.3944165  -0.2564226  -0.2016763  -0.0856480   0.3799599   0.3046931
  -0.1676431   1.2585557  -1.0571075   0.1534378   0.9289817   0.7058299
  -0.0661557  -0.0424819   0.1490853   0.3177606   0.7148957   0.1738963
   0.2434887   0.0302360   0.0539695   0.0121960   0.0031078   0.1426628
   0.0314088   0.3689549   0.7959199  -0.4770575  -0.0369394  -0.2163006
  -0.0140288   0.2831970   0.0693362  -0.5961614   0.1783365   0.6747181
   0.2708787  -0.2496686   0.8864636   0.3322276  -0.1448435   0.0364556
  -1.1034727   1.0104173   1.3251262   0.7042461   0.2101595  -0.4636879
   0.2253314  -0.2431512   0.1664198  -0.6941096   0.5920656  -0.9451979
  -1.1138227  -1.1740910   0.8990317  -0.0799168  -0.2128760  -0.1468369
   0.8128352   1.0315210  -0.8676448   0.6064836  -0.0464818   1.0199660
  -0.3218792   0.0239953  -0.2362758   0.2862389  -0.1993741   0.1963676
   0.1768912  -0.9893653   0.7981417   0.0012762   0.1627158  -0.1277704
  -0.5351586   0.2420764  -0.3901549   0.6214384   0.2410602  -0.8646723
   0.1146203   0.1953795  -0.0853180   0.2480329  -0.6927831  -1.2347335
   0.2947334   0.7552984  -0.6985502  -0.1257362   0.1842385  -0.0521504
   0.5903967   0.9644667  -0.1006407  -0.4654554  -0.8112653   0.7793887
  -0.0840556  -0.1745848  -0.2029292  -0.5348900  -0.0977444   2.2664960
   0.8807400  -0.0779501  -0.2895886   0.1072975   0.3794700   0.2979012
   0.2811152  -0.2310853  -0.1783033  -0.8310582   0.7143867   0.9291921
  -0.2997794  -0.2600495  -0.3153650   0.3479725  -0.9409405   1.8429338
  -0.3927793  -0.1963520   0.0266280  -0.3011304   0.1881850   0.0503940
  -0.4008301  -0.1706451   1.4949767  -0.2723047   0.9278282  -0.9224281
   0.3656337  -0.1034864   0.0937045  -0.0685964   0.2879401  -0.9043772
  -0.4122321   0.0171070   1.1474497   0.2538338  -0.1804151   0.1428630
  -0.1656152  -0.1564629   0.1697603   0.6717008   0.3209280   1.3621100
   0.1364124  -0.0689536  -0.2803863  -0.7886581   1.2232942   0.5827564
  -0.1913447  -0.7345579  -1.2194172  -0.1551882  -0.0721465  -0.0837489
  -1.1784296  -0.7580294  -0.7692660  -0.5439253   0.1126187   0.0465926
   0.0111386  -0.2074807  -0.0010748   0.4664760  -0.4952717  -0.5832233
   0.9722673   0.6622085  -0.3763097   0.0643358  -0.0169484   0.0376553
  -0.3964847  -0.4864333  -1.3412775  -1.7674353   0.5492870   0.7680121
   0.2047622  -0.0267181  -0.3986143  -0.3976885   0.3684261  -0.4506093
  -0.1651508   0.5951592  -1.1399766  -0.2555531   0.3657869   0.2315776
  -0.2250190   0.6214063   0.7434580  -0.1424017  -0.4687077   0.7133496
  -0.1270851   0.2515845  -0.2431069  -0.2608132   1.2197148   0.5196368
  -0.2236952  -0.8635239  -1.1458445   0.2376031  -0.2318199   0.0489684
  -0.6624262   1.1670209   0.3481824   0.1152984   0.3400344   0.1360720
  -0.0734490   0.0688789  -0.0075033   0.2550891  -0.8163260  -0.3422350
   0.2996275  -0.1442519  -0.5672158  -0.0467807   0.2789941   0.0567838
  -0.4806250  -1.0747578  -0.3831159  -0.7227581   0.5987658  -0.0674344
   0.0311311   0.2173157  -0.3279807   0.0996033   1.1420969  -0.1428528
  -0.3342040  -0.1672999  -0.7189179   0.1016910   0.0152892   0.5108630
  -0.1227572  -0.0441926   0.5325792  -0.1803873  -0.8441418   1.2037642
   0.0938241   0.3006739  -0.1617063  -1.0412445   0.5703768   1.0243365
   0.0356492   0.2567971   0.4580031  -0.0369472   0.1002715   0.0767491
   0.8505644  -0.5833437   0.2612426  -0.4883277   0.0809946   0.2236936
  -0.1867734   0.1765982  -0.1284100  -0.7328904  -1.6074680  -0.9065098
   1.2849023  -0.5720353   0.3166046   0.5154634   0.1811039   0.0287206
  -0.6993837   0.5300975  -0.7958139  -0.7344975   0.1981846   0.3120007
  -0.3971577  -0.0435384   0.2184990  -0.5907219   0.1474024  -0.1343444
   0.1829574   0.4544710   0.3348906  -0.3689330   0.2092002  -0.2276300
  -0.9564812  -0.2705541  -1.3694084   0.2198049   1.3149359  -0.1256460
  -0.0226899  -0.2963985  -0.0882153   1.0646204   0.4692618  -1.2259762
  -1.3035673  -1.0459139   0.3774698  -0.3714790   0.2056571  -0.0021721
   0.4396125   0.1330961   0.3831688   0.5446230  -0.0522047  -1.6002421
   0.1553189  -0.0132472   0.0917567   0.8012917  -1.1716607  -0.4398426
  -0.7518930   1.1359257  -0.7543143  -0.1725759   0.1999558  -0.1968574
   0.6150309   0.8058527   0.1219084   0.1536134  -0.6445478   0.3448610
  -0.1176380   0.1559047   0.1108295   0.7539156  -0.0806347   0.9641210
   0.0118288  -1.0788358   0.5330888  -0.1463937  -0.1454596   0.1749709
  -0.7702363   0.9756616  -0.0145639  -1.2458086   0.7791761   0.3292192
   0.2085765  -0.0883349   0.1378562   0.0566163  -0.9352851   0.1394964
   0.3812061   0.0472814  -1.0542843  -0.1898726  -0.2684276  -0.1400346
  -0.3003705   0.7514013   1.0160367  -1.6791428   0.1988489   0.3788546
  -0.0350382   0.2461740  -0.1203456  -0.5109221   0.4994665  -0.0733547
  -0.6100780   0.4859288   0.4215658   0.0506621  -0.1179523  -0.0396428
  -0.1295759  -0.5098300  -0.8410647  -0.1253746   1.5745708   0.4472326
   0.0671596   0.0217539   0.2054696  -0.3148467  -0.0774036  -0.5868689
   1.2225465   0.2029245  -0.9055041   0.0833740   0.0480545  -0.2230187
  -0.4779721  -0.2946552  -1.2582748  -0.3354157   0.3079047   0.3854489
   0.1413950   0.4089009  -0.1514581  -0.2434886  -0.2905553  -1.4033028
   0.0975693  -0.8996169   0.7389806   0.3960886   0.3515810   0.1185090
  -0.1764987   0.5543990   0.2192099   0.9176860  -0.6293039  -0.2291025
  -0.1136642  -0.3525069  -0.2877251   0.2943659   1.2188360  -0.5582028
  -0.3863112   0.4602485   0.0115999  -0.0484318   0.4185563   0.1687977
   0.4872643   0.8252030  -0.3362157   0.3999903  -0.7659990   0.9128500
   0.0972052  -0.1157209  -0.1003354   0.7603539  -0.2572339  -0.1948965
  -0.7132810   0.6223381  -0.8111947   0.2002176  -0.3057079  -0.1548822
  -0.0229785   0.6547985   0.2653519  -0.3538524   0.9515789   0.2934111
   0.2189694  -0.2144278  -0.2139567  -0.1001256  -2.0593725   1.9654951
   0.3435809   0.6654680  -1.2293113  -0.6235839   0.2791715  -0.1839943
   1.6448006  -1.6495851  -0.0984253   0.5752869  -0.7011263   0.0175798
  -0.0937630   0.0939826  -0.1150338   0.5663618   0.1887203   1.3268281
   0.4561038  -0.8161653   0.8302573   0.1237289  -0.2143963   0.0220881
   0.3218138  -0.6732247  -0.6942977   0.0770535  -0.4873817  -1.0959741
  -0.0776715  -0.2431079  -0.1166368   0.9875971  -0.5158445   1.0885002
  -0.0387891   0.0506482   0.2085244   0.0929704  -0.0716854  -0.0804030
  -1.4327629   0.2992105  -1.2088182   0.5747652  -0.2744827  -0.7437845
  -0.2249567   0.0335837   0.0453577   0.1002354  -0.4737901  -0.0535260
   0.3458854  -0.4585053   0.1255154  -0.3392748  -0.2449122   0.1177563
   0.1000878  -0.9069008  -0.7864557  -1.2388541   0.0800655  -0.7073648
   0.0211742  -0.4026334  -0.1297633  -1.4429269  -0.5425302  -1.2600915
  -1.9176601  -1.6999493  -0.0563314   0.4359151   0.0638232   0.0140813
  -0.3959743  -1.6969289  -0.2528011  -0.5955213  -0.7048762   0.6010650
  -0.1163949   0.4869593   0.1206751   1.4028566   1.1312232   0.0965801
   0.5007772  -0.4101588   1.3676267  -0.2321038  -0.4511536  -0.1223261
  -0.0529980  -0.1614888  -0.0388585   0.5519033  -1.7049222  -0.1352107
   0.2657949   0.0702274  -0.4927070   1.4565889  -0.2406466   0.9004684
  -0.6583778   0.4864426  -0.0712113  -0.2201362   0.0493584   0.0370912
  -0.6665856  -0.9111927   0.6585943  -1.0555573  -0.2423244   0.3124368
  -0.3424265   0.0111292  -0.0027671  -1.0072728   0.7160263  -1.2586994
  -0.0996900   0.3431313  -1.0144244   0.1183288   0.1176381  -0.0959351
   0.0836371  -0.2153975  -0.0043554   0.1062091   1.4838638   1.8396555
   0.1255172   0.0989898  -0.0271562   0.8057136  -0.5203819  -0.5296206
   0.2592667  -0.3912267  -1.4958745   0.0504311  -0.2828644   0.0734168
   0.2499930  -0.8674379   1.4766201   1.3887263   0.9256842   0.1451200
   0.2554857   0.0043850  -0.2229408  -0.8136356  -0.4284824  -0.1981480
  -1.7873091  -0.5250146   0.2048454  -0.3426408  -0.0718761  -0.0503345
  -0.0912369   0.0766213   0.6556807  -0.5395373   0.7458389  -0.4492133
  -0.0132302  -0.0588687   0.3648465  -0.4035022   0.3635593   0.6724636
   0.3825874  -1.0482083  -0.1029389   0.1161263   0.0875052   0.0586971
  -0.4814112  -0.0661580  -1.1487492  -0.7731899  -1.1057858   0.0032145
   0.0958340   0.1537900  -0.1737600  -0.5585258  -1.0717448   0.1437783
   0.6607691   0.7522834   1.0990996  -0.1557394  -0.2098778   0.2740021
  -0.2512948   0.5193734  -0.5157551   1.0029172  -0.6911428  -0.1846902
  -0.1731552   0.2887622  -0.0277470   0.1394699  -0.6034188   0.1029188
  -1.1374408   1.0342907   0.6619270  -0.1490116  -0.0109661  -0.0481148
  -1.0786791  -0.2767539   0.3332557  -0.1702215  -0.8415040   1.3906867
   0.1790317  -0.1278461   0.2091729  -0.6069907   0.4978329   0.1465185
  -0.9883792  -0.2616586   0.2469333   0.2837928  -0.2848129  -0.1162685
   0.3661060   0.2760468  -0.3144451   0.5799715  -0.0826213   1.4936279
  -0.1819898   0.0702293   0.2793388   0.1040369  -0.1261376  -1.0292361
   0.5652821  -0.9611091   0.5581209   0.2373389  -0.2243621  -0.0116894
   0.3874196   0.4515733  -0.0224284   0.8802093  -0.2272599  -0.1030295
  -0.2456550  -0.0081872  -0.1378843  -1.1875111  -0.1327091  -0.4070458
   2.3065504   0.0611767   0.0716857  -0.1441426  -0.0696219  -0.0558206
  -0.4341904   0.2423150   0.6657267   1.4635061  -0.5395321  -0.2289700
   0.0789442  -0.0735847   0.3153619  -0.4225418  -0.0462901  -0.5600197
  -0.3746272   0.5189512   0.6128649   0.1646575   0.1641614   0.0952594
   0.2879031   0.0051058  -0.0460952   0.8857456  -0.0999512   0.5631912
  -0.0434211   0.0461104  -0.0801157   0.5885982   1.6597059  -0.7111220
   0.0028363  -0.9511568  -0.6299456   0.0232855   0.2364839  -0.2939203
  -1.0984225   1.8771898  -0.4861791  -1.1683790  -0.1617586  -0.3196526
  -0.3540328   0.0854471  -0.3118301   0.7910364  -1.1834358  -0.1251621
   0.4568404  -0.6480362   1.6580606   0.4021145   0.1011260  -0.1610700
   0.5800589   0.8117099  -0.4651688  -1.1418020   0.5749484   1.1101288
   0.1608590  -0.2869902   0.1852118   0.4919969  -0.0062697  -1.6509759
   0.5007264  -0.5472281   0.2782386   0.2616675   0.1087988   0.3612763
   0.0576561  -1.0753484  -0.8257245   0.9412357   0.0620736  -0.3340462
  -0.2334056  -0.0505333   0.1864647  -0.3324761   1.5774602  -0.0775556
  -0.0617821   0.0774364   0.4761990   0.1978140   0.3707091  -0.3273921
   0.7312553   0.3590993   2.1072508   0.1682632   0.5527620  -1.7318672
   0.3659637  -0.3234195   0.2209370  -0.0609173   1.2604226   0.6423808
  -0.0917849   0.2689125   0.3730296  -0.3031811   0.2610387  -0.1188441
   1.3401352   0.3101963  -0.8575432   0.3324765   0.0653597  -0.3238714
   0.0542099  -0.0892392  -0.1259710   0.0330156  -0.6834781   0.3168206
   0.9224144  -0.9798155  -1.2761898  -0.2879288   0.0700498   0.1805489
   0.0897663   0.7477130   0.0849105  -0.2770364   0.9417810   0.3419670
  -0.2048010  -0.2725465  -0.4980168   0.0595299  -0.3382596  -1.0675751
   0.6822351  -0.2791969  -0.5651516  -0.2305711  -0.0416918   0.3940552
  -0.2836779  -0.6499686  -1.3348594  -0.1562584  -1.6788917   0.2932079
   0.0209702   0.2907555  -0.1726961  -0.2869817  -1.2262496   0.2079248
  -0.1769675  -0.9798134  -0.0045626   0.0174395   0.0603963   0.0112975
   0.0993542  -1.2845222   1.5733528   0.4753875   1.3220060  -1.2256065
   0.4221118  -0.0434996  -0.2034746  -0.0802155   1.0808353  -0.4258913
  -0.0689866  -0.3088571   0.2237067  -0.0555928  -0.1970953   0.3263027
   0.6745071  -0.0820711  -0.6680611   0.0262756   0.4408262   0.7526499
   0.1388655   0.0602470  -0.3902519   2.4740083   0.3971783  -1.1418182
  -0.4823198  -0.0296166  -0.5232538   0.3151031  -0.0594354  -0.3207153
  -0.0249041  -0.2284996  -0.9730450  -0.0039837  -0.6560158   0.8720042
   0.0203133   0.1092218   0.2394532  -1.0160741  -0.0731042   0.4436816
   0.6387448  -0.4202497   0.0368311   0.1224783  -0.1784098   0.2623575
  -0.1540547   0.7060781   0.2378014  -0.5160715   1.4310458  -0.7592164
   0.2027866   0.3641942   0.1092811  -0.6796598  -1.5607955   0.5660327
   0.7424170   0.8260396   2.0270153   0.1136244   0.0853388  -0.3248737
  -1.0969300   0.4028415   2.0595233  -0.8283617   1.0393927   1.8320290
  -0.0301442  -0.0485359   0.0958379  -0.2292395  -0.1596134   0.6645050
   0.5188657  -0.2292362  -0.1496229   0.2935992   0.0768226   0.3318357
  -1.3257948  -0.7732126  -2.1464244   1.2457680   0.8494435   0.5481461
   0.0307756  -0.1937876  -0.1383118   0.1583915  -0.4965066   0.4579007
  -0.0314069  -0.2595765   0.1437753   0.1101255  -0.1722565   0.4273367
  -1.1287870  -0.8287460   1.2867737   1.1950854   1.5899213  -0.5927333
   0.2031365  -0.2762037   0.0005703   0.2609588   0.4500825  -0.3965409
  -0.0941932   0.2845180  -0.1724886   0.1706810   0.0676817   0.1256121
   0.2866069   1.2057003   1.2001087   0.2685992  -0.9680605  -0.0297938
   0.1584765   0.0089752   0.0055616   0.7184680   0.2055269  -0.8959409
   0.3685900  -0.1128499   0.9562617  -0.0166300   0.1995148  -0.1185847
   0.8420654  -0.8114080  -0.3269464   1.1476394   0.9817753  -0.1233469
  -0.0494225   0.2616443   0.2155956   1.3300728   0.3338396   1.1518356
   0.0304315  -0.4163889  -1.0203826  -0.1785626  -0.0694028   0.1147875
   0.0541554  -0.7842885  -0.4145461  -0.5682395   0.4343260   0.3053126
   0.0279543   0.0850013   0.1812880   0.3775080   0.0592987  -0.2672649
  -0.4225748   0.1250075  -1.0777340   0.1563637  -0.1612844   0.0169770
   1.1091798  -0.7021127  -0.1897127   1.1117995   1.0899102  -1.0690010
   0.0430668   0.3097211  -0.3426731   1.4319782  -0.1395302  -0.6055952
  -1.0731314  -0.1179669  -0.4033687   0.0685032  -0.2190002   0.0526948
   0.5339063  -0.5396992  -0.4278378   1.0976040  -0.5630048   0.0402704
   0.1447419   0.0264954   0.2073314  -0.8942941  -0.0035757  -1.5106099
  -0.8188079  -0.1024757   0.3298176   0.0670953  -0.0142532   0.1733015
   1.3306968  -1.0034215  -0.1195558   0.1887964  -0.1321277  -0.4003927
   0.0876217  -0.2709208  -0.0087610  -1.5891600   0.8538595  -0.1467883
   1.1587575   0.1659339  -0.2560239   0.0605963  -0.2077288   0.3850234
   0.1783468  -0.5962438   0.9463554  -1.1839728  -0.5411274   0.3262275
   0.0239389  -0.0372702  -0.1694856   0.5507773  -0.7921829   0.2212484
   1.5809534   0.7507227   0.4000304   0.0056516   0.1437652   0.1014385
  -0.5226910  -0.9745904  -0.8539589  -0.3294429   0.9019088  -0.5442837
   0.3756998   0.0965705   0.0274748  -0.1179035  -0.7405819  -0.1572977
   0.2592397  -1.7197824  -0.4950288  -0.0972357  -0.1736195   0.1454461
  -0.4999976  -0.0412210  -0.5401814   1.3601062  -0.6873337   0.1899820
  -0.0069682   0.2456859  -0.0500671  -0.1889784   0.1475784   0.0560975
   0.3728632   0.7248935   0.0496943   0.1153256  -0.0184337   0.2282580
  -0.5430760   0.1949004  -0.1042961   0.3928019  -0.7857865  -0.1488018
   0.0822555   0.0117839  -0.0389896   0.4345029   0.1321920   0.3819692
   0.0045720  -0.6321297   0.6024167  -0.2911629   0.3632398  -0.0471399
   1.6195063  -0.3934804  -0.6014483  -0.8544278  -0.0020785   0.6195221
   0.1291671   0.0352865   0.1056240   0.3932005  -0.0501447  -1.0388693
  -0.6403824  -0.4122105  -0.2957669  -0.4925600  -0.1477297  -0.1558752
   0.0648410   1.4594926   0.3123429  -0.2655785  -0.4030085   0.5857227
   0.0377697   0.3468908   0.4589045  -0.9720371  -0.7367760  -0.9977154
  -0.9822523   0.5621778  -1.0384840   0.0890713   0.0709814  -0.1167269
  -0.7944993   1.2565933   0.3573091  -0.0527867  -0.7813980  -2.0835261
   0.1928051   0.0677723   0.1003861   0.0615645   0.9220571   0.7174465
   0.5466211  -0.8469528  -0.4833695   0.2104707  -0.0597182   0.0272963
  -1.4485201   1.1780593  -0.1653052   0.7474623   0.2559117   0.6426015
  -0.3204666   0.1250093  -0.1540600  -0.3723444  -0.2063001  -0.9988982
   0.3355799  -0.4036432  -0.5304820   0.1684718  -0.2242880  -0.1267958
   0.1497578  -0.2877444  -0.4833789   1.0717430  -0.0679526  -1.4138813
  -0.2063441  -0.2849034   0.1072022  -0.8300447   1.1042354   0.0297416
   0.4223029  -0.2614488   0.2921376  -0.0648951  -0.1334059  -0.0775358
   0.9445546   0.2018383  -1.6232990  -0.9524710  -1.0562445  -0.9857494
   0.0465953   0.4806724  -0.3725404  -0.0236148   1.1576685   1.0826275
   0.0966989   0.5286643  -0.6187723  -0.1937377   0.1081067   0.2379075
  -0.9260821   0.4995461   0.3992303   0.3813037  -0.4156246   0.8702240
  -0.0658408   0.0702241   0.1471919   1.3114258  -0.2116459   0.8039876
  -0.5272640  -0.1503498  -0.6159241  -0.3308288   0.1473371  -0.0137213
   1.0684230  -0.8175651  -1.4847252   0.0452750   0.9288758   1.0191012
  -0.0430814  -0.2920717  -0.1529847   0.5260085   1.1290520   0.3476577
   0.3991551   0.0113061  -0.3034289  -0.2108023  -0.2969323   0.1767332
  -0.6763778   0.1998581  -0.4412907  -0.8857667  -0.5071741   0.6052757
   0.0046885  -0.0968318   0.1149667  -0.0067238  -1.9473196   0.4258870
   1.0780444  -0.7072005  -0.6629810   0.2125852  -0.0295996  -0.0333372
   1.1253111  -0.0763649  -0.2899912   0.2240962   0.0825050  -0.9286830
   0.3093613  -0.0724676   0.2160833  -0.7557302   0.8633436  -1.1175854
  -0.5406810   0.1156038  -0.4151424  -0.0603802  -0.2031151  -0.0252909
  -0.7548683   0.5761488   0.4879063   0.1716669   0.5766404  -0.1900913
   0.3387060  -0.0911578  -0.4905891   0.9161956  -0.4126718   0.3475901
  -0.0275254   0.7905181  -0.0471910  -0.0333131   0.3233794   0.2415175
   0.5859428   0.8298015   0.9524159  -0.1390085  -0.0038643   0.3949679
   0.2322342   0.1000452  -0.0733681  -0.0225827   0.2996628   1.3064523
  -0.0574513   0.1558132  -0.5520380   0.0914053  -0.0399112  -0.1815092
  -1.5582632   0.0066248   0.5361561   0.2567128  -1.3265457  -0.8044242
   0.0374102  -0.0540734   0.2057316  -0.3394028   0.8211552   0.2276286
   0.2304378   0.4832408   1.3291487  -0.1455015  -0.1548005   0.0141221
  -0.2359045   0.8580007   0.0503688  -0.3014476  -0.8279685   0.6503415
  -0.3046022  -0.0756445   0.1240512   0.2437742  -0.0099326   0.2391283
  -0.1128261   1.8689161  -0.0235023  -0.1654394   0.0980260   0.1005501
  -0.0075442  -0.7787259   0.5178151   0.1550736  -1.4343632   1.0291300
  -0.0678762  -0.1239761  -0.0178981  -0.5819088  -0.4108495  -0.9960175
   0.2592915   0.7440528   0.5040446  -0.0970258   0.0322297  -0.1337983
   0.9905351  -0.3727696  -0.1726552  -0.7773448   0.1741680  -0.2957609
   0.0220082  -0.0001064   0.0626470   1.1233238  -0.5689950  -0.1317486
   0.1811258  -2.1953883  -0.1122494  -0.3060147   0.2541678   0.0693188
   0.8894219  -0.6148699  -0.4629003   1.2761230  -1.0469342   0.6606036
  -0.2159990   0.2052153  -0.1986042   0.2613644  -0.2971555  -0.1383628
   0.0566134  -1.0258484  -0.5771621   0.0711353  -0.1503664   0.4220571
   0.4798488   0.4939619  -1.1856500   0.3746850  -0.1203317  -0.9112118
  -0.1115279   0.0742396  -0.1692922   0.8618592   0.6189281   0.4305479
  -0.2654191   0.0768092   1.5097876   0.4611420  -0.0152673   0.0239535
  -0.1317762  -1.0294507  -0.7228744   0.0122839   0.9744672  -0.9521142
   0.1282264  -0.1578822   0.1658503  -1.5492915   0.2980843  -1.0606521
  -1.1580675  -0.3713516  -1.2224379  -0.0254101   0.0208692   0.1021895
   0.1757588   0.0446016  -0.2760260  -0.6361933  -2.2273122  -0.6242658
  -0.0255002  -0.1752278  -0.0528776  -0.5621768  -0.8381562   0.4818428
  -0.0523423  -0.1211650  -1.5356619  -0.4106794  -0.0774292  -0.0615580
  -0.9443440   0.6228712  -1.6267094  -0.2362551  -0.8125406  -0.1030543
   0.3383490   0.1436725  -0.1953386   0.9174913   1.0568449  -0.7585037
   1.0060780   1.4314488  -0.6771394   0.4005746   0.1549218  -0.0172929
   1.1356015  -0.1268753   0.9135637   0.6555881  -0.0708133   0.0563782
  -0.1784716   0.1415221   0.0072997  -0.2023270  -0.4629175  -0.8143978
  -1.0219504   0.5431007   1.7804243   0.1195195  -0.2494709   0.0470181
   0.5491267  -0.0512290   0.8001613  -0.0371450   1.8595680  -0.2988380
  -0.0188853   0.2512976  -0.0482953   0.1397652  -1.5658938  -0.1872508
   0.6566288  -0.7881509  -0.7886834  -0.6144736   0.1560101   0.0208951
   0.4676493  -0.0278731  -0.5282138   0.6439957   0.3557282   0.8247331
   0.1448998  -0.0016620  -0.0123955   0.0204541   0.3118668   0.8409391
   0.3081440   0.2892867   0.4262336  -0.0748446  -0.0653961  -0.4410772
   1.0947885  -1.9653103   0.2069378   1.1239793  -0.6553492  -0.8270686
   0.0835947  -0.2413576   0.2353926  -1.0026619  -1.2570040   1.0435911
   0.3626756   1.2521756   2.3134030  -0.2361450   0.1496854  -0.1579786
  -0.7107473   0.4293938  -0.2698824  -0.2231975  -1.3550889  -0.5852461
  -0.2189188   0.1058500  -0.1880813  -0.4502041   0.4837040   0.2457604
  -0.2198139  -1.5360260   0.6513385  -0.1671815   0.0278621  -0.1688147
   0.6853116  -0.2233537  -1.5267732   0.0557584  -0.4352923   0.6847159
   0.2283156  -0.2336683   0.1390950   0.7402659   0.1517764   0.9748965
  -0.8354962  -0.1290021   0.7170947  -0.2255320   0.0369387   0.1727925
  -0.1895788   0.7422543   1.1992945   1.6864891  -0.9647604  -0.1093926
   0.4739919   0.0150464   0.2035655   0.5390701  -0.1212365   0.6707221
   0.8679993   0.7048041   0.4674157   0.1789021  -0.2379040  -0.1339488
   0.6624592   0.0851618  -0.3673889   1.1803498  -1.5385115  -0.3353610
  -0.1866075   0.0167165  -0.5099086  -0.0241612  -1.2131715  -0.7333732
  -0.2538699   0.9542974   1.0116259   0.0791366  -0.1808335   0.5410134
  -0.1166816  -1.4589443  -0.7997430  -0.9351643   0.8371152   1.6126568
  -0.2189435   0.2381404  -0.1514430   0.0778738   0.0097795   0.1433113
  -0.6103505  -0.8037954  -0.0965978  -0.1422952   0.1702077  -0.0484418
  -1.3087429   0.4707535  -0.3271563   0.0177577  -1.1389753  -0.2927596
  -0.0126422   0.5731775  -0.0761493   0.6484345   0.6286189  -0.9038694
  -0.7862547  -0.4887183  -0.8517694  -0.1411796   0.0542339  -0.2189020
  -0.4295357   0.4812935   0.0324571   1.0401239   0.2116342   0.3167953
  -0.1775619   0.4657109  -0.0176034  -0.4575221   0.9112985  -0.0026312
   0.3584236  -0.1343428   0.1395641  -0.1692268   0.2384348  -0.1407927
   0.8420954  -0.1038661  -0.5289840  -0.6055038   0.1051080  -0.2950826
  -0.1129675  -0.1675564  -0.4047157   0.4328717  -0.4149124   0.6468564
   1.1659039  -1.0454366   0.0565978   0.0561076   0.1810134  -0.3487045
   0.2900328   1.0510011   0.8046380  -0.0828838  -0.0100713  -0.4470686
   0.0889789  -0.0672079  -0.4854402  -0.3316809  -0.5350958   0.8942496
   0.6164188   0.4592717   0.5687783   0.1728847   0.0071811  -0.2517975
   0.2867881  -0.7706069   0.5227756  -0.5673857   1.3755512  -0.7398247
  -0.2158369  -0.0971879  -0.3186622  -0.2730324   0.7460282   0.3809137
   0.2196694  -1.5597253   0.0963490   0.2462045   0.2257310   0.0795015
   0.2010793   0.0011967  -0.2667312   0.5561490  -0.3020157   0.5951767
  -0.3682145   0.1337924   0.0916423  -1.5743275   0.9969237   0.7583932
   0.1448298  -0.8158181  -0.6594490  -0.0011621  -0.1545935   0.1385751
  -0.5012761   0.1942432   0.8052151  -1.6640047  -0.5245502  -0.7213376
   0.3296371  -0.0727728  -0.1885880  -0.7262409   0.3830122   0.1930001
   0.2719583  -0.7373181   0.1237304  -0.2952418  -0.1440799  -0.0050589
   0.0896026   1.4405118  -0.6885762  -1.3713218  -1.2862228  -0.0893687
  -0.1646436  -0.2861676  -0.0380632  -0.1271573  -0.2933465   0.9131932
   0.5508187  -0.3461445  -1.3650377   0.0550037  -0.1916696  -0.0187563
  -1.2485298   1.0145939   0.1999993   0.0998541  -0.8252569  -0.9573230
  -0.1901739  -0.1238357   0.1015217   0.8307910  -0.6010222  -0.7056757
   0.0492587   1.1640483  -0.3474486  -0.1685083  -0.0923483   0.0472743
   1.0227906  -0.7082598  -1.2158367  -0.4180276  -0.2904835  -0.9508185
  -0.2014021  -0.0859598   0.2065847  -0.2560604  -0.7161226   0.0219733
  -0.2016230  -0.3930438  -1.5883531  -0.1286508   0.0497103  -0.2989943
  -2.0701621  -0.1952770   0.7140431  -1.1062710  -0.4692856  -0.5933705
  -0.0276369  -0.2492402  -0.0755831   1.3606389  -0.0136162   0.3184156
  -0.9768827  -1.0855957   1.3421737  -0.3376552   0.1637530  -0.2474551
  -0.0739259   0.2457669   0.7289367   0.7816410   0.7123749   1.0592988
  -0.1970915   0.2195535   0.3115504   0.4467895   0.6550951  -1.0044444
  -0.8339516  -0.6673766  -0.8170388  -0.0268278   0.1370344  -0.3647048
   0.3553276  -0.4526824  -0.7869371  -1.7099159   0.8119439   0.9256337
   0.2849812   0.0053618  -0.1005874   0.3627314   1.9488955  -0.9722815
   0.5740773  -0.6944473  -0.0353917   0.1647778  -0.3304478  -0.0941692
   0.0360856   0.5543093  -0.7467624   1.6121314   0.1420311   1.1727314
   0.1000465  -0.1718609  -0.0975673   0.8597179   0.8968018  -1.6307025
   0.7116132  -0.2862551  -1.2730742   0.0353294   0.2068888   0.1628427
   0.3307021   1.1302517  -1.4937263  -1.5858866  -1.1366902   0.8847633
  -0.1725484  -0.0427840  -0.1521418   0.3577037   0.5416809   0.0806809
   0.5812323  -0.8870645   0.5030734   0.0107607   0.0556732  -0.2177214
   0.5372992   0.4443142   0.0464306   1.1505209  -1.3136047   0.3310306
   0.1623880  -0.1004330   0.0375706   0.8981126   1.0600766   0.0309703
   0.8866527   0.2731914  -0.4286460   0.0784636  -0.1804173   0.1902468
   0.1336890   0.0757841  -0.1730752  -0.7463991   0.9111654  -0.8059690
   0.4829652  -0.1681326   0.6209150   0.2260489  -0.9967902  -0.3920636
   0.5733223   1.2733627  -0.0037805  -0.2360771  -0.2506203  -0.0099927
  -0.6258220   0.8132330  -1.5071387  -0.6812595   0.2296036   0.2840685
   0.1977571   0.3516990   0.0357327   0.7765123  -0.6415558   0.1789259
   0.6898508  -0.2654203  -0.3744350  -0.1485390  -0.0295701   0.2828032
   0.1995296  -0.0153995  -0.3903454   0.6358177  -1.6075906   0.4751425
  -0.1545388   0.1086467  -0.1052156   0.1392948   0.2232436   0.5090528
  -0.1718099   1.0740710   0.0255992  -0.0220200   0.4405238   0.2127023
   0.2186616  -0.4814826   1.0546120  -0.6852523  -0.1616766   1.5734657
   0.1653055  -0.3631300   0.0864959  -0.4086411   1.2928169  -1.2322064
   0.0436110  -0.8184818  -0.4738162   0.0389559   0.0335382   0.4654800
   1.3613203  -1.2317387   0.7158977   0.2772968   0.5279883   0.4201282
  -0.4912842   0.0439815   0.1644506   0.6673420   0.1812675  -0.1409670
  -0.8137287  -0.1604492  -0.9629521  -0.2287790   0.1050685   0.0239362
   0.7062471  -1.0198923  -1.9055272  -0.3215818   0.3464056   1.0033036
  -0.1745338  -0.1719920   0.0792494  -0.4236729   0.5311514   0.8377724
   0.0608896   0.2298650  -0.9779372   0.4021507   0.1142617  -0.1175715
  -0.8341182  -0.8212115   0.7793624  -1.3994443  -0.6260941   0.7514673
  -0.1111099  -0.0811099   0.1978019  -0.0814696  -0.3352009  -0.3914659
  -0.4989484   0.7167800  -1.0335731   0.0999303  -0.2229851  -0.1230196
  -1.1799305  -1.9433196   0.2448796   0.8626408   0.6681022   0.9993822
   0.0294522  -0.0878824   0.1037925   1.2825237  -1.7286999   0.7063880
  -1.5205013   0.3968415  -0.7335327   0.5530849  -0.1383009   0.3089568
   0.3616839   0.9116625   0.3537139  -0.6071085   1.0048663   1.2834909
  -0.1550266  -0.0077029  -0.0588179  -0.6209922   1.3712161   0.4812720
  -1.0480221   0.3416768   0.7803555  -0.0301484  -0.1342813   0.4516630
  -0.5580333  -0.3458015   1.0250612   0.3708694   1.5208138   0.6164071
   0.1815652   0.0188449  -0.3073530  -0.8938466  -0.1734806   1.0658293
   0.7509098  -0.4921103  -0.8841508   0.2695447   0.0298638  -0.0300907
   0.2601360  -0.0459019  -0.8778356   0.0425605  -0.4558339   0.7899008
   0.0434525   0.1096404   0.1318662  -0.4036988  -0.2156031  -0.3017270
  -0.3948045   0.0303231  -0.6483510   0.2151068   0.3198701  -0.0318622
   1.9607090   0.1573948   0.0066718  -0.7257095   0.0615211  -0.1015860
  -0.1028202  -0.0836496   0.2198145   0.5573209   0.4483730  -0.3998944
  -0.3778782   0.2885197   0.0056220  -0.1061841  -0.0980705  -0.2205336
  -0.2788691   0.7495577  -0.1088446  -0.9450905   0.1154412  -0.3313920
   0.1001772  -0.1818226  -0.1395607  -0.2014854   0.9840194  -0.7837292
  -0.8731468   0.3552419   1.0147698   0.0138749  -0.1684993  -0.2078236
   0.1393834  -0.2927384  -0.8992979  -0.3201352  -0.8356695   0.0897482
  -0.0189303   0.0016899  -0.2764953  -1.5371581   1.4581592   0.4055392
   0.4550027   0.0900139   0.7026893   0.0340693  -0.2180369   0.0992566
   0.5581117   1.1758802   0.5100095  -1.0968341   1.7622300   0.1476464
  -0.1605990  -0.2985638   0.0346195   0.1360948   0.2665929  -0.6588126
  -0.2867207  -0.4424998  -1.2527373  -0.1151140  -0.0596551  -0.2974623
   0.3553504   0.5125633  -0.8222359   1.2261283   0.5460302   0.1331179
  -0.0014588   0.2890601  -0.1094042  -0.3969431   0.4895309   0.8642144
  -0.4632830   0.1732156   0.7360468  -0.2821005  -0.3166142  -0.3325021
   0.5978171   0.2890544  -1.0094719  -1.1690202  -0.0910336  -0.2354092
   0.0984582   0.0565206  -0.0404838   0.3015541   0.1650961   1.2696999
   0.4371604   0.9573884  -0.4882437  -0.0416376  -0.1210880   0.1701749
  -0.2455940   0.0795494   0.4981166   0.9000966   0.9935258   0.1191961
   0.0825344  -0.0390347  -0.2118658   0.5215081   0.8696312   1.0920030
   0.2109521  -0.3471527   0.7202834   0.0854934   0.0111353   0.1423597
   0.3103354   0.4455518   0.0600833  -0.3325848   1.0078625  -0.5576801
  -0.1077743  -0.1195895   0.1345309   0.2334168  -0.1192621  -0.1279433
  -0.6444478  -1.5838124  -0.0270092   0.2414974   0.0528552   0.2794632
   0.4225374   1.4892702  -1.4134512  -1.2159868  -0.6328603  -0.1276723
   0.0072868  -0.0247245  -0.0751420   1.0434377  -1.1609478  -0.0249704
   0.2778639   1.2975462   0.3319727  -0.3982299   0.0728972   0.2044086
  -1.0332571  -0.2806795   0.7105194  -1.1022792   0.3892374  -0.3417230
   0.1464617   0.2066587   0.0102701  -0.5077387   0.2619668  -0.8024325
  -0.2069201   0.7357484  -0.0270118  -0.0748806  -0.0213158   0.1862032
  -0.5871635   0.6911561  -0.3738721  -0.8997675   0.1294807  -0.1237666
   0.0942769   0.4117227   0.0843693   0.2679885   0.7907533  -0.3753464
   0.9458611   0.4562049  -0.7713705  -0.1955526  -0.0054706   0.0824530
  -0.2418261  -0.3145234   1.3345901   0.6250464  -0.7266557  -1.3079882
  -0.1642238  -0.0044004  -0.1593158   1.7691008   1.0134303   0.6460080
   0.4858985  -0.8370094   0.6769832   0.1458170   0.4124545  -0.3145284
   0.2131646   0.5902172  -0.3698196   0.1958235   0.6444073   0.0753110
   0.4210180  -0.1526564  -0.2913719   0.3138589   0.4211550  -0.0415058
  -0.1627395   0.0456059   0.1176668  -0.0967562   0.2564207  -0.0744762
   2.1782334   0.3544612   1.0335378  -0.0264452  -0.0086075   0.2392350
   0.0351641  -0.0969263   0.0567391   0.2800964   0.2125684   0.7209651
   0.0405019   1.2938499  -0.7500512   0.0941852   0.2714526   0.3782280
   0.4462587  -0.1705445  -0.8660749   0.4722886   0.1949574  -1.4966445
   0.0224295  -0.0215408   0.0728640  -1.0055221   0.4655716  -0.8617671
  -0.0977297  -1.7472597  -1.4665489   0.2118207  -0.1955917   0.0956516
   0.6666586  -0.5702599   0.2557705   0.1600054  -1.4692204  -1.1051117
   0.3283124  -0.0149919   0.0254390  -0.8963508  -1.0603888   0.0076864
  -0.2509831  -0.0810961   1.0053303   0.0303683  -0.0053887   0.0402814
  -0.8891344  -0.0568518  -0.7764328  -0.3507062  -0.9886714   0.9899569
  -0.0373977  -0.3296574   0.0932166   0.3342016   0.9838814   0.8504214
  -0.3993941   0.6551417   0.1434722  -0.1020408  -0.1634031  -0.1018407
  -0.1195097  -0.3585425   0.1213837  -0.2136227   0.2571227  -0.1475057
  -0.0359007  -0.3237880  -0.2774891  -0.9474056  -0.2739739   0.1308961
  -0.7810239   0.6829689  -1.2553096  -0.0207620   0.2417341  -0.0296081
  -0.3578991   0.8355170   0.8325632   1.0751352   0.0572921   0.6016302
  -0.1093065   0.0199758   0.2530927  -0.2820033   0.1978739   0.9052689
   0.4021718   1.1084753  -0.3256280  -0.0742439   0.0704849  -0.0264637
   0.0152231  -0.3553135   0.9820772   0.1916583   0.2559177  -0.8751908
   0.3130544   0.1040825   0.3049361  -0.5307248  -0.4134906   0.1579438
  -0.4377690  -0.7224305   0.1571344  -0.1862737  -0.1755944  -0.2669040
   0.4506046   0.7457882  -0.5702358   0.3629051   0.4151974   1.0908954
  -0.2164497   0.1736451  -0.1352224  -0.3802840  -0.7837863   0.1054650
  -0.7907921  -0.4552333  -0.7593716   0.1085377   0.2237868  -0.0905299
  -0.1626593   1.3765924   0.3313820  -0.1176875  -0.0790926  -0.1680771
   0.0716489   0.2774650   0.2539312  -0.0639813   0.0525085  -0.4439809
   0.4723280  -0.3486979   0.5348283  -0.2982225   0.2454725   0.2619418
   0.7428219   0.0006999   0.3518702  -0.3558507  -0.2543862   0.0874368
  -0.2190774   0.0534148   0.1380374  -0.0367694  -0.8349675   0.8135689
  -1.0558722   1.3155943  -0.3373086   0.0422501   0.0313602  -0.0135976
  -0.7720431   0.9585948  -0.5907326   0.0475578  -1.0726476  -0.4121607
   0.0431355   0.0858172   0.3265318  -0.5356013   0.0549622  -0.8226014
   0.6342763   1.4129514   0.5115164   0.1520053   0.1305189  -0.1328886
   0.2524706   0.6877852  -0.8175566  -0.5073168   0.0428630   0.0850438
  -0.2064426  -0.0211875  -0.1464659   0.6281036  -0.6881649   1.6687108
  -0.3980694   0.2707941  -0.3657507  -0.1166113   0.0126752   0.2623298
  -0.3598450  -0.1012447   1.2630262  -0.5048921   1.5205220   0.9664655
  -0.0598366  -0.1640740   0.2823786  -1.2057288   0.2604433  -0.9846858
  -0.1067895   0.1178996   0.5202637   0.0946783   0.2635479   0.2511455
  -0.9541157  -0.5443474   0.2978203  -0.0904872   0.2495680   0.6539310
  -0.0233755  -0.3431828   0.0253217   0.3005944   1.2783162   0.1256339
  -0.2910780   0.6488995  -0.6398732  -0.1482746   0.1006681  -0.0291144
  -1.4643786   0.3508372   0.1919239   0.4089615  -0.1113345  -0.4627963
   0.1619115  -0.1285186   0.2365757   0.4286945   0.8922717  -1.2021282
   0.4640110  -0.8471454   0.0632058  -0.2103348   0.1762413  -0.0692414
   0.8029889   0.2815297  -0.7146321  -0.1806703  -0.0712820   0.6986097
  -0.0582760  -0.0015657   0.0934691  -1.1288927  -0.6492068  -0.8354506
  -1.0705886  -0.7411581   0.3872779   0.1386683   0.0499210   0.0066068
  -0.3027765  -1.1883185   0.0676137   0.4709271   0.2399009   0.0974659
   0.2734285  -0.0660484   0.3864616  -0.2678411  -0.8069997   0.1081149
   0.6778838  -0.7314760  -1.2075731  -0.0994096  -0.0971633  -0.2801155
   1.1375408   0.6656640   1.1572111   0.8401821  -0.2951535  -0.7834132
  -0.0641541   0.0365705   0.0642215  -0.7074778   0.1356472  -0.5555922
  -0.2980598  -0.2430323  -1.1573276  -0.0811832  -0.0830591  -0.0468931
   0.2931623  -1.0528643   0.6139930  -0.1213253  -0.1511985   0.2326823
  -0.2483142   0.0633996  -0.1158023   0.2892845  -0.5473994  -1.1816441
   0.5400296   0.4135418  -0.2304193  -0.0766247   0.0659112  -0.0268617
  -0.9833808   0.0161067   0.0853281  -0.0273854  -0.1244973  -0.4948994
  -0.0808582   0.1001826   0.2289685  -0.1204616   0.3537647  -0.2106763
  -0.3611912  -0.0942475   0.4313919   0.2850862   0.0241027  -0.5184149
   0.9341715  -1.1216967  -0.8894439   0.8104532  -0.8839950   1.1829647
  -0.3162385  -0.5022862   0.0057821   0.0600603  -0.2252747  -0.0108328
   2.2755096   0.9400814   1.2631793  -0.0851339  -0.0152053  -0.1936909
  -0.1921222   0.0817993   0.9385202   0.5065132  -0.8491869  -0.2597385
  -0.0980201   0.1358315   0.0335774   0.4276460   0.5407751   0.7264603
   0.0345215   0.2729401  -0.0131139   0.0157506  -0.0721170   0.0802227
   0.7716791  -0.7500070   1.1568255  -0.2874067   0.5675334   0.2471263
  -0.0482447   0.1117331  -0.2516034   0.1961937  -0.4688493   0.6303381
  -0.1714418   0.2269354  -0.7789259  -0.1508816   0.0248937  -0.2324100
   0.0778437  -0.1611915   0.5623839  -0.0409240  -0.9081818  -0.6856080
  -0.1049905   0.3709283   0.0556170   0.0455263   1.2656190   1.0841899
   0.8323420   0.7288522  -0.3464425  -0.1145846   0.0968724  -0.0612951
  -0.3629011  -0.2786696  -0.1400435  -0.4043499  -0.3982539   0.7686444
   0.1122869  -0.1931391  -0.1930889  -0.0608464  -0.3612408   0.8548487
   0.2596763   0.5343103   1.2580725   0.2595072   0.1331395  -0.0707183
   0.8599040  -0.8711506   1.3812393  -0.0649030   0.5785390  -0.5573655
   0.0507212   0.0251407   0.1160334  -0.2486611  -1.0663315  -0.3889177
  -0.9463392   0.6711941  -1.1328803   0.0309969   0.0843268  -0.1007241
   0.3647636  -0.3556488  -1.3258473   0.0306408   0.9345738   1.4868509
  -0.1210411  -0.1517675  -0.1098644  -0.6895092   0.1443916   0.5512017
   0.1998848   0.7268511   1.0874183  -0.1772177  -0.1201265   0.1174306
  -0.8435751  -0.4717394  -0.2577925   1.3372268  -0.4893834  -0.5867130
  -0.0288607  -0.2282168   0.0791711  -0.1977231  -0.3785319  -1.1653636
   0.1017196  -0.1425449  -0.8143925   0.3295393  -0.0312140  -0.1158596
   0.1965058  -0.3141529  -0.1816515  -0.8692404  -1.2786622   1.1023945
   0.0508946   0.1559586  -0.1557590  -0.5146984  -1.6768931   1.0815299
  -0.0482537  -0.3970981   0.8650979  -0.3361449   0.2587228  -0.2463605
   1.6858570  -0.2883467   0.3331712  -0.6023346   1.3248081  -0.0949569
   0.0352899  -0.1104714  -0.1834889   0.8002076   0.4918388  -1.0599388
   0.6738492  -0.8688309   0.4092867   0.4043357   0.1645968  -0.2122629
   0.2576365  -0.4117094  -0.6151840   0.5493100   1.0590138   0.3517283
   0.1731512  -0.0592364  -0.0245587   0.3817201   0.9535989  -1.0700813
   1.3381527   0.7597860  -0.2031847   0.1546014  -0.1924263   0.1592157
  -0.8933324   0.9087177  -1.0164165   0.2307984   0.3301045   0.0458770
  -0.2314227   0.1741207   0.4012071  -1.8620668   1.4782289   0.1616461
  -0.4822881  -0.2245409  -0.0678562   0.0400742   0.1981740  -0.3050380
   0.2379616   0.2119174   0.6701827   0.4946681  -0.7331439  -0.4039201
  -0.0860981  -0.3115767   0.0416419  -0.6217974   0.2700036  -0.8171957
  -0.2722580  -0.4590583   0.1293279  -0.1234405   0.0051992  -0.3853932
   0.1711075  -0.2270259  -1.1971857   0.1494264   0.3470741  -0.6101031
  -0.0119090  -0.0239494   0.1181084   0.2982416  -0.4645059   0.9452098
   0.5771163   1.3019104   0.9799541   0.1045366  -0.2117352  -0.2506106
   0.2862133   0.4669001  -0.5929863  -1.0145122   1.5974191   0.5797564
  -0.0817256  -0.2692853   0.2403429   0.6299182   0.2706224  -1.1135653
  -0.5906059  -0.5045130   0.0824720   0.0224812   0.1616875  -0.1123408
   0.0460981   0.0978267  -0.0925908   0.8852051  -0.5915714   0.8718749
  -0.3155488   0.3213448  -0.0944090   0.5170617  -1.3346756  -0.1532560
   0.4753114   0.3280438  -0.5227541  -0.2042565   0.3219835   0.0833300
  -0.2625045  -0.3433022   0.1158946   0.6698130  -0.0431517   0.4372394
   0.1975547  -0.0003947   0.0453738   0.4968485   1.4595343  -0.1004240
  -1.0863694  -0.5714115   0.7484849   0.0467529   0.0082593   0.0544905
  -0.4521890   0.0282237   0.1288124   1.6368562   0.0272479  -0.2315301
  -0.2453580  -0.2718522  -0.1137521  -0.0872882   0.7668640   0.2516581
  -0.3808529  -0.3805826   0.8773499   0.0443059   0.0711496   0.3836856
  -0.5572948   0.8862698  -0.9586524  -0.5074744   0.9825113   0.0072101
  -0.0937491   0.0739749   0.1238982  -1.7922715   1.0449462  -0.1015665
   0.0660954   0.2238496   0.2659091   0.4232090   0.1172219   0.1770833
  -0.4277729   0.0696921   0.6167349   0.0378395  -0.4002795   0.7366108
  -0.1887476  -0.0267264   0.2428784  -1.8017517   0.4671841   0.8738371
  -0.1723512  -1.0328625   0.2662117  -0.3770843  -0.3297614   0.3906858
   0.8659565   0.0108706   1.0667174   0.1291610  -1.0133192  -0.2166353
   0.5572169   0.1682948   0.3030856  -0.1374261   0.7876677   0.9367690
   0.5295384  -0.4130119  -0.2101758  -0.2748259   0.0414139  -0.0753255
   0.1373578   0.2664587  -0.4141254  -0.7164147  -1.0638028  -0.5541332
  -0.3108648   0.2100085   0.1379301  -0.7602400   0.0749979  -0.9675471
  -1.1687491   0.3920589   0.7638731  -0.0388075  -0.0665891  -0.1023366
  -0.0915110   0.6251845   0.9900819  -0.7109777  -0.4127447   0.7015137
   0.0759570   0.0725041  -0.2594976  -0.7959784   1.9165172   0.4799318
   0.6967022   0.8868835   0.7313176  -0.1905384   0.2627950  -0.3081076
  -0.3941117   0.2918460   0.3240964   0.5795640   1.7260358   0.3584361
  -0.1343570   0.0455178  -0.1836938  -1.3399894  -1.1532473   0.2965658
   0.3357968  -0.7491642   0.0327802  -0.1168550  -0.1253829   0.1653126
  -0.4609054   0.0315606   1.5049321  -0.0553812  -0.9169339  -0.8656084
  -0.2813341   0.1522914   0.0211265  -0.2407342  -1.1946630  -0.5482934
  -0.4249425  -0.4487124  -0.4045796   0.2076315  -0.2544013  -0.3374450
  -0.4699554  -1.0844008   0.1998625  -0.1465214   0.9183738  -0.4835080
   0.3367951   0.0728062   0.1793022   0.2418692   1.6822973  -0.0399953
  -0.8394638  -2.0181447   0.5542042   0.3492538  -0.0938498  -0.0931873
  -0.2513612   1.8960808  -0.9263867   1.3511163  -1.9795815   0.0777337
  -0.0220010  -0.0990854   0.0582673   0.5072069  -1.7063322   0.4974776
   0.8509252   0.5660288   0.3972705   0.1610111   0.1336444  -0.2829693
   1.9812341   0.5976528   1.2306584  -0.3765818   0.4483137  -1.0606646
  -0.0492883   0.1029587   0.1884429  -0.7501053  -0.1392541   0.2301560
   0.4239591  -0.2375648   0.7279936   0.0605967   0.2280907  -0.2285930
   0.1657958   0.4386939  -0.1454547   0.2389140  -0.5753065  -1.5954857
   0.1248738  -0.0237324   0.0923388  -1.0661152   0.7848326  -0.5813086
   1.1869842  -1.1544273  -1.6841869  -0.3305307   0.0537510  -0.2285616
   0.8245305  -0.9089575  -1.0823438   0.2675709   0.4845202   0.5287283
  -0.0479645   0.0981668  -0.0457384   0.0223302  -0.9286155   0.1206870
  -0.2878049   0.3525456   0.4715715   0.1687401   0.1415468   0.0826590
   0.9328389  -0.1438152  -0.1451037   1.1943308   0.7447389  -0.2849378
  -0.2883463   0.1207785  -0.1083777   0.7320053  -2.0829853  -0.5023880
   0.5485172   0.5020206  -1.1686359   0.2311326   0.0029005  -0.3106208
  -0.4731733   0.7363459  -0.1228491  -0.1519835   0.3138153  -0.7082801
  -0.0285009   0.0113893   0.1184356   0.8708257  -0.3284947  -0.9123134
   1.5737569  -0.0894646  -0.9453542   0.1282373   0.1141683  -0.0071639
  -0.3639249  -0.1892526  -0.6780244   0.9460984  -0.7499170   0.6944905
   0.1997110  -0.3578950   0.0760164  -1.0222497   0.2372128   0.5654254
   0.8609262   0.0141695  -0.2658446   0.1119799  -0.6763396   0.1380508
   0.9827802  -0.2086835  -0.6679646   1.4247682  -0.4479786   0.7806522
   0.2292469   0.0390950  -0.4265920   0.3772966  -0.7077804   0.2592580
   1.1382980   0.0633940   0.0552650  -0.4555382  -0.1223905   0.0708202
  -0.4088175  -0.5255504  -0.9384170  -1.0762230  -1.0268993  -1.4660047
  -0.3471713   0.0139843   0.1278396   0.6475115  -0.3990349  -0.1880461
   0.1595070  -0.9358611  -1.0144591  -0.0901294  -0.3606359  -0.0033884
  -1.0653905  -0.3015432   0.2517358   0.2743397  -0.0731112  -0.5955171
   0.1398276   0.2335055  -0.0966065  -0.6258381  -0.8071983   0.0648136
   0.3137928  -0.6108226   1.1723351  -0.0283051  -0.1108368  -0.1200863
  -1.2437131  -1.4570528  -1.0808876  -0.1770344   0.6597157  -0.6880101
  -0.0169626  -0.3047562  -0.0630531   0.8400978  -0.4681521   0.0019361
  -0.4729569  -0.4836949   0.0204332  -0.1313920  -0.0889510  -0.1085978
   0.1068595   0.5445724   0.8607350  -0.3300929  -0.1254062  -0.5650041
  -0.0276208   0.3236467  -0.3914824  -2.1673494  -1.1487368  -0.4901722
  -0.4311788  -0.3033735  -1.2142135  -0.1297209  -0.1220864  -0.0351244
   0.7601537   0.0661149  -0.6462330   0.2193374  -0.6884362  -0.3592915
   0.1761864  -0.0990280  -0.0214736   0.5236261   1.0318433  -0.7014173
   0.3205223  -0.9791658   1.2828418  -0.2856760  -0.3998443   0.2027544
  -1.3039575   0.5002036   0.8735915  -0.3050586  -0.2418438   0.6710683
   0.2838111  -0.0530837   0.2402820   0.4443250   0.2190066  -0.0740925
   1.1117275   0.7565250   0.8372014   0.3068048   0.0559243  -0.2635851
  -0.6247227  -0.7198349   0.0800229  -0.7275733  -1.6576575   0.3883824
   0.0051086  -0.0040188  -0.0842962   0.4216110  -0.0998926   0.1600304
  -0.3521892  -0.2698854   0.0353402   0.1597334  -0.0833211  -0.1774398
   0.0509629   0.7545250  -0.0438445   0.6119849  -0.6596616   0.6920147
  -0.0713868   0.1227471  -0.3288141  -1.4311571   0.6253515   0.1632962
   0.1044222   0.8891843  -0.1671494   0.1106234   0.1611306   0.1321678
  -1.2107921   1.0956401   0.3796947   0.9150569  -1.1228217  -0.8976587
   0.3230937  -0.1328268   0.0874479   0.7930825   0.7123919  -0.5867707
  -1.1712769   0.5864612  -0.3182421   0.2091845   0.3498784   0.3959482
   0.1275819  -0.5071138   0.7703840   0.4871900  -0.7249847   0.6859457
  -0.1861892   0.2247931  -0.2382980   0.7034477   0.0598687   0.0019722
   0.1960573  -0.1485200   0.8775494  -0.1530968  -0.0179741  -0.0775904
  -1.8066819   0.3167751  -0.1886879   1.4010441   0.2616148  -0.4301591
  -0.0107215  -0.0465923  -0.1358289  -1.7742957   0.0601717  -0.6303536
   0.4232379  -1.3446698  -0.8367945   0.3357009   0.2343763   0.1416953
   0.9873060   0.1731845   0.8429038  -0.7482686   0.6849167  -0.1016377
   0.1078442   0.0623007  -0.0333223  -0.4799529  -0.5559921  -0.2614663
  -0.8980777   0.2663964  -0.9478071   0.3754985  -0.1012510  -0.2636845
  -0.9320587   1.0546388   0.4080726   0.1981380  -0.7085343   0.7250184
   0.0299885  -0.0877656   0.3068190   0.8587706   0.7322923  -0.3460679
   0.0931460  -0.5551996   0.8832785   0.1378716  -0.1249563   0.1377407
  -0.2927464  -0.1581446  -0.0099324   0.0706564  -1.1835256   0.2741895
   0.1386928   0.4207600  -0.0490519  -0.9454152   0.8195636  -0.9129844
   0.0113806  -0.5330002   0.4828677   0.0543525  -0.0118156  -0.0920454
   0.3267280  -0.2377894   0.0133129  -1.6843487  -0.4152162  -0.1486191
  -0.2331395  -0.1048140   0.1229118   1.8118181   0.9823748  -0.6865366
   0.0637983  -0.4382989  -0.3046517   0.1273075   0.1639692   0.2968762
  -0.2823026  -0.6235227  -1.9146971  -0.0341704   0.7030672  -1.2832374
   0.0165974  -0.0479224  -0.0374693   0.0805315   0.5518304   0.3727175
   1.2493498   0.2857410   0.8562495  -0.0540436   0.0574788  -0.2264510
   1.5372994  -0.8983974  -0.8966392   0.3613728   0.4611156   0.2874579
  -0.0836459   0.4593729  -0.0663747   0.5140392   0.8364135  -0.7390817
  -0.0568770  -1.0100007  -1.1970925   0.0551509   0.0226255   0.3736742
  -1.5426993  -0.4845428   0.8979884  -0.0824744   0.1162182   0.5822810
  -0.0848775   0.0734523  -0.1104143  -0.5951862  -0.8898936   2.4866428
   0.5266226  -0.6404482   0.5102913   0.1283425   0.1234175   0.2060091
   0.2372812  -0.4757761  -0.6416779  -0.5627630  -1.1785351  -0.9541074
  -0.4303130   0.0914338   0.3025880  -0.1768668   1.0055271  -0.5827343
   0.3825090  -0.1261441   0.4024731   0.1252424   0.0685507  -0.0478838
   0.4203079   0.3296928  -0.1565092  -0.5037281  -0.4074670   0.8980106
   0.0027279  -0.2161857  -0.1752607   0.2768276  -0.9770796   1.8236963
   0.0218082  -0.2931313  -0.4659098   0.1696420   0.0096129  -0.1517832
  -0.2926865  -0.3977993   0.8810366  -0.0933172   0.0547380  -0.5447994
   0.2078889   0.1484360   0.2111497   0.2809120   0.9655339   0.5516679
   0.0466885   0.6206290   0.6685540   0.1501045  -0.3675062  -0.2535296
   0.9479533   0.2142811  -0.5169867  -1.6333750   0.1688070   0.3868461
   0.0579148  -0.0677757  -0.1152293  -1.0670825   0.5120220  -1.0145180
   0.7325545   0.1048923   0.4123559   0.1631533   0.2122961   0.0915798
   0.2494411  -0.1392061   0.7990544   0.4415347  -1.5039359   0.0925272
   0.0581826  -0.2082874  -0.0978976  -0.4018724  -0.3018638  -1.9520835
  -0.9345939  -0.4601315   1.5879215  -0.1143082  -0.2528505   0.0935627
   0.3042951  -0.5361620  -0.0001130  -0.2376782   0.7891514  -1.0556734
  -0.4623711   0.3271590   0.2219794  -0.9322848   1.2141694  -0.2106803
   0.1521894  -1.0803028   0.2655733   0.0063437  -0.1601991   0.0054131
   0.5986270  -1.1656182   0.0973204   0.1161859  -0.6073656  -0.5575203
  -0.1373346   0.3721864  -0.1171048  -0.6490535   0.6730289   0.4795908
   0.0237189  -0.1802616   0.0926756  -0.0060438   0.1333581   0.3030967
  -0.0980549  -1.7347798   0.0817065  -0.1692255   0.5480277  -0.3455773
   0.2548405  -0.1232765  -0.0489923   0.0471328  -0.4737238  -0.1202635
  -0.9409097   0.3910171  -0.1827812  -0.0541621  -0.4428971   0.0659865
   0.0692773   0.1765379  -0.6077671  -0.6339854   0.1771542   0.1350544
   0.0191342   0.1546335  -0.3212379  -0.4440469  -0.3671754  -0.9669546
  -0.9957180  -0.6244541  -0.6472980   0.0686242  -0.2780211  -0.1655168
  -0.4461704  -1.2504785   0.4127022   0.0663409   0.4984229  -0.7091033
   0.0962417   0.3074283   0.0529911  -1.8294405   0.3101360  -0.1892231
  -0.6179329   0.6619355  -0.1063527  -0.2283152   0.2515765   0.0504271
   0.6167223  -0.0187372  -0.7299600  -1.5137256   0.4486842  -0.4121484
  -0.2470116   0.1262604   0.0361433   1.7011366  -0.7275871  -0.1726270
  -0.2983923   0.3592203  -0.3441460  -0.2506301   0.1405623  -0.1110027
  -1.4696594  -0.0819043  -0.2820367   0.8751634  -0.5391962   0.0991160
  -0.3526328   0.1187281   0.2074130  -0.4233019  -0.0087891  -0.5003577
  -0.2879457  -0.3936688  -1.3163269   0.1205991  -0.1853896  -0.3778214
  -0.2967948   0.4262089   1.2320237   0.6411680   0.2878943   1.3217363
   0.1821951  -0.2271090  -0.2117123   0.5820591   0.5032217  -0.0105543
  -0.1567451  -0.5538303   0.5210777   0.0462121   0.3008706   0.1978766
  -1.2587298  -1.3786730  -0.6412676   0.8370132   0.1685836  -0.2453010
  -0.0044557   0.1093672  -0.2619605   0.4371739  -0.7672483  -0.1366824
   0.0808748   0.1430667  -0.1180067  -0.0248742  -0.3114673  -0.4737626
   0.8332919  -0.9814132   0.3700653   0.1041535   0.3067283  -0.1537206
  -0.0174704   0.0683246  -0.0674077   0.9912891   0.6774621   0.0104264
   0.3347364  -0.5220723  -1.1669828  -0.0327978  -0.2815944  -0.3563724
  -0.3088469   0.1249374   0.6312261  -0.9443406  -0.5655570  -0.1209141
  -0.0795098  -0.0481110   0.1777013   0.3717089   0.4581996   0.0274747
  -0.7038217  -0.8841452   0.6056468   0.3901248  -0.1585970   0.0205844
   1.0025411  -0.6588261  -0.3670626  -0.4465068  -1.2982996  -1.2021693
  -0.0194266  -0.1606234  -0.2422395  -0.3527068   0.6386276  -0.7330408
   0.2603055  -0.0550181  -0.1456079   0.0334490   0.0064708  -0.1401497
   1.5470084  -0.0038835   0.4818959  -0.6186289   0.3076505  -0.0366786
   0.0225953   0.1138071   0.0290376  -0.2300863   0.7306447   1.3061112
  -0.7759659  -0.2105669  -0.0137841  -0.2754373   0.2309954   0.5191872
  -0.9120319  -0.8835863   0.1454974   1.0139906   0.6757627   0.8872458
  -0.1665815   0.0283353   0.2108094  -0.0585561  -0.8212448  -0.3536225
  -1.1183181   0.9424712   0.8389276   0.2128264  -0.1022105   0.3701794
   0.2763797   0.1290817  -0.2301966   0.5136136  -0.5185643   0.7580338
  -0.0703570   0.0461989   0.2217693   1.0856871  -0.8068233  -0.6445913
   0.7856792  -0.0661535  -0.3023149  -0.0687473  -0.3279641  -0.3490284
   2.3433828   0.1710231  -0.6754227   0.0399220  -0.2996466   0.6604805
  -0.1295317   0.2529746   0.0155514  -0.2986587   0.2663881   1.2073198
  -0.6936858  -0.6968337   0.6041229  -0.0071065  -0.0440303   0.5084841
  -1.5027970  -0.3139123   0.5291966   0.2763611   0.3539107  -1.2600082
   0.1416036  -0.0230002   0.3580552   0.0129345   0.0433284  -0.4852000
   0.8494667   0.5088428   0.3262509   0.3001976  -0.1005848  -0.2911528
   1.3223006  -0.5509244  -0.7542881   0.0357966  -0.3248924   0.0381629
  -0.1090307  -0.1650923   0.0801620   0.9524858   1.6455526  -0.0343124
  -1.4786281   0.1925113  -0.4682595   0.0273839   0.3740803   0.3003587
  -0.3824780  -1.6049060   0.8702093  -1.0099322   1.5329823   0.3817448
  -0.3411207  -0.0367017  -0.2609522  -0.8518813   0.3083768  -0.7002773
   0.2647642  -0.4233070   0.0057184  -0.1229706   0.0183393  -0.2278483
  -0.7681809   0.0246484  -1.2894413   0.3705955  -0.1931436   0.4709892
  -0.0734342   0.3746363  -0.0762864  -0.9968098   0.3738834   0.7103171
  -0.0612628   0.0957520   0.3133250  -0.1628743   0.0805991  -0.1844097
  -1.3603344  -0.8113349  -1.9057484  -0.6750337   0.1896790   0.0906049
   0.1737421   0.2978266   0.3364800   0.0701516   0.0201328   0.3637881
  -0.4470464  -0.2054488   0.2972105  -0.0073915   0.1179255  -0.0830082
   0.6169280   0.5445596   1.0520869  -0.5408206   0.6912510  -1.1170542
  -0.1322633  -0.2421199  -0.3080092   0.1538343  -0.0526778   0.6950326
   0.6519965  -0.4115410   0.3950891  -0.2571826  -0.1649741  -0.2082891
  -0.2847589  -0.2695571   1.0779192  -0.0196522  -0.4386551   0.8143129
  -0.2222115   0.0798482  -0.0803920   0.0664406  -0.9843810   0.9804689
  -0.1593111   0.2020413   0.0417169  -0.1140366   0.3506672   0.1268211
   0.1361286  -0.2543081  -0.5438496  -0.7113306   1.0375649  -1.3217064
   0.2372733   0.0201971  -0.0844263   0.6097566   0.2536674  -0.4400914
  -0.2344838   0.0618383  -0.4215170  -0.0751802   0.0048248   0.0118044
   1.5144135  -0.2301707   0.6854716  -0.6694549   0.7012045  -1.1326307
  -0.0444389   0.0195505  -0.1386981  -0.0717218  -0.7939350   0.9632531
  -0.5596168   0.2693345  -1.5248364   0.4829602   0.4273112  -0.2200605
  -0.1294744  -0.7516203   0.8210126   0.9553813   0.1746830   1.7389452
  -0.1020330   0.2254436   0.0436968   0.0173857  -0.2744057  -0.6151655
  -0.3201386  -0.8868477   0.4334094   0.1200348  -0.3929750   0.2220282
  -1.7356334  -0.2267066  -0.1432629  -0.2917621   0.1896035  -0.1957982
   0.0436080   0.2027668   0.1506722  -0.1231394   0.0929398   0.4322932
   0.6899907  -0.8684336   0.3675217   0.2149759   0.0268623   0.0533156
  -0.5057535   0.4741178   0.2762098  -0.8988097   1.1588505  -1.2109239
   0.3370986  -0.1113452   0.2938309   0.3698683   1.1749574  -0.3181553
   0.2671979  -0.9797697  -0.0792492  -0.1131096  -0.0537511  -0.2792076
   0.3571317   0.5372454  -0.7164249  -1.1829001  -0.7894927  -0.4451695
   0.1148806   0.0949058   0.2281341  -0.8244248  -0.5158779   0.1023583
  -0.2816354  -0.6786850   1.4970501  -0.1765432   0.0450307   0.0113867
  -0.0403468   1.5396822   0.3619464   0.2404856   0.7132810  -1.0997309
   0.0064405  -0.0939353   0.2771556   0.3026602  -0.4520146  -0.1529401
  -0.8047753   0.4843205  -1.8905148  -0.1108352   0.0551393   0.0151119
  -1.2535950   0.3284080  -1.5826669  -0.9766089  -0.0167071  -0.6698209
   0.1726768   0.2074025   0.3011735  -0.0697887  -1.2004302   0.4700845
   0.1775961   1.0068485   0.4623967   0.2413355   0.1430712   0.0127444
   0.0463377  -0.4063798  -0.1389263   0.6420691  -0.1550475   0.3864641
  -0.1510506   0.0135671  -0.0470642  -0.2525033  -0.0624889   0.1249287
   0.8304684   0.4220176   0.7725126   0.1340218   0.0000508  -0.1634184
  -0.2551212  -0.3653188  -0.3916516   0.8579336  -0.5391442   0.0391150
   0.0659883   0.1470100  -0.0295503  -0.6608967  -0.5642451  -0.0654280
  -1.0632781   0.4071032  -0.4011830  -0.1562600  -0.2570867   0.1226649
  -0.5580977  -0.1928539  -0.2928336  -0.9904962  -0.2789229   0.0469849
  -0.1769737   0.0723503   0.0413415  -1.1570007  -0.8776184  -1.0621977
  -0.0163186  -0.0616880   0.4289029   0.1068968   0.0691452  -0.0071795
  -1.1907592   1.0163756   0.4886544   0.3765612   0.2848377  -0.9957423
  -0.0816609   0.1927381   0.3030675   1.0026006   0.8256153  -0.6935623
  -0.9321534   1.7711552   0.0082640   0.1401511  -0.0895987  -0.0787304
   0.7270421   0.4694309  -0.3832498   0.5492648  -0.3082602   0.8069298
  -0.1039498   0.1845768   0.1837037   1.8541532   0.5506566   0.0405618
   1.5758536  -0.0704886  -0.0586542  -0.0952996  -0.1153273   0.0977613
   0.9878723  -0.2947298   0.5897401   1.1857680  -1.3274099  -0.3031794
  -0.4235516  -0.1707157  -0.0164973  -0.5267138   1.5565284   0.3501283
   0.2605413  -1.0038656   0.6400733   0.1231405   0.0421270  -0.2188354
  -0.3714997  -0.2407681  -0.5086338  -0.5845866  -0.2944927   0.2956814
   0.0126109  -0.2480504   0.1019385   0.8482848   1.0548881   0.3705011
  -0.1668324  -0.4553174   0.0406775   0.0103209   0.0394721   0.2555209
   1.1422758   0.6420569   0.8268381  -0.4388582  -0.3267941  -0.7701826
  -0.0763274   0.0776742  -0.1083177  -0.5333094   0.7651229  -1.5566373
  -0.6237865   0.5589116  -0.4475938   0.2227244  -0.0176483  -0.3748381
   0.1132473   0.2419586  -0.6386851  -1.0996917  -0.4525338  -0.3541600
   0.0350795   0.0778469   0.1386725   0.8924151  -0.2020621  -1.4996516
   0.0709829  -0.1097011   0.7660004   0.1888832  -0.0445882  -0.2223448
   0.5338427   0.3582125   0.0578137  -0.2431956   0.1994227   1.1393612
  -0.2736260   0.0505734   0.2642908  -0.8686933   0.5465415   0.5198517
  -0.6562787  -0.1239600   0.7760177   0.1440268  -0.2546347   0.0593629
   1.1206688  -0.1339192   0.2547480  -0.6726936   0.9063853  -0.5645052
  -0.0397957   0.2287435   0.0794102  -0.1582024   0.3029308   0.7278075
  -0.5677164   0.6548504   0.7976346  -0.0252616  -0.0798124  -0.0348422
  -0.1077312  -1.0596765  -0.4839605   0.5905647   0.2220601  -1.5784195
   0.0810839  -0.2350520  -0.1514826  -0.0595266  -0.0153269  -0.9374596
   0.3972924   0.2735621   0.3586980  -0.0617352  -0.2227526  -0.0630482
  -0.8796415   0.2379732   0.2124211   1.1663399  -0.3432965  -0.3732430
  -0.1070927  -0.2045459   0.0402754  -0.3528122   1.0999001   0.8006302
  -0.1697338   1.5215305   0.2826235   0.1673153   0.1708461   0.1421509
  -0.2957111  -0.2127941   0.1235647   0.2975727  -0.0902757   0.6316102
  -0.2241991  -0.0815218  -0.1465791   2.1595887  -0.4969111   0.1744995
  -1.4691408  -1.5745251   0.9983820   0.3303842   0.2519731  -0.2939977
  -0.2093733   2.0044561   0.0534111  -0.4642684   2.3216793  -0.8120525
  -0.0937767   0.2636427   0.0417055  -0.1059683  -1.0323954   0.7443357
   0.6265202   0.3401194   0.6891828  -0.0695566  -0.0276335   0.0830307
   0.2598242   0.9393930   0.3770858  -0.3374221  -0.0666946   0.6472169
  -0.2030951  -0.0378381   0.2731233  -0.7660309  -0.4929824  -1.1589970
  -1.0292849   0.6953695  -1.5641695  -0.0653388  -0.1815001   0.1021972
  -0.2970172  -0.0986458  -0.3037014  -0.5139957  -0.7072341  -0.1301070
   0.0715194  -0.2934749  -0.0471665   0.0361780  -0.3013332   0.2004187
   0.2657010   0.4817748  -0.4708927   0.2231973   0.0155964   0.0871887
   0.4239849  -0.8893856   0.6406574  -1.3646449   0.2377905  -0.0176801
  -0.1480261  -0.0796749   0.0262886  -0.0696038  -0.0522577   0.9399961
   0.6353031   0.9506824   0.9988854   0.0843526  -0.2701197  -0.1441118
   0.8172241  -0.7470439   0.8908174   0.9199487   1.5621556  -0.8359905
   0.1426992   0.1368496  -0.1470956   0.8511413   0.3310458   0.2919983
   0.1964921   0.5283878   0.0452915   0.3056734   0.0301332   0.1568282
  -0.8242892  -1.4028418  -0.0308121   0.1532463   1.7044264  -0.8609847
  -0.0178724   0.2952031  -0.0111057  -0.5466067  -1.0326456   0.4430527
  -0.2444977  -1.0881521   0.3988674   0.1800175   0.3730775  -0.0920282
  -0.0320187   0.1939423   0.3922434   0.2659136   0.6447949   1.0094325
  -0.1049919  -0.3061404  -0.0671921   0.7165368   0.0064911   0.9251356
  -0.2490365   1.1736873   0.3398830  -0.3444622   0.1204098   0.0693668
   0.8814450  -0.1730439   0.4209913  -0.4503032   0.3262820  -0.1110769
   0.1823945   0.0114473  -0.0058834  -0.6942716  -0.0952161   0.2713996
   0.0681152  -0.1217378   1.4148737  -0.1114505   0.2589360  -0.0900448
  -0.1173779  -0.5351734   0.0496603  -0.8898498  -1.0992065  -0.4379206
  -0.3668092   0.0454989   0.1817423  -1.0639647  -0.8833854   0.2362607
  -0.9873023  -1.1789137   0.1232020  -0.3165997   0.1175473  -0.0966851
  -0.8103967   0.1847697   0.2718642   0.2867739  -0.0898413  -1.4582821
  -0.2310468   0.1447404   0.0140670  -1.0576917   0.0281671  -1.5967805
   1.2812328   0.2692122   0.2011301   0.3514896   0.1532692  -0.2079324
  -0.1550441  -1.1963307  -1.0914027  -0.9288830  -0.8817849  -0.7999244
  -0.1264222   0.1955124  -0.1070300  -0.3894345   0.3931259  -1.0435044
   0.1577113   0.4087041   0.2204459  -0.0587823   0.0977801   0.4855934
  -0.2242918   0.9665547  -1.4012655   0.5507754   1.1491445   1.7454753
  -0.1947717   0.3039022   0.1265842  -0.1529837   0.1254255  -1.2831038
   0.2004904   0.7905605   1.3878598   0.1648444   0.4934168  -0.1303577
   0.6127947   0.1280538  -1.4488190  -0.1486669  -1.0050473   0.5287555
  -0.0115768   0.1518552   0.1801591  -0.5663097  -1.0721105   0.1250732
  -0.0942338   0.1036910   0.0519334   0.0813100   0.1026527   0.3256620
   0.5704727  -0.0612971  -0.0706081  -0.7912096  -0.1507657   0.0678658
  -0.1179700  -0.0943500   0.0872937  -0.0626579   1.1137839  -0.7659250
  -0.6180250  -1.2578216   0.0847743  -0.3027252   0.3246805  -0.0691593
   0.8115981   0.7101554  -0.0980709  -0.0079366   0.9261132  -0.0793871
  -0.2061384  -0.4162090  -0.2227222   0.0673660   0.7611274  -1.1918693
   1.0597908   0.1926753  -0.6575150   0.1200970   0.4622064   0.0109889
  -0.3714475  -0.3062840  -1.3177618   0.2318607  -0.4943024  -0.4299701
  -0.2022238  -0.4695502  -0.1403496   0.6001140   0.4053066   1.2370503
  -1.5107188  -0.4735460   1.2509978   0.1773978  -0.1183949  -0.3717773
   0.5813839   1.1216642  -0.0889693  -0.9795486   0.1279990   0.2134787
   0.0276194   0.0787948   0.0639173   0.1351853   0.5700637   0.2333020
   0.4622072  -0.9511356  -1.2181422  -0.0272559  -0.2573246   0.0012840
   0.7027335  -0.1134576   0.3241087   0.3295870   0.5326916   0.2946456
   0.1157424   0.1191691   0.0669226   0.0114562  -0.4418024   0.2035339
   0.6182214   1.2293668   1.0800243   0.0441256  -0.1802980  -0.0860307
   0.7097213   0.4906252   1.0331518   0.2713759   0.0011657   0.3849722
   0.1793248  -0.0629280  -0.0023915   0.6014103   1.9781988   0.5504648
   0.1530261  -1.0859730   0.0905605   0.0159430  -0.0139623  -0.1641392
   1.0448949   1.0013747   2.0621162  -0.6274356   0.9414626   0.5536718
  -0.0853420   0.3503562   0.0716476  -0.6418794  -0.7472217  -1.2723321
  -0.2846274  -0.3851038   0.6380069  -0.0991844  -0.1769309  -0.1076070
  -0.5115660   0.6649236  -0.6649147  -0.6015928   0.4282621  -0.8862892
   0.0479367   0.0009877   0.0235104  -0.7931018  -0.0947024   0.0046757
   0.6415401  -0.3916381   0.6439734  -0.0936380   0.1706193  -0.3903102
   0.2813727  -1.0872746  -0.6375338  -0.4003916  -1.1283209   0.1854871
  -0.0885613   0.2141288  -0.1780736   0.4269140   0.1438877  -0.0035052
   0.8262879   0.3646854   0.0009152   0.2732871   0.2405167   0.1410049
  -1.9331504  -0.9487567  -0.1061727  -0.3757040  -0.0897913  -0.3184042
   0.0389440  -0.3016674   0.0144234  -1.3595207  -0.2512481  -0.6526879
   0.0791653  -1.5774756  -0.4665565  -0.0381756  -0.0885571   0.0364434
   0.8208350  -0.5183329   0.8499189   0.3742108  -0.3187799   0.2779713
  -0.1096915  -0.0280871   0.2062711   0.9569769   0.3967429   0.5597800
  -0.1363103   1.4977625   0.0734012   0.1976694   0.2270524  -0.0939380
  -1.4494647   1.7031983   0.0093923   1.0346572  -0.5398331  -0.0093013
   0.0736900  -0.4110893  -0.0711515   0.0635782  -0.2741507  -0.0720731
   0.7333617   1.3841687  -0.0230403   0.1586224   0.0676080   0.1160293
   1.0668815   1.0834277  -1.3861978  -0.9756971   1.5333822   1.0701155
   0.5480004   0.0855782  -0.0044951   1.0141816   0.7738488  -0.3912706
  -0.1508926  -0.3155690  -1.2172548  -0.1935267   0.0819892   0.2530791
   1.4315653  -0.2935013  -0.3506320   1.1938746   0.0087687  -0.4826502
   0.1627280  -0.0042757   0.0534573   0.5519386  -0.3811979   1.0348075
  -0.8450046  -0.0158166   0.4936156   0.4259478   0.0615307  -0.1044325
  -0.6068176  -0.3798736  -0.3963104  -0.5758700   0.2601726  -0.4326604
   0.0863906  -0.1715667  -0.1154637   0.1361909  -0.3234925  -0.2651914
  -1.2257278   0.7202139  -0.3549107  -0.0675756   0.1335947  -0.2403402
  -0.3968218  -0.1906670   0.9558468  -1.1958199   0.4447403   0.7553533
   0.2364368  -0.3795718  -0.0585265  -0.9685029   1.0842131  -0.3911458
   0.1887316   0.3354890   1.2334436   0.0074796  -0.3778109  -0.1613831
   0.1478317  -0.5656333  -0.2206025   0.5409154  -0.0153195  -0.3738651
  -0.0758929  -0.0023069   0.0078116  -0.5236024  -0.1173203   0.6781873
  -0.4123489   2.4603897  -1.3816835   0.0036685  -0.0837329   0.3497277
  -0.0228944   0.6652337  -1.1592268  -0.2483062   0.3996346   0.0127852
  -0.1700254  -0.1287769  -0.3211478   1.2387735  -1.0716468  -0.0271658
   0.0712187  -0.6559703  -0.9964178   0.0390951  -0.1245694  -0.1225269
  -1.5294900  -0.2787780  -0.8484941  -0.1412838  -0.6939917  -0.7044747
   0.0817735  -0.1677530   0.1858468   1.5306732   0.6887368   1.1396531
   0.6376590  -0.0080737  -0.2444650   0.1825268   0.1340944  -0.4010944
   1.3689204   0.2748312   1.1143764  -0.7892901  -0.8795643  -1.0062861
  -0.3612431  -0.1190576  -0.5859922  -0.0219764   1.4621583   1.1973556
  -0.3845979  -0.7708044  -0.0106613  -0.2281473   0.2036521   0.1232792
   0.1904601   0.2047583   0.5455296  -1.0944567   0.1804081  -1.2024925
   0.1897397   0.0013271  -0.3121803   0.5727019   0.9992736  -0.6613335
  -0.8211154   0.1369669   0.1148164   0.1267786  -0.2766388   0.0760548
  -0.4275982   0.3252368  -1.2489668  -0.4134054   0.7406888   1.0768307
  -0.1321595   0.1675498  -0.1634845  -1.0789818  -0.2817164   0.9744588
   0.1576989   0.4721465   0.6649700  -0.1724588   0.3832369   0.0297196
   0.1177451  -0.2553683   0.1482668  -0.7939787  -0.0905572  -0.4802813
  -0.3196930  -0.1252116   0.1144106   1.0355861  -0.2766873   0.0764024
   0.3267216  -0.3537871  -0.1024270  -0.2985732  -0.1183837  -0.3382695
  -1.1204069  -0.6012919   0.2810865   1.1050263   0.1675362   0.7761250
   0.2045723   0.1109333   0.0466583  -0.0309986   0.6444411  -0.3238151
  -0.2746367   0.1902542  -0.3371798   0.0780914  -0.2682712   0.3162034
  -0.2902053  -0.7152559   0.1560753  -0.1257241  -0.3757930   0.3599424
   0.2015805  -0.1920565  -0.0766332  -0.8777647   1.4083062   0.0740651
  -1.6440875  -1.3481777   0.0193167  -0.1382106  -0.1595370  -0.1855752
   0.3726525   0.1713040   0.0818953   0.1889341  -0.1903252   0.0347779
  -0.1576350   0.0666425  -0.1225589   0.6839081  -1.0418942  -0.6269321
   0.0444576  -0.2423918  -0.8899748  -0.0345647  -0.0523503  -0.1912736
   0.9341889   0.0034234   0.6697650   1.3402544   0.2086970  -0.1591664
  -0.0487323   0.1307252  -0.2514544  -0.5794778  -1.5188743  -0.0548108
   1.2056581   0.8881844   0.8954886   0.1865888   0.1819344  -0.3141574
   0.4497957  -0.7379698  -0.3612058  -0.3275745  -0.3634897   0.2011356
  -0.0104075  -0.2840877   0.0908150   0.4174003  -0.4473130   1.1319742
   1.7286524  -1.3327139  -1.2738913   0.1819544  -0.1172730   0.1524270
   0.4239920  -0.2254880  -0.5768436   0.7286332   0.4523594   1.1227807
  -0.0427440   0.0349420  -0.1659639  -1.1835878  -1.0359023  -3.1417677
   0.8574375  -0.4294826   1.0061068  -0.1563511   0.1999558   0.1549395
  -0.3129144   0.1734272   0.8059874  -0.3921227  -1.1920638   0.3063750
  -0.0332162  -0.1451243   0.3172368   0.3568845   1.7754958   1.3264694
   1.0673045  -0.1972900   0.3099035  -0.1052759   0.0591067   0.0489062
  -0.1074742  -0.2732533  -0.2684508  -0.8717491   0.2410464  -1.4200790
   0.2869743   0.2022751  -0.1970885  -0.2172960   1.4505509  -0.8205254
   0.5119538   0.1444605   0.2466381  -0.0041601   0.1620861   0.1764597
   1.3634250   0.4821581   0.0017793   0.2153126   1.0035974   0.9126631
  -0.0346974   0.1230822  -0.2219297   0.7412925   1.0381039  -1.0681566
  -0.4680195   0.0282934   0.1847488  -0.0471863  -0.3465182   0.1236644
   0.2590110  -0.3758462  -0.8084977  -0.6751148  -1.0055754   0.1471525
   0.0432058   0.1564675  -0.0620904  -0.4793349  -0.1801928   1.1292599
  -0.0753531   0.2724433  -0.3799707  -0.2124370  -0.0925023   0.1934788
  -0.3279359   1.4148190   0.6287823   0.2152899   0.0897620   0.9725564
   0.0805027  -0.0391944  -0.1705402  -1.1879979  -0.3159902  -0.1552062
  -0.8503678   0.1012469  -1.7166733   0.0134033  -0.0684797   0.0498256
   0.6959839   0.7683082  -0.6915324   0.7955369   0.0892052   0.6694255
  -0.3204432  -0.1681906  -0.0056325  -0.0970657  -0.4458786  -0.3340865
   0.0658873   1.4722940  -0.0836201  -0.1562148   0.0135890  -0.2618361
   0.6815454   0.3157711  -1.8513443  -0.0268601  -0.4205114  -0.3362813
   0.2426794   0.1515306   0.3616778   0.4660545   1.4902642  -0.8578800
   0.0725431  -0.9501408   0.0825403   0.3208681  -0.0226246  -0.0895429
   0.4030338  -0.7197386  -0.5326926   1.0122557   1.0399625  -0.9417797
  -0.0392733  -0.1116761   0.2392218   0.0967100  -1.0406524  -0.4080281
  -1.7840845  -0.3010352   0.0532487   0.0820561   0.1059377  -0.1063409
  -0.3504457  -0.4074783   0.6611705   0.8817590   0.7153527  -0.3384518
  -0.0542133   0.4731173  -0.2162389   0.8441884   1.7279422  -0.8799819
   0.3110081  -0.1462395   0.6657952   0.0437021   0.1817529  -0.0002147
   0.4594712  -0.8278258   0.1661205  -1.2443312   0.3800906   1.5174763
  -0.3795778   0.1215616  -0.1266029  -0.7819050   0.1584897  -0.4569887
   0.7350443  -0.8195848   1.0523054  -0.0026780   0.0938208   0.1543826
  -0.9084137  -0.0721258  -0.6496640   0.2127257   0.0912766   0.3848237
  -0.0271469   0.0704922   0.0357170  -0.8472601  -0.8950902  -0.5501881
   1.7057754   1.2880991  -0.5802841  -0.1717251   0.2540173  -0.2593322
   0.2560940   0.7763664  -0.5448470   1.0231604  -0.6724871   1.1976210
  -0.0169274  -0.0500493   0.0231288   0.1487754   0.8355688   0.9218769
   1.0817408  -0.8090823   0.0582791   0.3042765   0.1325400  -0.0311291
  -0.1468318  -0.7699019   0.9315004  -0.9487122   0.1725021   0.1477317
  -0.0537386   0.1934580  -0.0397105   0.5069561  -0.3018341  -0.9142485
  -0.6722013   0.4660237   0.6741621   0.0629954  -0.3276790   0.0601968
  -0.4603897  -0.0403325   0.6290585  -0.6496851   0.0710959  -0.3317971
  -0.2599742   0.1504974   0.4172875   0.5979402   1.9205174  -0.9852882
  -1.2111512   0.5705939   0.5792021   0.0120494  -0.1313795   0.1364369
   0.2073886   0.1275613   0.4940845  -0.8102895  -0.2408107   0.0272430
  -0.2068515   0.2011987  -0.0164443   0.7623406   1.1631479  -0.3216782
  -1.0155070  -0.3273508  -0.3168048   0.0734239  -0.0577910  -0.2873021
   0.7290777  -1.6757069  -0.1131113  -0.3090816  -0.5809237   0.1423372
  -0.2564525   0.1777937   0.1997336  -0.6012074  -0.2366800   0.5444677
  -0.0830251  -1.5688040  -0.8579685   0.1181035  -0.1506043   0.3323201
   0.5718893  -0.1170784  -0.3291226  -0.8552621   0.3258621  -0.5693993
   0.0683013  -0.1717850   0.2956549  -0.3291456  -2.0924193  -0.4389541
   0.4346816  -0.2902575   0.3086701   0.0429684  -0.0742680   0.0583820
  -0.2981946   0.2431749  -0.4008998  -0.2878455   0.1800921  -0.2047470
  -0.1103161   0.2592657   0.0582468  -1.1493399  -0.6435547  -0.2786007
   0.4554960  -1.1991988  -0.1017093   0.0399788  -0.1802306   0.0695918
   0.1483173  -0.5803339  -1.5787578   0.1551873   0.7392565  -1.2524598
   0.2501714  -0.2813983   0.0135301   0.1017200   0.5288166  -1.5950400
   0.0961750  -0.4852122   1.1361475  -0.0754203  -0.1493887   0.0877865
   0.0783768   0.6791544  -0.3227163  -0.8378020  -1.4190207  -0.1387341
  -0.0291854  -0.1757035  -0.2290112   1.7011355  -0.5695056  -0.0094439
  -1.3461590  -0.3102604  -0.9874303  -0.4146560   0.2200410   0.0467993
   0.3107781  -0.0343649   0.3321523  -0.7005449   0.7167499  -0.2913942
   0.0338934  -0.1956300   0.1026234  -0.3850177  -0.8345437   0.5338783
   0.5969543   1.3521156   0.2190137   0.1278769  -0.2227373   0.1473485
  -0.9931675   0.5070488  -0.1381115  -1.6432640   0.5868038   0.7242824
   0.1118857   0.1043810   0.0842145  -0.2716536   0.3543267  -1.1617886
  -0.3634508   0.5472790  -0.2207864   0.0804914   0.2184841  -0.0829268
   0.7548265  -0.4982423  -0.3047391   0.0344510  -0.0669518  -0.1371956
  -0.1689965  -0.1294556  -0.2403193  -0.6794209   0.1590776   0.4289778
  -1.4172473   0.1240772  -1.1617954   0.1008220  -0.2228595   0.2273657
  -0.9571362  -0.1502787  -0.5271882  -1.3732322  -0.9355268  -0.2320289
  -0.0764693  -0.1177304   0.1933178   0.5244226  -0.0562723  -0.3254806
  -0.3303437  -0.1156560   0.7377582   0.3381192   0.0832604  -0.3070743
  -0.2717268  -0.9176247  -1.1214584   0.2888458   0.1007830   1.0952780
   0.0547788   0.2392355  -0.1265755   0.1367746   0.9194131   0.2942689
   0.1205198  -0.4606164   1.1877915  -0.0139365   0.3669687   0.0787478
   1.4951697   1.4968239  -0.0642021   0.0410781  -0.3507492   0.3242978
  -0.2573935  -0.2080139  -0.0157721  -0.2781821  -1.5800364  -0.0352626
   0.9424541   0.3712545  -0.3014094   0.1601353  -0.2511427  -0.4388157
  -0.0412116  -0.9609171  -1.2172607   0.2775308   0.8700177   0.5240802
   0.0809269  -0.0016737  -0.2384066   0.5632498  -1.2928548   0.1880003
   0.2309003   0.0345018  -0.1112039  -0.0367414   0.1785422  -0.0356346
  -0.2836630   0.0405729  -0.0395972   0.3486676  -0.3661700  -0.1112354
   0.1874050  -0.2054051  -0.3829636  -0.8981223  -0.7272846  -0.2136249
   0.5505890   0.9681513   0.7834696  -0.2092186  -0.0558390   0.0667107
  -0.5077459   0.2067727   0.2169393   0.0389037   0.6541512  -0.3856629
  -0.1788761  -0.6068820   0.1158129  -1.4842776  -1.7870244  -0.1796435
   0.5921818  -0.7273803   0.5084500   0.3340506   0.1359299  -0.3799007
   1.3487609  -0.0330934  -0.9271691   0.1960913  -1.1944624  -0.4207616
   0.0063307   0.0079769  -0.4102059  -0.3294904   0.2668091  -0.9241590
  -0.2636893  -0.4221052  -0.4639919  -0.2055211   0.4815198   0.2748595
  -0.6423189   0.2907027   0.1268263   0.8957328   0.3082460   1.3614283
   0.0326693  -0.0358279   0.0411600  -0.9116609   0.6670007   0.3197056
  -0.3802332  -0.7093862  -1.1541130  -0.2631952   0.0874457  -0.0670188
  -0.3492674  -0.2557135  -0.7085613   0.0023085  -0.0898892   0.5241360
   0.0225486   0.0428379   0.1406142   1.1167476   1.7714756  -0.4522008
   1.2757298   0.1217756   0.4590685   0.2541703  -0.0905131  -0.0018787
  -0.6319174  -0.4106701   0.5889299   0.7687249   0.3874718  -1.1262247
   0.0499512   0.2867276  -0.2160269  -0.2280127  -0.0239585   0.0141487
  -0.6106162   0.5610692   1.1518962   0.2048005   0.0262522   0.2866810
  -0.1288626   1.3678562   0.3367608  -0.6647922   0.3504224   1.5832335
  -0.0554764   0.2281350  -0.2528957   0.7543907   1.4196514   0.1413858
   0.2018070  -0.4696570  -0.0352587  -0.0602124   0.0631093  -0.2475663
   0.1097042  -0.4721544  -0.1983263  -0.1833553  -0.2010813  -0.7712692
  -0.4688605   0.4323027  -0.0602301   0.9943250   1.0583622   1.3477815
  -0.3243427  -0.7630010  -0.2209284   0.2678383   0.2062206  -0.1135615
   1.3933470   0.4314000  -0.7500839  -0.0809868   0.4963095  -0.2037969
   0.4494308  -0.0960220   0.3011717   0.2945709   0.2588098   0.1966915
   1.0252956  -1.4505552   0.8409423   0.0785380   0.2224495   0.1927004
   0.2717673  -2.0646145   0.5877050  -1.1855451  -0.1982256   0.4236178
  -0.0292189   0.0890799  -0.1868774   0.1696550   0.9597750   0.2234730
  -1.4886354  -0.4556276   1.2127310   0.1129481  -0.2224372   0.0528630
   0.4189307   0.6111049  -0.9318838   0.9597927  -0.3320680  -0.2998787
  -0.1748265  -0.0447989  -0.2113427   0.1928193  -0.3552955  -0.2401329
   0.1620229  -0.4816710   1.1179944   0.0575725  -0.0788664   0.2707837
  -0.9292146   0.7882126  -0.8068972  -0.1437801   0.3829454  -0.6314355
  -0.0710036  -0.1023444  -0.1995870   0.7902450  -0.5601249  -0.9982167
  -1.3138715  -0.6633183  -1.0822842  -0.4765946  -0.1138192   0.1628922
   0.3091621   0.8180942   2.1784422  -0.8837258   0.5909524   0.4910706
   0.0020937   0.1861578  -0.0772953  -0.0995585   0.0083390  -0.1918145
  -0.0989667   0.5295596   0.4670740  -0.1212891  -0.0757690  -0.1254642
   0.0285827   0.7056130  -0.9240421   1.0642624  -0.0366796  -0.8456379
  -0.2043995   0.0378823  -0.0329536  -0.8509568   0.6000534   0.8954477
  -0.7147491   0.3546074   0.2538105   0.2201710   0.1854779  -0.1235211
   0.3308092  -0.4863282   0.2380379  -0.1131062  -0.3990898  -0.7986975
  -0.0844507  -0.2796819  -0.0711085   0.1291933   0.9498068  -0.2234816
  -0.2382255  -0.7089527  -0.4870577  -0.1447884  -0.3207853   0.1357822
   0.4091896  -0.5865552  -0.8449595   0.5145584   0.6763960   1.6795671
   0.1001421  -0.0989105  -0.0555958  -1.2562575   0.9865920   0.4253489
   1.0198249  -1.1759158  -1.0825103   0.0554471  -0.4546930   0.1296753
   0.7390838   0.3985569  -0.5203205   0.3972928  -0.1924542  -0.3812007
   0.1230846  -0.0562443   0.0016991  -0.0460778  -1.5307878  -0.3735560
   0.6008502   0.7867325   0.6723134  -0.0317760  -0.5311414   0.1258352
  -0.8592327   0.0687858   0.7254388   0.3776971   0.4812994   0.6411697
   0.0580572   0.1815368  -0.0452685  -0.2979674   0.6338956  -0.9624164
   0.1756613   1.0187123  -0.7677575   0.4103292   0.1198748  -0.3973349
   0.5837361   1.2749649  -0.5768807  -0.6266384  -0.3851767  -0.1769051
   0.0474101  -0.1702291  -0.3582609  -0.1215123   0.2127983  -0.3044562
   0.0981035  -0.1440546  -1.5247417   0.2050339  -0.1284937  -0.0728891
  -1.2445834   0.4267039  -0.4594049   0.1077354   0.6498671  -0.0425396
  -0.0752604   0.1481726   0.2911160  -0.6739092  -1.6281198   0.3069600
  -0.0462930  -0.5094448  -0.1155069   0.0495508  -0.0439021  -0.0736882
   0.4047854   0.9251269   0.4453227   0.7221020  -0.3847699  -0.6527302
   0.0714401  -0.2620346  -0.0232648   0.1389167   0.4886910   1.3572726
   0.2898641  -0.1657424  -1.4899582   0.3884574  -0.0904708  -0.1911420
   0.6032487  -1.0446303  -0.5566961  -0.5193929  -0.7639924   0.3902216
   0.0240088   0.0385000   0.0002735   0.3692226   0.3245727   1.1733452
   0.5793364  -0.6739081   1.4264504   0.2595583  -0.0402961   0.0569716
  -0.8258908  -0.5298633   1.1167204  -1.4650891   0.7499455  -0.6690877
  -0.1689621   0.0823444  -0.2109225  -0.0264759  -0.1295697   2.6459979
  -0.1830541  -0.6920374  -0.8127224  -0.0089968   0.1284123   0.2739904
  -1.2188566  -0.2163111   1.1943691  -1.9020990  -0.5932401  -0.6464307
   0.3015034  -0.1171076   0.0318827   0.7568605   0.0176563  -0.1966247
   0.6409103  -0.3036507  -1.6227175  -0.2606000  -0.2682707  -0.2163963
  -0.5727747   0.6377599   0.6721725  -0.2495903   0.6655584   0.1395374
   0.0816228  -0.1613951  -0.0951789  -0.4034578   0.3772547  -0.0559784
   0.3735539   0.1943446   0.4864028   0.0762009  -0.2949120  -0.1153406
   0.7234828   0.6631008  -1.7249766  -0.4936722  -0.2026140   1.0478964
   0.1983655   0.1572550  -0.0562275   0.0032984  -0.5259647   0.1772427
   1.1780000   1.5570782   0.1718371  -0.0926578  -0.1165056   0.2103430
  -1.2914435   0.5548670   1.2687259  -0.6806310   1.4915709  -1.2797173
  -0.1606175   0.3409731  -0.2511619  -1.1328224   0.8959342  -0.2744016
  -1.0533456  -0.1701401  -0.8890487  -0.0521707   0.0551048   0.2972112
  -0.2784729  -0.5278372   0.7798891   0.2462639  -0.7072022   0.4404755
   0.4412033   0.1052001   0.1496237   0.1020093   0.0604185   0.0888000
   0.1402101  -0.4368305  -1.0757822   0.1627966  -0.0893534   0.4698066
   1.3376071   0.0802269   0.4731645  -0.6306630   0.2874876  -1.6975104
  -0.2466975  -0.1146093  -0.1298328   0.7444501  -0.0208190   1.1205153
   2.1632350   0.2837071  -0.9230685   0.0287052   0.0718518   0.3307127
   1.2394568  -1.3272896   0.4593146  -0.0593346   0.1569581   0.4625346
  -0.0317044  -0.0147087   0.3092358  -0.0267985   1.4250096   0.0099994
   0.6790131  -0.3400608   1.0422457   0.0007537   0.0547872  -0.0395394
   0.5293040   0.7084450  -0.8236011  -1.5922643   0.2787485  -0.6000891
   0.1753433  -0.1797071   0.2020675   0.9027878   1.7736790   0.5040044
   0.1391107   0.5923273   0.3363487   0.2741940  -0.2956587   0.0596965
   0.0251599   0.5109397   1.0734747  -0.3745792   0.3103407   0.5387269
   0.3662221  -0.0790488  -0.1874850   0.2195580   1.6189370   1.1579553
   0.3604452   0.3184640  -0.0407944   0.1271855   0.2517881  -0.0580951
  -0.5991540  -0.3008984  -0.3116340   1.0143831  -0.2694487   0.8990296
  -0.1444737   0.2026476   0.2588964   0.5913349   0.2852573  -0.9965758
  -0.4909862   0.0721953  -1.0622640   0.0962598   0.1015819  -0.1538326
   1.0230337   1.0140165   0.2251298   0.7536821   0.0676250  -0.8131718
   0.1858780  -0.1115489   0.4355051   1.1998507  -0.1003306  -0.5013800
  -0.2617559   1.4075754   0.7893341  -0.0077422  -0.1284964   0.0023508
  -0.3912230  -0.0460435   1.1230469   0.7652919  -1.0693120  -0.0998831
   0.0276597  -0.0339344  -0.0027291  -1.3377837   0.0038746  -1.2803197
  -0.5824489  -0.0794854   0.3333694  -0.1297803  -0.2995119  -0.0381520
   1.6154144  -1.2849198   0.6825712  -0.3668130  -0.0782383  -0.6311766
   0.2479119   0.1102442  -0.1358797  -1.1668590  -0.9343736   0.2271583
   0.7749447   0.3854918  -0.4643379   0.2120229   0.4619742  -0.1458937
   0.8228090   0.0506118  -0.1518747   0.3758249  -1.2641419  -1.2306694
  -0.0457102   0.4379360   0.4033258  -0.1445864   0.3096390  -0.7700415
   0.7842737   0.0949014  -0.4164444  -0.0108688   0.2557877  -0.0350233
   0.6956297   1.3406025   1.6853800   0.4464342  -0.5351535  -2.1312050
   0.2248184  -0.2784746   0.0515091  -0.1569130   0.1628545   0.1651105
  -0.1137271  -0.2178115  -0.1822600  -0.0843407   0.0665691   0.0122756
   0.5389866   0.6092362  -0.3729457   2.0077111  -0.0608852   0.0965956
  -0.0556365   0.0386652  -0.3192777   0.3290727   0.0136877  -0.2138001
   0.9060592   0.0495954   0.3489485   0.0951527   0.0275105   0.2068449
  -0.9853966   0.5031429  -0.3407148   1.2049715  -0.9444643  -0.5278287
   0.2668039   0.2407333  -0.2340513  -0.1117740  -0.8932650  -0.8794173
   0.4561974   0.6012139  -0.0507392   0.0930740   0.1052956  -0.1143060
  -0.6771401   1.1221724  -0.0282264  -0.1522591  -0.2169322   0.4678019
  -0.0210651  -0.0623220  -0.0466510   0.7184766  -0.9554979   0.9845216
  -0.6610424   0.2601952  -0.3714105  -0.0117555  -0.0001087   0.2876354
   0.8122926   0.0052372   0.5841382   0.7999690  -1.2044302   0.2121095
   0.2398310   0.5934115   0.2938120  -0.8966846   0.4803775   0.1653089
   0.0607468  -0.9825414   0.3876201   0.0839661  -0.1069689   0.2717399
   1.4058292  -0.3456040   0.9082358  -0.2739355  -2.0582611  -0.5499542
  -0.1734244   0.0375986  -0.0717754   0.4434924  -0.2427834   1.1797173
  -0.0386135   0.3237079  -0.7401532   0.2584845  -0.0645806   0.1945582
  -1.4296880  -0.4847777   0.7417096   0.1956964   0.5256842  -0.2163281
   0.1929163  -0.1038470   0.2379281   0.0411720  -0.7107476  -0.6680510
   0.4418014  -1.2339370   1.2371540   0.2879407   0.3682018   0.2047852
   0.2050103   0.1634219   0.1242828  -0.8253886   1.0680946  -0.0587500
  -0.1354491  -0.0834764  -0.2158568   1.0219141   0.7083064   1.0544484
   1.7695238   1.0674021  -1.1547246  -0.2817140  -0.1311224   0.1742336
  -0.2378617   1.2422711   0.4435616   0.4557277  -0.5443242   1.5692475
   0.0970283   0.2207968  -0.0578893  -0.1010846   0.2552414  -1.0526057
   1.3393286  -0.2737775   0.4045347   0.2570331   0.2274335  -0.2210247
  -0.3495937  -0.2993679  -0.6650152   0.7517449   0.2857332  -1.2124784
  -0.2121459  -0.2036906  -0.1387320   0.2698921   0.4155675  -0.5938002
   1.2913431   0.4101353  -0.5892376  -0.1827946   0.2884758  -0.0544196
   1.1270286   0.4713935   0.0606810  -0.4567497   0.5740224  -0.5070312
  -0.2133614   0.1018628   0.1600017   0.9696510   0.7807361  -1.7749941
  -0.8514249  -0.1276282   0.4713256   0.1634159   0.2431177  -0.3085502
  -0.1600436   0.7860815   0.0971706  -0.3614684  -0.5136843  -1.8260634
   0.1241084   0.0657001  -0.4035982   0.6664867   0.0145161  -0.2218659
   0.1012760  -0.9550717   0.4272566  -0.1492959  -0.1448250  -0.1279349
  -0.7260450   1.1577911  -0.3289196  -1.2808134   1.6490822   1.2707770
   0.0056036   0.1231111  -0.0605772   0.6592828  -1.0460275   2.5489959
  -0.4355971  -0.6975555   1.2882724   0.0838872   0.0191268   0.1910919
   0.4431410   0.5151460   0.0938297  -1.1456800  -0.4381221  -0.1837016
  -0.1497950  -0.0756567  -0.1571210   0.8228281   0.5898678  -0.9521592
  -1.2666825   0.6117011   0.7363991  -0.0133533  -0.1086697   0.1057039
  -0.2939104   0.0658896   0.4455572   0.5815054   0.0301903  -0.2484708
   0.4501116  -0.4012108   0.5729360  -1.0503508  -0.6767225  -0.1183109
   0.8158731  -0.5097228   1.1671221   0.1454839  -0.0550424  -0.1061859
  -0.4258662  -0.7569884   0.4976316  -1.4243386  -0.1890115  -0.6899942
   0.0652401   0.3710089   0.1464466   0.2346934   0.4962193  -0.7484584
  -1.1807885  -0.5934699   1.0904999   0.0542844   0.0042463   0.0922181
   0.6027724  -0.1851437  -0.9344447  -0.7165236  -0.2853060  -0.8678914
   0.3741569  -0.1660257   0.1334226  -0.0488056  -0.0274499  -0.0796382
  -0.6554407   0.0752681   1.0284417   0.0725758   0.1568261  -0.0363457
  -1.5693511   0.8239331   1.1206460  -1.1800366  -0.3996816  -0.4050432
  -0.0554478  -0.2318146  -0.1091704   0.8995252   0.2078342  -0.0159275
   0.6374661  -0.6816485   0.7197981  -0.3319302  -0.0106911   0.0140042
   0.2883125   0.0608930   0.6312099   0.0164703   1.0505310  -0.0439508
  -0.4001194   0.0139324  -0.0780981   0.0361437   0.2840690  -1.5845772
  -0.5188965   0.8859907  -0.7557674  -0.0426288  -0.2578788   0.1037835
   0.3605516   0.3523690   0.1748515  -1.3913429   0.3599604  -1.5333362
   0.1156458   0.1503628   0.0651175  -0.5177134  -0.9201383  -0.3657696
  -0.1745928  -0.7654394  -1.2402120  -0.1739434  -0.0501389   0.2607400
   0.1297290   0.0257523  -0.5237537   0.8200126  -0.4793954   0.4411501
   0.1149077   0.0030669  -0.0936689   0.7887848  -1.9690917   0.2897894
  -0.8329642   0.2043391  -0.8729247  -0.2335844   0.1569625  -0.1177814
   0.7191932  -0.4791443   0.1290472  -1.3337521   0.7914969  -0.9425593
  -0.0146898   0.2889017   0.0678021   0.0286801  -0.3612556  -0.5197127
  -0.7003616   1.2376879  -0.1183315   0.0567139  -0.6265491  -0.3128887
  -0.2847957   1.2791244   0.6774863  -0.0687463   0.0791885  -0.2695489
   0.1969044   0.0757658  -0.0570646   0.6048202  -0.9963677  -0.0329019
  -1.6187261   0.6400005  -0.2497547   0.0256086   0.2101983  -0.2871313
  -1.5584168   0.7186091  -0.2565358  -0.2105609   0.4599055   0.4847408
   0.0143908   0.0340095  -0.2323658  -0.1655170   0.2244900   0.4659572
  -1.1330085  -0.8633708  -0.7777274  -0.2326827  -0.1666129  -0.1827332
  -0.8249191  -0.6769068  -0.5365239  -0.6908125   0.2411486   0.8116480
   0.1160502   0.1038545  -0.0059601  -0.3911342   0.1462109  -0.8143594
   0.1518870   1.4120427   2.3803080   0.0791423   0.0876628  -0.1931729
   0.5448568  -0.5439486   0.1570016  -0.5150109  -0.8907846  -0.5438676
   0.3095993   0.0580170  -0.1067497   0.2381179  -0.5124336   1.2612938
  -0.0404324  -0.4185881  -0.0302677  -0.0809552   0.2686568  -0.5943281
  -1.4663628   1.0504324  -0.1480044  -0.7727250  -0.1283503   0.7391465
  -0.3969333   0.0863944   0.0116055   0.6107856   1.4881091  -1.4293061
  -0.3257699  -0.9761760  -0.9907097  -0.1148616   0.1007473   0.1252488
  -2.2124800   1.0196526   1.1002904   0.5909335  -0.7501399   0.2687640
  -0.1273144  -0.1017273   0.5555194   0.7336934   0.3631267   0.1999038
   1.3405715   1.1534232  -0.3574136  -0.2958256   0.2465849   0.0839408
  -1.2376643   0.6495400  -0.1627627   0.8311954  -0.7680103  -0.1738371
  -0.0599821  -0.0250880  -0.0726228  -0.6085150  -0.1363707  -1.5464379
   0.0605571   0.8870834   0.6935974   0.0692158  -0.1383140  -0.1622538
   0.7907106  -0.9693989  -2.3958101   0.5865938   0.0413843   0.4527916
   0.2334227   0.1849189   0.0150237  -0.3627127  -0.8957974   0.8635605
   0.3844970   0.6390464   0.1308742  -0.0267412  -0.0800389   0.1104417
   0.1736613  -0.6877887   1.0713402  -0.9819443  -0.9386674   0.7153075
  -0.0777018  -0.2599762   0.4801338   0.5414490   1.4828100   1.4306409
  -0.3837313   0.0975877  -0.8185025  -0.0974714  -0.0676711  -0.0750121
  -0.4641357   0.9392124   0.0560507   0.6985386   0.6284905  -0.5244943
  -0.0660351   0.0489554   0.1867069  -0.0861392  -0.2758970  -0.0382118
   0.6582131   0.7667991  -0.7785585  -0.4492088   0.1635745   0.0410200
   1.0870907  -0.8702366  -0.9202993   0.5064757  -0.2608196  -1.5406270
  -0.0629190   0.0515725  -0.0552077   0.9993001   0.7817644   0.9910443
   0.6628466  -1.0150026   1.0383818   0.0146420   0.0874645  -0.1594256
  -0.1757820   0.3471501   1.2314676  -0.0200380  -0.3968074  -1.4472016
   0.2794975  -0.0770295  -0.2194022   0.1311026  -0.8160734  -1.3850936
  -0.1670504   0.5271456  -0.0966633   0.1722016   0.0370273   0.1286323
  -1.2329977   1.0124594   0.4629781   1.0042097  -1.1040886  -0.4861930
   0.1038708  -0.2050089  -0.0655954  -0.3880501   0.8298101  -0.5269998
   0.8290813  -0.6522473  -0.8948797   0.2360384  -0.2144250  -0.1405174
  -0.2438344  -0.6703058   0.3142173   0.9501196   0.2426662  -0.7384223
  -0.2141910   0.0859279   0.2419151  -0.2377591  -0.2642588   1.0448857
   0.4859896  -1.2964309  -1.1067460   0.1435491   0.0204476   0.0898844
   0.1119006   0.8099431   1.6126355  -0.2526627  -1.7206724  -0.5646149
   0.0204404   0.4054488   0.0891827   0.7753455   0.7037239   0.0729990
  -0.6870557  -0.4774350  -1.0480108   0.1506285  -0.3507977   0.1619792
   0.1532860  -1.2944286   1.2637289   0.0781103  -0.6572761  -0.0436851
   0.3428360   0.0562172   0.2664602  -0.9389588   0.6365067   0.5471092
   0.5386596  -0.1768128  -0.2491174  -0.0661250   0.1406383  -0.1182784
  -0.8170899   0.1867433   1.1127603   0.5414837   0.9267838  -0.2952576
  -0.1520292  -0.2004597   0.1215649  -0.0830809   0.5407447  -1.1443715
  -0.7096804  -0.0014137  -0.2978710  -0.0974845   0.0654550   0.0539064
   0.2063669  -1.3290572  -0.1849525   0.6395292  -0.0726296   0.6748198
   0.2198907  -0.1340023  -0.2494411  -0.0657983  -0.4861624   0.1646190
  -0.4687361  -1.6874765  -0.8921220   0.2308279  -0.0479055   0.1624965
   0.0761338   0.1450397  -0.8034900  -0.1116824  -0.8442626   0.3516881
  -0.1772344   0.0158526  -0.2287586   0.0992750   0.1259683   1.0298534
   1.2310785  -1.7323234  -0.3873411   0.0925579   0.2646027   0.0332015
   0.8855199   0.1160133  -0.0857416   0.2908289  -1.2009378  -0.8445220
   0.3376883   0.2138269   0.2878869  -0.3789994  -0.5893983   0.4231591
   1.5568468   0.3882832   1.3244683  -0.3037037  -0.1225019  -0.2180497
  -1.0179613  -0.9618175   0.0063560  -0.1021997  -0.3551090   0.2677876
   0.0502769  -0.3224624   0.0265852   0.0849710  -0.0939416   0.5416252
  -0.2520030   0.6487844   0.2018068   0.1450802  -0.3242816   0.1136748
  -0.4987595  -0.2939593   0.2383383  -0.7470154   0.6530562   1.6053562
  -0.0010146   0.2065988   0.0200619  -0.7418713  -0.0974541  -0.5493733
   0.8835526   0.6184202  -1.7837748   0.1797020  -0.0453773  -0.0255581
  -0.9482365   0.0800056  -0.6346573  -0.1889016   1.3640724   0.8160554
  -0.1017700   0.2265340   0.0649918  -0.0547506   1.0390196  -0.9803478
   0.1511570  -0.5540917   0.1803324   0.0601909   0.1385882  -0.2283168
   0.1301489   0.3101714   0.4863235  -0.3934650   0.6664005  -0.1826739
  -0.2804360  -0.1091051  -0.1785984   0.3199267  -0.2434693   1.7981442
   0.2741108  -0.3306753   0.1889387   0.3755626   0.0901330   0.1037080
   1.4250630   0.3545665   0.8123576  -0.2813602  -0.6958920   1.0922771
  -0.1876747  -0.1958385  -0.2535825  -0.7094783  -0.8603488  -0.5398243
   0.8350378  -0.0352736   0.2173384  -0.0053124  -0.0058300   0.2509046
   0.2164329   0.5271650  -0.5582480   0.6316217  -0.8142023   0.6189294
  -0.1771451   0.1467291   0.4200557  -0.7175307  -0.2027216  -0.3152495
   0.1564912   2.0073485  -0.1223270  -0.1668374   0.1805880   0.1465199
  -0.3089994   0.4093904  -1.4106672  -0.4722901   0.4929161   0.1732707
   0.2563012   0.2988871   0.0440875   2.6106126   1.3097711  -1.4013397
  -0.5632720  -0.6294725  -0.3492422  -0.0016007   0.0285678   0.0479974
   1.3967150  -0.6745752   0.6253778  -0.0632366  -0.2168579   0.8700067
  -0.0213771   0.0479187   0.0216566   0.8118698   1.9362259   0.7980015
  -0.1515572   0.1548721   0.2842634  -0.0644828  -0.0109769   0.0147558
   0.3481462  -0.1593564  -0.0664667   0.5742630  -0.8214403   0.4444166
   0.0025851  -0.0701984  -0.0125616  -0.8339232  -0.2932586  -0.1439813
   0.0002549   0.4222119  -0.0899632  -0.2221831   0.0881129   0.3993571
  -0.7278195  -0.8788337   0.6044793   0.2935524  -0.3186607  -0.6525755
  -0.1694845  -0.2332304  -0.1355944   0.4440685   2.1495514  -0.5344724
  -1.3474901   0.2791407   0.0449877  -0.0247625   0.0138214   0.3157566
   0.4417657   0.4845422   0.6776100   1.3631208   0.4663396  -0.2603284
   0.0119090  -0.2145913   0.0132744   0.9812070  -0.0515632  -0.0833144
   0.6874283   2.4167993  -0.8823170   0.0636125   0.3307505  -0.2101359
  -1.0926747  -0.1271769  -0.5448491  -0.5790312  -0.7689189  -2.1788368
   0.4684579   0.1230605  -0.0525379   0.1537895   0.3191736   0.5399046
  -0.2020173   0.8709362  -1.4432547  -0.1062629  -0.3612193   0.0996724
  -1.1437239  -1.4231467  -1.5093349   0.0067433  -1.0258676   0.8344424
   0.0499260  -0.1364657   0.1261962   0.2081408   0.9151465   0.6011408
  -0.7813170  -0.2601941  -0.1614423  -0.3951297  -0.2922649   0.2442483
   0.1987834   0.1732663   0.1439741   0.4422688   0.6458571   0.7240377
  -0.1540229  -0.0430105  -0.0128995   0.2636847  -0.4230052  -0.6073630
   0.9588398  -0.3924245   1.7658306   0.2103745   0.2382228   0.2272274
   0.7593895   1.8745556  -0.3533382   0.3296989   0.1647820  -0.3950172
  -0.1718461   0.2893665   0.1040821   0.6691671   0.2874798   0.1470808
   1.4983898  -0.1573151  -0.2028084  -0.0119373  -0.0124921   0.2918511
  -1.2386126   0.4026286   0.6472495   0.1254630  -0.9857836   0.3883006
  -0.2907358   0.5712143  -0.1451039  -0.2228723   0.6753204   0.4411971
  -1.0315696  -0.8788691   1.4960230   0.4556684  -0.1453845   0.1633040
  -0.0108627  -1.1420955  -1.3204019  -0.8759208   1.2469301  -0.7865497
   0.0507513  -0.0075921  -0.1301791  -0.2492193  -0.3874140   0.6095539
  -1.1051711  -0.2230362  -0.5499320  -0.2826031   0.0553388   0.1148744
  -0.1711859   1.8746165  -0.6506476  -0.1386838  -0.8016639  -0.4583217
  -0.0388689   0.1757158  -0.0495495  -0.5506562   1.0658964   0.1136463
  -0.2874507  -0.8043970  -0.1509772   0.0761008  -0.0676452  -0.5080491
  -0.8728221  -0.1020792  -1.0350276   0.2491847   0.5533066  -0.4379371
  -0.0448496  -0.1207772  -0.0535897   0.6316690   0.3793909   0.2801846
   1.3364873  -0.2667293  -0.0845749   0.0419151   0.0446573  -0.4967709
   0.6423229   0.9889264   1.1950592  -0.9476009  -0.4133018  -0.1205839
  -0.0292106  -0.3545508   0.0264366   0.3779290   0.6963787  -0.2900211
   0.1502856  -0.5058535  -0.0136955   0.4078217   0.2762616   0.1818091
  -0.7937610   0.6001948   0.2775228   0.8491857   0.5143487  -0.2743311
  -0.0078845   0.1546604  -0.0913280  -0.1138260  -0.1257212  -0.4735608
  -0.3412536   0.7079162   0.1846739  -0.2952034  -0.1411587   0.1505072
  -0.9699638   0.4817597   0.0034837   1.3427870  -0.7212393   0.7553474
   0.2302652   0.1383338   0.2407558   1.1076295   0.1054142   1.6382933
  -0.6824438   0.9352386  -0.8175133  -0.4526206  -0.0923422   0.4266653
  -0.1146849   0.3619325   1.2063269   0.4710469  -1.3444810   0.3903321
  -0.1090312   0.0880591   0.0516922  -0.0998174  -0.8666933   0.6397656
  -0.4631857   0.4977984   1.3818019  -0.1760270  -0.3472744  -0.1580116
  -0.4860654   0.5527681   0.3602611   1.0881138  -0.0738654  -0.8995089
  -0.0388850   0.2213592   0.1822776  -0.7492215  -0.5891863   0.7281957
   0.3093159  -0.9121073   0.1870255  -0.2995467   0.0483370   0.2481428
   1.1803920  -0.5132461   0.4894929  -0.0559954   0.9140325   0.0245821
  -0.1216038   0.0910422   0.2061205  -0.5504148  -0.3076959   0.3195429
  -0.3740829   0.6089447   0.3732906   0.1198948   0.2267613   0.0717277
  -1.5074412   0.3936944  -0.7431733  -0.5396043   0.2176503   1.1978013
   0.2166143   0.0709892   0.3764659  -0.3889381   0.2825069  -0.7984308
  -0.7310831  -1.1554770   0.6118973  -0.3361724  -0.0706685  -0.1321796
   0.0226962   0.3585073   0.0929984   0.4723014  -1.1470122   0.5485481
  -0.2811220   0.2495682  -0.1765233   0.3248045  -0.1547237   0.6261489
  -0.7381263  -0.2244175   0.5140174  -0.2285316   0.1258574  -0.0051449
  -1.1379520   1.4099045   0.9093070   0.2806992  -1.1659113   0.2186514
  -0.1575401   0.0322317   0.4025960   0.6692406   0.3464387   0.3538049
   0.0064016  -0.6657153  -0.1792360   0.1976172  -0.1176564   0.0613425
  -0.5665678  -0.7313259  -0.0057434  -0.6439184  -1.2941324   1.0691091
  -0.3166128  -0.0358899  -0.0578766   1.1759939  -0.0600149   0.3330392
  -0.7100370   0.9278492   1.0984449  -0.0723996  -0.0180106  -0.2671998
   0.0307548  -0.2087959  -0.1417947  -0.6858337   1.1669040  -0.7529616
  -0.1003554  -0.0773704  -0.0776422  -0.4420746  -0.5721034   0.7270741
   0.5065615  -0.4705676  -0.5023652   0.0258712   0.3772829   0.0817122
   1.1231623  -1.5495477  -0.5317799   0.4809152   0.8968932   0.6366601
   0.8106963  -0.2896560   0.1211197   0.5051164   0.0086488   0.7271444
  -0.3733332  -0.4391886   1.2461690   0.0392493   0.2121412  -0.3353163
   1.7445806   0.6970350   0.4707569   0.9899464   0.0694695  -0.2177382
  -0.1242060   0.5054974  -0.2670043  -2.2143320   0.5636412  -1.0855045
   0.1521910  -0.7971721   0.7991578   0.1947442  -0.2065833  -0.3613104
  -0.8605039  -0.1198868  -0.4402511   0.2529508   0.6616167  -0.0590558
   0.1933391   0.1462556   0.2068274  -0.2885202   1.1640128  -1.6059193
  -0.5454488   0.8320876   0.4379879  -0.0038144   0.0740401   0.0593561
  -0.0405914   0.5616390   1.2575368   1.0548992   0.4802869   1.7982395
  -0.2195469  -0.1491479  -0.0820089  -0.0861897  -1.3499638   0.0505113
  -0.0413315  -0.2888843   0.9690057  -0.3534636   0.2709243   0.0815379
  -0.4809874  -0.0592093   0.4546796  -0.0684041  -0.2300586   0.0717954
  -0.2366698   0.0474447   0.1589256  -0.0516517  -0.6860702   0.7398615
   0.5958682  -1.0479821  -0.6139330   0.0005147  -0.0314238  -0.1761652
  -0.2552021  -0.4456183   0.1351948  -0.0364537  -2.0083516  -0.3248068
   0.2265115  -0.0715937   0.2646504  -0.2829212   0.1681627   0.2044227
   0.5372865   0.1517908   0.8175720   0.0154174  -0.3379848  -0.0718778
   0.0038750  -0.4725703   0.2499804  -0.4948762   0.6807254  -0.8883841
  -0.1774064   0.0125582  -0.2106915   0.0773028   0.1154991  -0.2108159
   0.4180771   0.2988928  -0.3785216  -0.2860264  -0.0166848  -0.0914297
  -0.4139689   0.2535102   0.2049035   0.3373296  -0.1547434   0.7334764
   0.0477756   0.0019109  -0.3265853  -0.0239010   0.4700408   0.0014794
   0.3682733  -0.7978660  -1.4200863  -0.1960589   0.1086372  -0.0183779
  -0.4249857  -0.3832877   0.1706642   0.2569112  -0.1313608  -0.0602186
   0.1483466  -0.3028322   0.2269354  -1.1618125   0.3290423  -0.5316272
   0.5479201  -0.2621788   0.2839676  -0.1380218  -0.0900512  -0.2701883
  -0.8041989   1.2328957   0.5464056   0.2814779  -1.7959103   0.0151605
   0.1545731  -0.4495947  -0.0405330   0.0886537   1.0722677   0.5599908
   1.6257460  -0.7679097   0.6137014   0.2087304  -0.1319822   0.2296040
  -0.4097902  -0.1769727   0.6159271   0.0189648  -0.2280427   1.3305136
   0.1994573  -0.0872307   0.3515328  -1.2741084  -0.5675857   0.5612545
   0.2242264   0.0900389   0.2292770   0.1494195  -0.3238021   0.0523200
   1.5890896  -1.1012213   0.1576731   0.2106405   0.3656691   0.1641232
  -0.0710407  -0.1645485  -0.2174534  -0.5314592  -1.1651412   0.4296096
  -0.3791453   0.7096559   0.3322586   0.1099305   0.1264845   0.2162238
  -1.0704677   1.0834115  -1.2434756   0.6708385  -0.2208166  -0.3171682
  -0.0184269   0.2893933   0.0170001  -0.3028081   0.9746468  -0.1160063
   1.0488895  -0.5538263  -1.2317514   0.0153677   0.3347035   0.1224638
  -1.5327464   0.3908848   0.9494405  -0.5682637   0.8555735  -0.1247042
   0.1566534  -0.2976277   0.2616372   0.0871111  -1.1655311   0.6611886
   0.1144226  -0.2677457  -0.7131694  -0.0031081   0.0619440   0.1336602
   0.0473286  -1.1723116   0.3016071  -0.4858274   0.3366766  -0.4375837
  -0.1390314   0.1133922   0.2495807   0.2302022   0.0625961   0.3165967
   0.1690218   0.1011717   0.0335093   0.1744537   0.0470815   0.3364982
  -0.6148539   0.3933411   1.1849132   0.2318717  -0.2482761   0.7882367
   0.0836312   0.0967842  -0.1539344  -0.7316399  -0.1867589  -0.1743935
  -1.9238628  -1.0403932   0.0407720  -0.1125196   0.0772658  -0.2463067
  -0.4705254  -0.8669127   0.1760204   0.7892241  -1.2644645  -0.2260368
  -0.1628939  -0.0490240   0.0203875   0.7068034   0.0450712   0.3746377
  -1.1136128   1.4383662   0.0056755   0.0186064   0.0272577  -0.1839351
   0.2453886  -0.4385257  -0.5802798   0.0466329  -0.5533590  -0.4032074
   0.0938367   0.2324067   0.0731947   0.0963900  -0.0906008  -0.3614768
  -0.1156537   0.6244283   2.2478484   0.1550090   0.0076359   0.1634210
   0.0960430   0.1838472  -0.4247542   1.6275496   0.6916648   0.0093052
   0.2058506   0.1577038   0.0904895  -0.6461579  -0.4280747   0.6849587
  -0.3446559   0.0404150   0.1546504  -0.2413081   0.1493559   0.0333576
  -0.8192011   0.8410342  -0.4744304   0.1694963  -0.6383728   0.0884551
  -0.3659049   0.0532406   0.2006676  -1.1980831  -0.3881798   0.0771275
   0.8012713   0.2996600   1.4584785   0.0516933  -0.0400031  -0.2174821
   0.2025557   1.4922759   0.1763961   1.2560968   1.0214952   0.1038933
  -0.0326144  -0.0591285   0.2306107   0.5405941  -1.0876022  -0.0422251
  -0.9401720   1.2013685  -1.0472599   0.1302293   0.2325891   0.0207306
  -0.2058609  -0.8267687  -2.2506960   0.2825715   0.8581317   0.4585988
   0.1678405  -0.0079416   0.1211381   1.1165496   0.9513145  -1.7486211
   0.2792939   0.3026399   0.0510666   0.0856930   0.4534842   0.1259287
   0.0649407   1.6517697   0.5304606  -0.4647591  -0.3027455   0.2945801
  -0.1888299   0.2506551   0.0979530  -0.0367224  -0.4075523   1.0943075
   0.3987282   0.9457222  -0.3916403  -0.0660296   0.2825490  -0.0779898
   0.6598797   0.4029226  -0.9442930   0.7010705   0.2292607  -0.3893524
   0.0154837  -0.3922153   0.1714695  -1.3335282   0.9049313  -0.0962861
   0.1413454  -0.9436037  -0.3503158   0.0236545  -0.2027677   0.2207869
  -0.2785642  -0.5417566  -0.0254506  -0.8593705   0.0454104   0.4966635
  -0.0959773  -0.2757327   0.0461109   1.4121006  -1.0633403  -0.3556126
   0.1774964   1.4954606   0.6608432   0.2106890  -0.0602412  -0.0673451
   0.7222269   0.5789128   0.9080580  -0.2628828   0.5592870  -0.1411967
   0.0171848  -0.1949960   0.0209342   0.8596998  -0.3531129  -0.4410859
  -0.1724765  -0.9671078   0.6329159  -0.0047064   0.1378112   0.0050894
   0.4323424   0.5776306   0.3173964  -0.5136226   0.0835887  -0.5559568
   0.1552484  -0.2296060   0.1151420   1.8442086  -0.2305921   0.5923296
   0.0655890  -1.1310826  -0.6369683  -0.2207455  -0.1365535   0.1205630
  -0.1253054  -0.4864366   0.7646319  -0.8234437   0.7159472  -0.8349596
  -0.2539992  -0.2910458  -0.1857243  -0.5401593   0.0769538  -0.4857736
   0.8655590   0.5227156   0.7623537   0.2940774   0.1711120  -0.0550469
   1.6004091   0.9455299  -0.2096671   0.4780756  -0.2822687   0.3572589
   0.0734743   0.1281745  -0.2979453  -1.5961856  -0.6912487   1.6077409
  -1.2711838  -0.8747029   0.7767592  -0.3721012  -0.1370089   0.1667394
  -0.3438991   0.1158665  -0.7368450   0.7725243   0.0043567  -1.4333659
   0.0359778  -0.2701654   0.1686489   0.0895572  -0.6737454   1.5297063
  -0.4109975   0.8286241   0.5171848   0.0820906  -0.1314723   0.0339893
   0.6620390  -0.1409875  -0.2906131   0.1518114  -1.1442308  -0.5024983
   0.0720011   0.1437518  -0.0839520   0.1253523  -0.7985038   0.4518844
  -0.6249212  -0.1596709  -1.0739354   0.1144617   0.0967741   0.0683668
   0.1965112  -0.7331160  -1.4514565  -0.3532811   0.1408699  -0.1194984
   0.3571510  -0.1297859  -0.0406027   1.1166833   0.4795544   0.6257580
   0.1535357   0.4971618   0.5258689  -0.1635857  -0.2780885   0.2210507
  -0.0229046   0.1563056  -2.0001065  -1.0316122  -1.2996569  -0.4946554
   0.0712856   0.1475257   0.1097454   0.7928661  -0.1343224  -0.3105808
  -0.1929332   0.6723207   0.8302004  -0.3695540  -0.0983308   0.1173312
   0.7548573   0.5602024   2.0318389  -0.6940781   0.0867253  -0.7839949
  -0.3199712   0.1218150  -0.0624998   0.4213080  -0.2468321  -0.2588863
   0.4640135  -0.4254478  -1.4383068  -0.0455511   0.0301130  -0.0378558
   0.1668443   0.1643052   0.3175423   0.1867892   0.0932519   0.7049744
  -0.0993622   0.0864293  -0.0364156  -0.4657113   0.3790154  -1.3643427
   0.2056818  -0.8668394  -0.8665091   0.2717918  -0.0091016  -0.0136609
  -0.4112362  -1.1993229  -1.2604173   0.4841632  -0.2649793  -0.3847972
   0.1188430  -0.4201044  -0.1538365   0.6280089   0.7243143  -0.7809090
  -0.4424379   0.0907936  -0.3400544  -0.1791437  -0.2506384  -0.2826236
  -0.8088003   0.1234399   0.1754511   1.0498094   0.5951852  -0.2434214
   0.0753202   0.1400055  -0.1009284  -0.1136750  -1.0379116  -0.3757891
  -0.0646095  -0.8803859  -1.0231187  -0.2126576  -0.0292717  -0.0494342
  -0.3739205   0.4049275  -0.1827867   1.5763936   0.7828811  -0.0587400
   0.0506349   0.1071669  -0.1922759   0.2167606   0.6681921   0.6608405
  -0.2444620   0.6795436   1.0878379  -0.3839455   0.0511105  -0.2536457
  -0.2809554   0.5298638  -0.8317806   1.5282360  -0.6031409  -0.3286216
  -0.2297094  -0.0324046  -0.0534905  -0.2748052   0.3000620   1.2597889
  -0.3748898   0.6223026  -0.7416079   0.1941976   0.2930054   0.0283390
   0.3629390  -0.1870959   1.4458735  -1.7293877   0.7131025  -0.3063975
   0.0449642   0.0046791   0.1814148   0.0932429  -0.9195418   0.6632142
   0.5262780   0.9464329  -0.4556749   0.1509976   0.4792228  -0.0439143
   0.3198123  -0.6564804   0.2151322   0.1757126  -0.9107906  -0.6948551
  -0.2032935  -0.1244889   0.3407793  -0.2708574   1.1999065   2.2279959
  -0.4596751  -0.0391272  -0.2820525  -0.0989440   0.3481328  -0.3087823
   0.1924149   0.5278536  -0.8479495  -0.0591704  -0.2394156   0.2251669
  -0.1941967   0.0982257  -0.3539965  -0.6773227  -1.9455278  -0.3948370
   0.5080164  -0.2934280  -0.1495159  -0.0884475  -0.0215369   0.1318539
  -0.9178148   0.9522456   0.8221237  -0.6486177   0.6431591  -0.0664873
   0.1194438   0.3849745   0.0456115  -1.1923864  -0.3474864  -0.3487764
  -0.7584845  -0.2335057   0.2664175   0.1596834  -0.1059870   0.0492745
  -1.0132662  -0.3243972   1.2497158   1.5913796   1.8609957  -1.0845067
   0.1856110   0.0820133  -0.1800998   0.0788059  -0.2494503  -1.2073733
  -1.2071351  -0.0823969  -0.1897007  -0.2908017  -0.1696104   0.3548801
  -0.4044139   0.2816507   2.0322971  -0.9106081  -0.8447043   0.5613783
   0.0627540   0.0742027   0.1634403   1.1591838   1.2613716  -0.8802255
  -0.4636361   0.3825193   0.2564626   0.0546865  -0.2565007   0.0837160
   1.3435756   0.5572144  -0.4384017   0.6905050  -1.3867851   0.1043460
  -0.0073622   0.2131363  -0.0304748  -0.3984537  -0.4266237   1.1999809
  -0.3803666  -0.4566584  -0.5591179   0.2151045  -0.0776140  -0.0048322
  -0.6402538  -0.6186330  -0.9873259  -0.2407536  -0.3691813   1.2440163
  -0.2135212   0.1748890  -0.0005264  -1.7628294  -1.1588581  -2.0792329
   1.0624427  -0.3177636  -0.9957550   0.0099608  -0.2448483   0.1593230
  -0.2541273   0.3281641  -0.1680515   0.4947587   0.9069193   0.9711052
   0.2017443   0.1170453   0.1228902  -0.4613007  -0.2529473  -1.4282630
  -0.7053905  -0.4553305  -0.6430189   0.1723769   0.0401666  -0.1535607
  -0.3442800  -0.4563716  -0.1782179   0.1616375   0.6835880  -0.0177983
  -0.1495357   0.2434814  -0.0571048   0.2760739  -0.2443555  -0.6829804
   0.6608388  -0.7024440  -1.1209320  -0.0186678   0.1587372  -0.3285897
   0.7612984   0.4365420  -1.2724976  -0.2890258  -1.2267973  -1.4596309
   0.1877099   0.0163148  -0.0610254  -0.4761054  -1.6084365  -1.0481518
  -0.1722389  -0.4812715   1.3311391  -0.0071508  -0.2894593  -0.0309498
   0.8342094   0.0959853   2.4286695  -0.1880989   1.0404701  -0.2600583
  -0.1806761  -0.1509733   0.0055543   1.2468439  -0.7005516   0.7645859
  -0.8681701   0.4439745   0.0447040   0.0780059   0.1818373   0.1707408
  -0.4179016  -1.0468594   1.1563545   1.3449348   2.9324385  -0.6708011
   0.1663547   0.0780958   0.0517937   1.0133438  -1.4338808   0.7752888
   0.3572616  -0.2604726  -1.3179781  -0.0501728   0.2738886  -0.0132917
  -0.1036727  -0.0658201   0.6520141  -0.2259508  -0.6296682  -0.1169738
   0.3240994   0.0442956  -0.1890066   0.1871986   1.1517639   0.9541732
  -0.6170290  -0.1752977  -1.3833239  -0.2118423  -0.0079956   0.3011760
  -0.3258747   0.1930359  -0.7289682   0.6193068  -0.7526611  -0.4779133
   0.1062404   0.1617850  -0.1033159  -1.2371193  -0.5453662  -0.0399151
  -0.6517367   1.5086527  -0.3086824   0.1740472   0.2844034  -0.1111348
  -0.7878564   0.1191187  -0.6349043   0.0878339   0.7170157   0.7009899
  -0.0403478  -0.1671935  -0.2450516  -0.2172755  -0.1060377   0.1785596
   1.2545670  -0.2243357  -0.9213809  -0.3053279   0.0177034  -0.0902632
  -0.9590048  -0.9870035  -0.0267946   0.0092235   0.2344537  -0.5555732
   0.1455646   0.0170743  -0.2865332   0.6954607   0.8649017   0.8381570
  -0.0954212  -0.6007196   0.2258551   0.1536246   0.2906369  -0.1244537
   0.8825682  -0.9600686  -0.5069378   0.2995942   0.4098389   0.6255241
   0.1590681  -0.1355839   0.1251912   0.2113627   1.1981930  -0.6131557
   0.4800944  -0.2846884  -1.1257299   0.2167063  -0.0084219  -0.0774748
   0.0265870   0.8584811   0.0297159  -0.7348126  -1.4039953  -0.1083308
   0.0435336   0.0400512  -0.0759867  -0.5535732  -0.7541653   0.7964546
   0.1858901   0.3089372  -0.3780680  -0.1786732  -0.4301579  -0.1529977
   0.1623243  -1.6210691  -0.0965763  -0.5811141   1.6424286  -1.3754391
  -0.0632657  -0.1082136  -0.1768678   0.5464545   0.7543007   1.1056721
  -1.0089623   0.3736932  -0.7533711  -0.1564888  -0.3287750  -0.1131107
  -0.2088072  -1.1882661  -0.8172301   1.2839813   0.1198425   0.3505912
  -0.2948026   0.0051113   0.0482212  -0.1422456   0.9078243  -0.8787305
   0.9706263  -0.7479597  -0.8144906   0.1647668  -0.0588853   0.0648667
  -0.1085335  -0.9368270  -0.8613723  -0.3005091  -0.1545114  -0.1302684
   0.3076615  -0.2240409  -0.0952825   1.6392732  -0.0876449  -0.9237170
   0.7461227  -1.3480236  -0.4542812  -0.0669362   0.1105308  -0.0430062
  -0.3108926   0.5447903  -0.1848096  -0.1827357  -2.0621421  -0.4946212
  -0.1772952   0.1860959  -0.0123197  -1.6150181  -0.4647466   0.3065787
  -0.8022457  -1.5105008  -1.0749709   0.0072780  -0.1229318   0.5070904
   0.8030006  -0.3982359  -1.4042249  -0.8095956   1.2960503  -0.5715768
   0.0107903  -0.1932774   0.0584919   0.4694513   0.1056970  -1.3091185
  -1.1896381   0.5130551  -0.6248720  -0.0328080   0.0511137  -0.0174251
  -0.8694298   0.7356719  -0.4256202   0.5975993   0.0411400   1.5953672
   0.0746127   0.0293449  -0.0637046  -0.0801287   0.0502274  -0.5067575
   0.1103797  -0.9143414  -0.1110552   0.1970771   0.3863064   0.2557565
   0.5605365   0.7755963  -0.9004401  -1.0369987   1.0856257   1.6729584
  -0.2879845   0.1723715  -0.2599580  -0.8329539  -0.3296662  -0.0470518
   1.6318570   0.8166230   0.6771355   0.1268801  -0.1706722   0.4706046
   0.2475903   1.2300929   0.2864612  -0.5863549   0.6171021  -0.1418559
  -0.0107920   0.1651884   0.0255270   0.9090166   1.3435741  -0.4896658
  -1.1040360  -0.8804887   0.5817384  -0.2023157   0.0646302  -0.2102190
   0.2388872  -0.7472017   1.1598097   1.3594594  -0.8499406   0.2495335
   0.1544931   0.0696612   0.0707146   0.2034372   1.0346856   0.2347630
  -0.3678067   0.7540487   0.5385901   0.4456497  -0.2528933   0.2813321
   0.2586920  -0.0034945   0.0476101  -0.9795430   1.2669417   0.1663514
   0.0410069   0.4163163  -0.0440659   0.1689825  -0.3856722  -0.6703142
   1.3058659   0.2767507   0.3969842   0.0861236  -0.2239374   0.2671681
  -0.0126834   0.3591736   0.6988717  -1.3620972   0.9725119   0.1617709
   0.2015192   0.0227128   0.1752213   0.0464383  -0.3653885  -0.9454143
  -1.0284577  -0.3124661  -1.0746828  -0.0584527   0.0382277   0.1508286
  -0.0739039   0.2601881   0.6447277   1.6833036   1.7184532   0.6725558
  -0.1961172  -0.1628976  -0.0669043  -0.4060083  -0.4644742  -0.1961134
   0.9063658  -0.1709253   0.1897153  -0.1095672  -0.0010805   0.0862537
   0.5489586  -1.2341681  -0.7588356  -1.3369397  -0.1484860  -0.2839930
  -0.0685999   0.1044306   0.1621714   0.6779236   0.5372489  -0.2806325
  -0.5494339  -1.6596063   1.7101092  -0.2052099   0.1623721  -0.1658167
   0.0981669  -1.2382171  -0.8668138   0.2862984   0.3459310  -1.2742590
  -0.0409153  -0.1561052   0.0974639   0.1782498   0.1404032  -0.3081365
   0.7433333   0.0661715   0.9022495   0.1762419  -0.2005573  -0.0081253
  -0.2540641   0.9793562  -0.5713381   0.1330851  -1.5693811  -1.1314781
  -0.1409294  -0.1979886  -0.3125548   1.0533238  -0.1421959  -0.1747621
   0.7014026  -0.4541042   0.4019049   0.0860115  -0.1592161  -0.1847539
  -0.3674716  -1.1877197  -0.5836689  -0.0993128  -0.7579161   0.7664075
  -0.0575423   0.1191651   0.0120130   0.1466130  -0.8042380  -1.0296777
  -0.1630611  -1.2224071  -0.0433323  -0.1770037   0.0502553   0.4113045
   1.3563784  -0.8191658   1.4384208   0.5208876  -0.1406920  -1.3352322
   0.1781993  -0.2041955   0.2990135   1.0737177  -0.3487570   0.4334563
   0.0195418  -0.1840483  -1.3157477   0.2284666  -0.5234812   0.5063762
   1.4834843  -0.7342946   0.1105187  -0.1269469   0.0855216  -0.9556187
   0.0966816   0.1981776   0.0914698  -0.2518904  -2.1951401   0.2884510
  -1.3586136  -0.6065305   0.3959743   0.0462841  -0.1050183  -0.5474894
  -0.1516753  -0.5192244  -0.4460614  -0.1442690   0.6050815  -0.3815227
  -0.1336641   0.2121680  -0.1976837  -1.0408475  -0.3164926   0.8657035
  -0.5911743   0.5010665   1.0756823  -0.0492097  -0.1027058   0.2064754
   0.4846178  -0.0746273   0.2575047   0.9090081  -1.0168834  -0.3554898
  -0.0288710  -0.0422165  -0.1118693  -0.1399692   0.3015073   0.9973886
   0.9284456   0.3922820  -1.2848004  -0.0651077   0.1830598   0.1523801
  -0.7967032   0.1295830  -1.0808600   0.2949918   0.1640858  -0.4410716
   0.2496715  -0.1150432   0.2665931   0.4251188   1.5015470  -0.4399164
  -0.4550867  -1.3648415  -0.1629147   0.3241678   0.1770362  -0.2553732
  -0.7840849   1.3508594  -0.4309315  -0.1853768  -0.2515311   0.2210186
   0.1982483  -0.0970260   0.1649500   0.3815068   0.3703339  -0.6833481
   0.8795702   0.3635149  -0.6223017  -0.4321997  -0.0834214  -0.0457795
  -0.6330959   0.1906255   0.6409366  -0.1390697   0.1958247  -1.2421475
   0.4240352  -0.0594467  -0.0541952  -1.6505152  -0.3783045   0.7185634
  -0.4419821   0.6218077  -0.2195761   0.0715325   0.0869862  -0.0024550
  -0.1380123   0.4634605  -0.3234731  -1.5866886  -2.0566288   0.8166480
  -0.5398528  -0.0153363   0.3294788  -0.8054051  -0.0052467  -0.5720374
   0.3829127   0.4265617  -0.3048647   0.2591309   0.0050461  -0.1292792
   0.2111958   0.1198794  -0.9542332  -0.3831900  -0.2796401   0.9485604
   0.0144112  -0.1287916   0.0263274   0.2017680  -1.4433804  -0.2073783
   1.1875342   0.3614856  -0.1481167  -0.2622382   0.0942563   0.0216527
   0.0471244   0.1861420  -0.0927775   0.0957012   0.6851879  -0.2269561
  -0.0076801   0.0326801  -0.1198687   0.4875267   0.1290914   0.4984267
  -0.2435824  -1.2839783   0.4963660  -0.1703787  -0.2197562  -0.1001912
   1.5084067   0.3109050   0.6654172  -0.2942629  -0.4994822  -0.2814228
   0.2650043   0.1631186  -0.1316670  -0.7905457  -1.4083266   1.1814347
   0.2801573   0.5570100   1.6278362   0.1831057   0.1044423   0.1767314
  -0.1871678  -0.9101979  -0.5887246   0.6856293   0.7541343   0.5859590
  -0.1639593  -0.1968210  -0.0502301   0.3965694  -0.8280877   0.3905420
   1.5964671   0.9391935   0.8330902   0.1573393  -0.4076108   0.3532869
   0.7995283  -0.1367605   0.5236439   0.9263187   0.6570006  -0.2887696
   0.0190028  -0.3947631   0.0928002  -0.5098894  -0.7917177  -0.8324099
  -0.0138091   0.4618393  -0.8028608  -0.0353527  -0.4613007   0.1555246
  -0.4692952   1.5721331  -0.2565213  -0.3635284   0.7574356  -0.8206028
   0.0181275  -0.0061311   0.1196523  -0.8440066   0.4854136  -0.1142583
  -0.0749795   0.0917262   1.4214901   0.0715239  -0.0601046  -0.0263319
   0.6336290   1.0837252  -0.9614231  -0.0384187   0.0014212   0.8465656
  -0.4176231  -0.0502429   0.1461970   1.8083448  -0.9222683   0.5750397
  -0.4810893  -0.5626833  -1.0883875   0.0150056  -0.2493855  -0.0173287
  -0.0772137   0.3544553   0.4412215   0.3034247  -1.7477043   0.3332123
  -0.0073172   0.0050823   0.1773191  -0.8292409   0.3978070   0.5282651
  -0.1639343  -0.4114890  -0.1211533  -0.4645293   0.2127376  -0.0367411
   0.2596775   0.3313647   0.5826916   0.5306911  -0.2869495  -0.3887225
  -0.1481514  -0.1087339   0.1950345   0.1183692   0.2025564  -0.1291118
  -0.8388123  -0.4656639  -0.4852559  -0.0853519   0.2672737  -0.1805431
   0.3046709  -1.0960290   0.2542983  -0.1883213  -0.5349764   0.3048052
  -0.0729970  -0.0366975  -0.0049182   0.2362429   0.5323138  -0.3379101
   0.2865169  -0.3378318   0.2290085   0.3852293   0.0118977   0.4425081
   0.3381281  -0.4455829   0.1035899  -1.1008632   0.5117272   0.7027248
   0.0797527  -0.1468163  -0.2598791  -0.8568183  -0.7625331  -0.1848547
  -0.2213777  -0.0604061   0.3698884   0.2719724  -0.0398695   0.2374483
  -0.8756700  -0.0263257   0.3036157   0.1065142   0.0987619  -1.9200740
  -0.0421671   0.0497735  -0.2273289   0.1574804  -0.9145643   0.8901976
   0.0320384   0.1305216  -0.3324791  -0.1309846   0.0780596  -0.0208341
   0.7517187   1.9523633   0.9760681   1.3473456   1.1130076  -0.2839836
  -0.0161597   0.2055513  -0.0746285   0.7545302   0.0217106  -1.0091754
  -0.0718382  -0.4951855  -0.3475582   0.1169153   0.2001928   0.0709822
  -0.5173745  -0.2699677   0.1653681   0.3500291   0.2512132  -0.7990442
   0.0450370   0.1522668  -0.1287705   0.3272899   2.2661699   0.5513458
   0.7503706   0.5680342   1.0007725   0.3247190   0.0498573   0.2573671
  -1.3057282   0.9663202  -0.2855759  -1.1157750   1.5526511  -1.0292801
   0.3827401  -0.2337942  -0.1342569   1.4000613   0.2679542   0.7595718
  -0.6999423   0.6634824  -0.3551446  -0.0175577   0.1307429  -0.1440617
  -1.4861938  -0.7675112   0.0195804   0.7937504  -0.2621433   0.3608721
   0.2188577   0.2314790  -0.0107761   0.6754367  -1.1490628   0.1499397
  -0.2196061   0.6811440   0.0699604   0.0942762  -0.0173592   0.0943979
  -1.9144737  -1.0139103   0.4212236   0.8817166   0.1869145   0.3849484
  -0.1261301   0.1135471   0.0362240  -0.5438682  -0.4004014   0.5860875
  -0.4936007   1.5008050  -0.0464706   0.0165624   0.0712207   0.1638810
  -1.5912257   0.2030317  -0.0776845   0.0012692  -0.0153825  -0.0369780
   0.3043920  -0.4362183   0.2986079  -0.6693211  -0.4810005  -0.5030511
   0.0673894  -0.3030897   0.0025721   0.0099465   0.0975059  -0.1849315
  -1.0247761   0.8568623  -0.1400571   0.1885196  -0.6177028   0.0605909
  -0.3263074  -0.2852655   0.2341519  -0.0799881   0.9499501   0.0453782
   1.1656176  -0.2205722  -0.1486756  -0.2940273  -0.3538557   0.1265011
   0.1542885  -0.1960140  -0.1724054  -0.1719969  -0.6392082   0.3902561
   0.1956528  -0.1950431   0.2556908  -0.6439667  -0.2150349  -0.8860556
  -0.8569767   0.3898666  -0.4318143   0.1562318  -0.0902770   0.1849129
  -1.1714891  -1.0131390   0.8326832   0.2462044   0.3696154  -0.0911332
   0.0059344   0.4424126   0.1376315   0.7386041  -0.4755027   0.9993881
   0.0462167   0.7934412  -0.0655715   0.3225586  -0.0684518   0.0654958
  -0.7332040  -1.3359853   1.0683775   0.1791654  -0.5638637  -0.5483408
  -0.1073889  -0.1033515   0.2438268   0.2272126  -0.4282141  -0.7908731
   0.4825353  -0.8598103  -1.1814246  -0.2286497  -0.2051702   0.1241310
  -0.5825272   0.8314805  -0.1604647  -0.4002567   0.9018121  -0.2261058
   0.1306963  -0.0890256   0.1496334   0.0752227   0.9279408   0.1045235
   0.1663147   1.4914930  -0.4565500  -0.3265756  -0.0779381  -0.0961365
   0.1207595  -0.7656857   0.8138242   0.1402539   0.1894200   0.0478739
  -0.0174528   0.2122941   0.1175853  -0.5565419  -1.9784283  -0.3822975
  -0.6817102  -0.3201847  -1.1645262   0.1352190   0.1366215   0.0471632
   0.5108574   0.0217048  -0.7868227   0.6075007   0.3747287   0.4158470
  -0.2200644  -0.0696861  -0.2119031  -1.7296695   0.8038978  -0.3221555
   0.2297068   0.8143148  -1.0876615  -0.1799032   0.2222491  -0.1527737
   0.0011126   0.3900246   0.2174145  -0.1393692   0.0932814  -1.3344255
   0.3045395   0.0355307   0.1737919  -0.8316858  -1.0152789  -0.8671934
  -0.7800464  -0.2914892  -0.6133115  -0.4077101  -0.0368586   0.0389247
  -0.6933225   0.0538872   0.4483079   0.3768996  -0.8035535   1.1636329
  -0.3890772   0.0026190  -0.3460920   0.0718483   1.1367333   0.1243038
   0.0904591   0.3192358   0.0978608  -0.0003542  -0.1126530  -0.0872433
   0.5885000   0.5332098  -1.9711046  -0.3020773  -1.5115564   0.8234238
   0.1476877  -0.1512082   0.0264103   0.6371890  -0.0854335  -0.1655771
  -0.9615551   0.1680390   0.1154003  -0.1237208  -0.3035598   0.0483693
   0.0438869   0.1990315  -0.3679904   0.3870235  -0.0883718   0.5055056
   0.2128632  -0.0030035  -0.1070580  -0.0837937  -0.6516756  -0.2349386
  -0.8549946   0.0436953   0.9481623  -0.0373290  -0.0577970  -0.1307637
  -0.5103343  -0.9399924  -0.2261063  -0.9580591   0.5367814  -1.1141016
  -0.1875565   0.0128673  -0.3425118  -0.5361897   0.9778268   1.0076336
   0.3581919   0.4148363  -0.8544972   0.0528920  -0.1171946   0.0693117
   0.1262046  -0.8287227   1.2471637   0.3419375  -0.4621728   0.3955839
  -0.0313636  -0.3859550  -0.0417023  -0.9361790  -1.3085790  -1.2735489
   0.5275909  -0.0139121  -1.2242325   0.0610111   0.0044440  -0.1711610
   0.7208880  -0.1220603  -0.8852559   1.0124883   0.5148615   0.7767160
   0.1751055  -0.1949612   0.1583355  -0.7277622  -1.6460956  -0.8305882
  -0.9964537  -0.6590339   1.0028879   0.2046110  -0.2214643   0.2296893
  -0.9659778   0.0227892  -0.9029915  -0.4057334  -0.1341181   1.0130331
  -0.1383690  -0.1651688   0.0703200  -0.2213328  -0.7501452  -0.0416166
   0.5912440  -0.2414576   0.6854126  -0.0848806   0.1006928   0.1712255
  -0.2759942  -0.5104634  -0.3782349  -1.1285157   0.2390869   0.2591386
  -0.1267487  -0.1873551   0.1080682   0.3404650  -0.0351148   1.0096453
  -0.6602973   0.1925203  -1.3060012  -0.0788567   0.1634293   0.0316385
  -0.9724458   0.1487273  -0.0256827  -0.6362736   0.6614715  -0.7146239
   0.0449881  -0.1730882  -0.0689950  -0.9900801   0.7578250  -1.7603894
   0.1188054   0.4837600   0.5237678  -0.2765505  -0.2396726   0.1515955
  -0.5203665  -0.7747416   0.4532646   0.6952829  -0.5272551  -2.1445036
  -0.0211232  -0.1242197  -0.0962846   0.5512490  -0.0821403   0.1849417
   0.0808511   0.9111557   0.2651317  -0.1799787   0.1295582  -0.1019422
  -0.3559835  -0.0595543   1.7992759   0.5003599  -0.4296903  -0.5313410
  -0.0430016   0.0852692   0.0713607   0.1493501   0.1777001  -0.5101819
  -0.0165514   0.3598530  -0.2414528  -0.1094323  -0.1742915  -0.0104248
  -0.9088717  -0.0013311  -0.1452420  -0.5192725  -1.2767472  -0.1695978
  -0.0076298  -0.0097453   0.0933335   0.5282416  -1.0513422  -0.4287356
   1.4583495  -0.9831328  -2.4445218   0.1883814   0.0662170   0.1404989
   0.3033330  -0.5028774  -0.3799622  -0.9837914   0.1275468   0.1144393
   0.0506404  -0.0413427   0.3391730   0.4886082  -0.5025249   0.0366121
  -0.6544054  -0.2342294   0.3013026  -0.1206432   0.0418375   0.0619165
   0.0797340   1.4450401   0.5736533   0.5610000  -0.7518710  -1.4280937
  -0.2189815  -0.2998927  -0.0376174  -1.1093509   1.2014728  -1.6673181
   0.7148114  -0.9184978  -0.6053666   0.1505301   0.1181974  -0.0531898
  -0.7836157  -0.7643346   0.8013501   0.2182252   0.4308268  -0.3018303
   0.1280637   0.1603658  -0.0578989   0.2956337  -0.3609033   0.4480894
  -0.4520170  -0.1126273  -1.4488504  -0.2294858  -0.1794708   0.0931362
   0.1309988  -1.3663005   0.7464655   0.5214631   0.2591598   1.1994755
  -0.0145068   0.0324982  -0.0719777   0.2273712   0.5037019  -0.4705853
  -0.1503370  -0.7938277  -0.5235085  -0.1186646  -0.0548931   0.1567107
   0.5926473   0.3071918  -1.3279921   1.4184989   0.1172262   1.1980098
  -0.0808071   0.2013914   0.0481893  -0.7821341   0.8663633  -0.0880868
  -0.7065148   0.2169533  -1.2867094   0.1175521  -0.1316358   0.2207370
   0.0572081   0.4148861   0.5025464  -0.6243638  -0.9178625  -0.9118982
  -0.0371576  -0.1590061   0.0456257   0.6374767  -0.6939567   0.7283038
   0.9159214  -0.4412931   0.8234476   0.1089552  -0.1566355   0.1486729
  -0.8073153  -0.9570816  -0.0941282  -1.9018495   0.2605618  -0.8477217
  -0.0485536   0.0288248   0.0702436  -0.4271609  -0.2515514   1.0715166
  -0.6672483   0.4729015   0.4149051   0.0037449   0.1940950  -0.0606324
  -0.2695437   0.0796818  -0.1555440   1.0396080  -0.1928606  -0.5557170
  -0.3960793   0.3114090  -0.1329229   0.4918818   0.6691473  -0.1286732
  -0.4548982  -0.5183213   1.6523381  -0.1573722   0.1366915   0.0240500
   0.8893067   0.9690070  -0.8885024  -0.2806267   0.2806115  -0.4904151
   0.1309594   0.0344428   0.0096934   0.0133783  -0.7348124   1.0090160
  -0.6201007  -1.2355862   0.3217402   0.2413531  -0.1255183  -0.0467401
  -0.1187748   1.3566656   0.7652483  -0.9524246  -0.4714350   0.7077903
  -0.0981943  -0.0174744  -0.0570049   1.5575483  -0.3427063  -1.2182295
  -0.3157928  -0.5438992  -0.4559493  -0.3615156  -0.1056224   0.2706760
   0.5699074   0.3849691  -1.0011108  -0.5449099  -0.4934754  -0.7426932
  -0.2170572   0.1339914  -0.1724911  -0.0210304  -1.5077106   0.4576393
   1.3419529   0.1913368  -1.0919918   0.1857258   0.3618705  -0.0756197
  -0.2306318   0.3914877  -0.2347915   0.9738248  -0.9780799   0.6189448
   0.1226929   0.0539997   0.2260130   0.6206293  -0.8993128  -1.0074925
  -0.6213257  -0.1298120   1.4514581   0.0290424   0.1196250   0.1226891
   0.3032905  -0.2104983  -0.2716017   0.2000508   0.0356190  -0.1513142
   0.1003638   0.1462520   0.1018581   0.0057349   0.5650674   0.4092576
   0.8449463   0.6332094   0.5925268  -0.1581818   0.1714182   0.2861029
   0.0955945   0.8720776   0.2011961   0.9404275   0.5404190   1.2360626
   0.2685872   0.4606748   0.1537996   0.0632458   0.7197114  -0.8384368
  -0.5546364   1.2964180  -0.4489265  -0.0701902  -0.0746045  -0.1070491
   0.3236697   0.9550988  -2.2910024   0.1790686   1.1180468   0.0785483
  -0.1481040  -0.0922809  -0.4556120   0.7264452  -0.8347170   0.5646309
   0.3205929  -0.3621929  -1.0177932  -0.1783447  -0.1102717   0.0781646
   1.2817254  -1.6003532  -0.0416651  -1.0011240  -0.2378050  -0.2606031
   0.2549889  -0.0090257   0.2709214  -0.0126673  -0.3036868  -0.4580826
   0.3004907  -0.5116277   0.4483283  -0.0408806   0.1551027  -0.3028340
  -0.1478526  -1.2405115  -0.2029659  -0.5190820   0.1045396  -0.1386375
   0.0686124   0.0335270   0.2577632  -0.3673924  -1.1927003   0.1146920
   0.0234096   0.3909222  -0.3400568   0.1866528  -0.3749625   0.0489913
  -0.6724158  -0.5745256   0.2767613  -1.3091481  -1.1387188  -1.6842001
  -0.1713800   0.2015859   0.1566666   0.6786474   0.0156533   0.0292552
   0.1362186  -0.6252416  -0.1006462   0.1436078   0.1143781   0.1835075
   0.2409371  -0.0532461  -0.7982313  -0.0645644   0.5642825   1.0482906
   0.0955689  -0.2885578   0.1340375   0.9812843   0.8502335   0.2906176
   1.9787923   1.0092148   0.6991205  -0.1855487  -0.1204708  -0.0061548
  -0.3767930   0.3848405  -0.4597251   0.1465077   0.7146831  -0.2275705
   0.1916168   0.3691345   0.1574571   1.9289267   0.4119976  -0.2786642
  -0.9382120   0.3282884  -0.5787220  -0.3791420   0.3262084  -0.4660396
   0.1106978   0.9445751   0.1267714  -1.1735485  -0.6224036  -0.2290992
   0.1322336  -0.1137988   0.1660143   0.8139224  -0.8749337  -0.2363352
  -0.2615907  -0.3554300   0.4497808   0.2594011  -0.0061169   0.0742089
  -0.5341930  -0.3687848   0.6502417  -1.6495675   0.0735680   0.1980682
   0.0638411   0.0559409  -0.0498516  -0.4323159  -1.6696385  -0.6679961
   0.4121103   0.9158393  -0.2104042  -0.1197353   0.5173042   0.1289003
   0.2039403  -0.0417741  -0.4183127   0.8076755  -0.3449658   0.6175617
  -0.2098457  -0.1194874  -0.1610285   1.1306155  -0.9368453  -0.2443001
   0.5014903   0.4866337   0.7541134   0.4787248  -0.1301863   0.2283866
  -0.6486945   0.9007138  -0.7478822  -0.0971164   0.1742765  -0.6419849
   0.4006643  -0.0598261  -0.3453451  -0.7410569   0.3341201   0.6887316
  -1.0590150   0.0919922   0.4162493  -0.1144356  -0.1469832  -0.2167426
   1.7895257  -0.6603816  -0.7657230  -0.3367882   0.2557725  -0.4910793
  -0.0180577  -0.0370277  -0.0609200  -0.5935133   0.2003991  -0.5304329
   0.9165625   0.8270141  -0.2404073  -0.1544127  -0.3899793  -0.2359863
  -0.5275400  -0.4316449   0.0694528   0.4761481   1.0802591  -0.2771716
  -0.1756711  -0.2963886  -0.2594237  -0.2805818  -0.1384040  -0.8096810
  -0.5924781   1.0876228   0.1504465   0.0534309  -0.1721536   0.1441293
   0.9816261  -0.8379300   0.3937432   0.0890597   0.8268849   0.2500699
  -0.3765377  -0.0535750   0.2577618  -0.3413118   0.7615550  -0.4859356
   0.0684006  -0.3637268  -0.7259490  -0.2091347  -0.2840744  -0.2614252
  -0.2056863  -1.9433911  -0.5646779   0.1042684  -1.0893566  -0.4206918
  -0.3292310  -0.0294626  -0.3941213  -0.2804735   1.7499394  -1.1471251
  -1.6893249  -0.6111597   0.6271121   0.0717297  -0.2560014   0.2310299
   0.5136811   0.6249436  -0.1661477   0.0133871   0.6883993   0.1854982
   0.3184851  -0.0700721   0.0591446   0.8596066  -0.4200926  -2.7063456
  -0.6371584  -0.0211897  -0.3134590   0.0078862   0.3033477  -0.3394165
  -0.2712500  -0.7070227  -0.6694944  -0.4116368  -1.4630952   0.0379124
  -0.0420822  -0.0123544   0.0050868   0.7427352  -1.5509173  -0.4835058
   0.1967036  -0.5571294   0.6702464  -0.1251844   0.0606112   0.2598196
  -0.6419212  -0.2702206  -0.4410696   0.5598652   0.3729329  -0.7409385
  -0.1202170  -0.1808006  -0.0855955  -0.1008051  -1.0031705  -0.1554419
  -0.6923022  -1.8846559   0.4746787  -0.0259866   0.1860928  -0.1592752
   1.6012633   0.3394403  -0.4879722   0.1268393   0.0658895  -0.2086367
   0.1002048  -0.1757774   0.0439253  -1.0577616   0.5574681   1.0301192
  -0.4105800   1.6803901  -0.8311173  -0.2448058   0.1398873  -0.1933015
   0.1019865  -0.3470296  -0.2326533   0.4552235  -0.0518616  -0.9817289
  -0.2715414   0.2397164   0.0959328  -0.7190133  -0.1316797   0.9017089
  -0.8461486  -0.8687709   0.7406088  -0.0076960   0.0446163   0.2345756
   1.6604186   1.4469558  -0.0962038  -0.8477585   1.4795102   0.3091750
   0.0054475   0.1662375  -0.0798731   1.9769841  -0.4315495   0.3946663
   1.2929897   0.2136041   0.2608453   0.0271653   0.3357157  -0.1336405
  -1.5647061  -0.4325478   0.6291498   1.2591524   0.0048412  -0.4402994
   0.1209097   0.1915812  -0.0538950   0.3350523  -1.7225840  -1.9713831
  -0.9040909   0.5858886  -0.3255366   0.1198527  -0.2224609   0.0088393
  -0.2329442   1.7475603  -0.0059130  -0.6795054  -0.0131209  -0.5389189
  -0.1578275   0.0226344  -0.2028872   0.5632656   0.3225335  -2.0026196
  -1.0833012  -0.8966460  -1.1868357   0.3977660   0.0536869   0.0215433
  -0.4446699   0.7618130   0.4338499   0.5119698  -2.1717809  -0.9499807
  -0.0224713  -0.1318060  -0.4373716   0.7049773   0.7049123  -0.9113928
  -0.4453263   0.7024925  -0.6051856   0.4253914   0.0411075   0.0021670
  -0.6392927   0.8731095  -0.4115600   0.9455417   0.3600442  -0.0051476
  -0.0019932   0.1473749  -0.1649150  -0.3833464  -0.9247122   0.3329585
  -0.6984973   0.5913033  -0.0930350  -0.1174168   0.3158670  -0.0124115
   0.2399576   1.2117978   0.3584670  -0.6308399  -0.0381469   0.9531077
  -0.1546280   0.1662496   0.1086973  -0.8747414   0.8352870  -1.1754150
  -0.5313445   1.2735592  -1.4201666  -0.3640906   0.1065272   0.1284916
   0.3020301  -0.0270215  -1.0701168  -0.8916430  -0.2290025  -0.0069460
  -0.0513548   0.3641736   0.3731632  -0.3085507  -0.5780223  -0.5552860
   0.4362599  -0.3292960  -0.3066241  -0.3190973   0.1936108  -0.1630714
   0.0883059  -0.8347242   0.5876866   0.4125427  -0.1689772  -0.5295690
  -0.0467677   0.1922516  -0.2899262   0.9614072   0.4412560   1.8217729
   1.3659780  -0.9070947  -0.3772954  -0.0207659   0.1454069  -0.2298643
   0.4673211   0.5111534  -1.5973783   0.9703714  -0.6424549   0.5074881
  -0.0540930   0.3075644  -0.1923049  -1.1201557  -0.0005031   0.0651940
   0.1893606   0.0382699   0.7842626  -0.1004411   0.0462650   0.2113345
   1.0587500   1.5314689  -0.6717592  -0.0386777  -0.4566474   1.1956573
  -0.0920968  -0.0325149  -0.1435509  -0.5660844   0.4336098  -1.5469375
   0.4787358   0.4999189   0.4241178  -0.0994538   0.2236362  -0.3413078
  -0.3278629   0.6046660   1.2755368  -0.9310876  -0.4642460  -0.1885376
   0.2038538  -0.3984194  -0.1745112   0.1846657   1.0061982  -0.0791537
  -0.0191536  -0.6197085  -1.6606941  -0.4146655  -0.0638984   0.1480588
   0.6983857   0.4763155   0.4718058  -1.4411406  -0.2984244   0.0671277
  -0.1792627  -0.3340485  -0.2280431  -1.3946813  -0.8363950   0.6821019
   0.2522931   0.0315052   1.3648244  -0.0794662  -0.1183920  -0.1312010
  -0.4371209  -0.4770280   1.0027642  -0.9858128   1.1268042   0.2378645
  -0.1529114   0.1229317  -0.2791525  -0.5224940  -1.0046676  -0.5889620
   0.1574894   1.2242333  -0.5665787  -0.3214654  -0.2020940   0.3789578
   0.5670576   0.3033779   0.5230106  -0.9557259  -0.5660849  -0.9208651
   0.0449063   0.0649432  -0.2351371   1.4526422   0.9425324   0.9201444
   0.4291502   0.0932610   0.3881364  -0.1718262   0.1236249   0.2466424
  -0.7080174   0.2552849  -0.9306935   0.9377696  -1.7987834   1.4838456
   0.1770842   0.1691848   0.0961148  -0.4246256   1.0075426   0.2516930
   0.7996900  -0.6689630  -0.7559222  -0.0139922   0.2161431  -0.1035731
  -0.3094908   0.4178832   0.0701498  -0.6285956   0.3223922  -0.5978519
  -0.0574501  -0.4326116   0.2121674  -0.5418403  -0.6070704   0.8103873
   0.4313032   0.2629422   0.0388016   0.0713866   0.0693504   0.1945502
  -0.9673908  -0.1332258   0.4275814   0.1241482   1.1990811   0.9025949
   0.0425903  -0.2048515   0.1789618   0.4373065   0.5466585   2.3340596
   0.3136156   0.0825666  -0.4832971   0.0965812   0.2521808  -0.2163351
   1.0870257   0.1501111  -1.0549014   0.2476769  -1.3132114   1.0965121
  -0.0916274   0.2159479   0.2233523   0.0517204   0.3712567  -1.1126649
   1.2509499   1.0260554  -0.5292547   0.1767989   0.1126217   0.1349215
   0.2486106  -0.7819867  -0.7410335   0.0179482  -0.1643144  -0.0347599
   0.0140674   0.2373030  -0.1344435   0.0642671   1.0161298   0.2246347
   0.1157029   0.3301617   1.0457435   0.1729455   0.0576652   0.0307876
  -1.9711767   2.1463570  -0.2289428   0.2202010  -0.3892619  -0.1048508
  -0.0317452   0.2865329   0.1643874   0.0292174  -1.3556804  -1.2673437
   0.4712559  -0.1171209  -0.8828006   0.1138615   0.0152090  -0.0771370
  -0.6877886   0.2369991  -0.8769596  -0.6495789   1.2935760  -0.1635148
  -0.1413270  -0.4378201   0.1063711  -1.1138941  -1.0736078   0.8078987
  -1.0073434   0.0293233   0.1480610  -0.0886563   0.1217253  -0.1635153
  -0.6487538   0.4799236   0.1552340  -0.2033031   0.9987901  -0.0163045
  -0.1235429   0.2375238  -0.0136289   0.0036010  -0.3235011   0.8622328
  -0.2395345   0.4542922   0.9505543   0.0587653   0.0231105   0.0787993
   0.6047696  -0.9026482  -1.2195780  -1.0202449  -0.9956494   0.4654610
   0.0836380  -0.1415525   0.3096004  -0.0674932  -0.2884216   0.1123687
   0.1371830  -0.3195111   1.1151416   0.2406764   0.0571108  -0.0984163
  -0.0938337   0.4561264  -0.9352701   0.8231363   1.0127293   0.8154711
  -0.2646746   0.0086367   0.2454448  -0.0392975   1.4097207   0.1217042
   0.1289276  -1.6301949   1.5383895  -0.4989543  -0.1744927   0.1202740
  -0.6474638  -0.4543467   0.8944924  -0.0355311  -1.3143531   0.1175009
   0.0100009  -0.0068948   0.0999008   0.9085081  -1.3467892  -0.1899688
  -0.8553479   1.3512929  -0.8523067  -0.0725615   0.1908900  -0.1485415
  -1.2622124   0.7196580  -0.4155731   0.4438415   0.0182088   0.7155874
   0.0574569  -0.0678896  -0.0521399   0.1753827  -0.0511935   0.4623250
  -0.1886256   0.0876036   1.8168721  -0.1805037  -0.0620346  -0.0042747
   0.0809803   0.2733248   0.0903302  -1.6266659   0.2345512  -0.7372189
   0.1251192  -0.1974375  -0.0062176   0.4483152  -0.0967711   2.3274212
   0.6981038  -0.3121759   1.6923819  -0.2237218   0.2667119   0.0378596
   0.3443031  -0.2654241  -0.5325396   0.7603142   0.2241724   0.4166941
   0.0429005   0.1052541  -0.1057771   0.2621680  -0.0025280  -0.5366952
   0.1749931   0.2563758  -0.8734675  -0.2144946  -0.1468140  -0.1513430
   1.5282747  -0.8571972  -0.0989385  -0.1548378   0.1781879   0.5613396
   0.3193064  -0.1160635  -0.1320677   1.2375270  -0.1024717   1.4871467
  -0.7311278   0.9430476  -0.1143668   0.2676069   0.1490312  -0.0484889
  -0.0724139   0.3563083   0.1849886  -0.6041928   0.4545877   1.5353837
  -0.2087238  -0.4416905   0.0653180  -0.1225191   0.7530979   0.5081182
   0.4268484   0.3675020   1.4987769  -0.3193977  -0.0107933  -0.2100290
   1.1582547   0.4103826   1.2941761  -0.4584130   0.2969165  -0.1027355
  -0.0005125  -0.0591782   0.5147512   1.5608294   0.4033188  -0.1399959
  -1.4065280   0.4635707   1.2999429  -0.0321720  -0.1531724  -0.1286073
  -0.3516917   0.0187979   0.2696028  -0.2664659   1.3454304   0.6249945
  -0.0663404   0.1597960  -0.0783435  -0.6191191   0.3657757   1.0946204
   0.1572756   0.8291566  -0.6303971   0.0551622   0.1270994   0.1740622
   0.3688047  -0.2301969   0.3563712  -0.4868965   0.9804745  -0.6280215
  -0.0703163  -0.2506538  -0.2051995   2.3603559  -0.8288144  -0.0442280
  -0.9969494   0.5348720  -0.5949162   0.3645101  -0.1208387  -0.2779653
  -2.2093847   1.0798514  -0.8450231  -0.1180216   0.7207115   0.5489655
   0.4564362  -0.0624413  -0.1105288  -0.5093135  -0.4649423   1.5508831
  -1.2345090  -0.1011674  -0.4688587  -0.0294675  -0.0312423   0.1102595
   0.9156445   0.5684749   1.4812545  -0.4526150   0.3491224  -1.5997555
  -0.2530211  -0.1548202   0.0310586  -0.0414168  -0.4338849  -0.8973561
  -0.4269448  -1.2311348   2.1143186   0.3070775   0.4057035   0.1441625
   0.8617463   0.6703093  -2.0806677  -0.2123373   0.8296947   0.3637501
   0.1456708   0.1867269  -0.0423544   0.0406650  -0.5407240   0.3094539
   0.8268366   0.4276176  -0.9320013   0.0249570  -0.2951169  -0.2727919
  -0.7854277   0.5073499  -0.9512829   0.2295477   1.1692964  -0.4734585
   0.0942004  -0.0708809   0.2252471  -0.2710878  -0.0296952  -0.5480854
  -0.6824717  -0.7438778   0.5314076  -0.0429466  -0.0204405  -0.2810559
   0.9610283  -1.0303627   0.7460543  -0.6639161  -0.7992970  -0.1957523
   0.1046282   0.0788062   0.1391532  -0.4398972  -0.4794883  -0.1475005
  -1.4360153  -0.0078698   0.9277533   0.0163241   0.3540464   0.0198796
   0.8475023   0.1795633  -0.8430486  -1.0853766  -0.9015765   0.1704248
  -0.1325990  -0.3316304  -0.2550725  -0.6774480  -0.3168314   1.1085801
   0.0864439   0.3162892  -0.9233751  -0.1149039   0.2164873   0.0181081
   0.1039465   0.9310545  -1.3022457  -0.6668410  -1.0577291   0.3236483
   0.1860061   0.2114738   0.0017958   0.1766069   0.7061061  -0.1884187
  -1.3186242   1.0717786  -0.5066552   0.2953265  -0.0399933   0.1827117
  -1.2299634   0.2050584   0.9656850   0.2483684   0.1100641   0.1880016
   0.0462764  -0.0067776   0.3585991  -0.5215245   0.5050210   0.7044508
  -0.3461041  -0.3564799  -0.0043006  -0.1052268   0.3220937  -0.0841008
   2.2468407   0.3898864  -0.9060935   0.7777653  -0.1259035   1.7532109
  -0.0247159   0.1109538   0.0261548  -0.4423586   0.7231256   0.6158800
   0.8296979   0.5877670  -0.8729344  -0.2888891   0.0791139   0.2330158
  -1.1245560   0.8939459  -0.0565561  -0.4855492   0.6562103  -0.1107362
   0.0118609   0.0862691  -0.3406914  -0.1944454  -1.3783172   0.2406636
   0.3015008  -0.7390607  -0.1097570   0.4194561  -0.0137422  -0.1145709
   1.0519513   0.4316940  -0.0792289   1.0017070  -0.0488963  -0.3613707
   0.1167450  -0.2266113  -0.2082857   1.1512758   1.3841740   1.1537556
   0.4880692   0.1031192   0.0678593  -0.0655961   0.2007047  -0.1076760
  -0.8205257   0.1750615   1.0872629   0.7873103   0.4130826   0.2969831
   0.0233318   0.3339101  -0.1064341   0.2894691  -0.0150062  -0.0189630
  -0.2914946  -0.7137032  -0.5779179   0.0172191  -0.2072064  -0.0171853
  -0.9203459  -0.0685140   0.0972413   0.2488287  -1.4347598   1.8524407
   0.0508304  -0.0421754  -0.0279762  -0.3939470   0.8187214  -0.7600377
  -0.2707582   1.1110007  -0.5346189   0.1141513  -0.3208510   0.3355676
  -0.4870968  -1.8295864   2.3100567   0.6367912  -1.4245401  -0.6390431
   0.0450391  -0.0207967   0.0795739   0.5637055  -0.3796133  -0.0204944
   0.0962533  -0.6539621  -0.1254934  -0.1733913  -0.2840754  -0.0974021
  -1.5168805  -0.1431195   0.4402695   0.4913106   0.7675789   0.5006554
   0.1296167  -0.2959387  -0.0572974  -0.2192465  -1.0200804   1.1284697
   1.2937438   0.2238653  -0.0526333  -0.0106055   0.0158366   0.3231596
  -0.1099238   0.9847767   1.3477290   1.9252649  -0.4527554   1.2657367
  -0.2973581   0.0310581  -0.1070068   0.9233967   1.5325227  -1.1926004
   0.4215828  -0.6308253  -1.7591990  -0.1808504  -0.0843131   0.1056931
  -1.3691536  -1.1236054  -1.9512086   0.0471689  -0.4143258   0.2992453
   0.1971508   0.1644765   0.4797332  -0.6643885   0.9783057   0.0990372
  -0.8373318   1.1567102   0.3491144  -0.1023633   0.0563345  -0.3913130
  -0.3916098  -0.2848704  -0.3554909  -0.6286643   0.9754595   0.7678759
  -0.1050356   0.2478244  -0.0522065  -0.3993757   1.0078784  -0.4935707
  -0.9259311  -1.1549740  -0.6463280   0.0667548   0.1126698   0.3485584
  -0.2027845  -0.5562085  -1.4978381   0.0953127   1.6440301  -0.0421258
   0.1358155  -0.1740721   0.1546566   0.0885721  -0.6916509   0.6569663
   0.7539860   0.6500623  -0.5340375   0.2669156  -0.1943044  -0.1162118
   0.3900047   0.1298231   0.6347525   0.2646011  -1.5296078   0.0555949
  -0.3055952   0.4615722   0.3303132  -0.3420246  -0.0476717   1.6527780
   0.9836408   0.8741571  -0.3840479   0.1692048   0.1569827  -0.1282549
  -0.2240749  -0.9182728  -0.1045722  -0.6701883  -0.2757554   0.9853714
   0.4325131   0.1002869  -0.0865484   1.6718827   0.6853376  -0.4696502
   0.7500476  -0.2526312  -0.4619332  -0.2137840   0.1883485  -0.0525612
  -0.1712520  -1.0888757   1.0898244   0.1042519  -0.9011643   1.3443101
   0.1371469  -0.1206292   0.2046734   0.0241657   0.1058283  -1.1586179
  -0.8106425   0.0605223   0.0545620   0.3603394  -0.3352281  -0.2391145
  -0.7834801   1.4442450   0.2344346   0.8945012  -0.9830228  -1.0325105
   0.0218782  -0.2164186   0.2378329   0.7730188  -1.1279307   0.4349190
   0.4552106   0.1066335   0.0254897  -0.3902110   0.0687174   0.2653079
   1.2691811   0.9888663   0.4870989  -0.5157227  -0.1894461  -1.1543825
  -0.2659160   0.1248137   0.0064223  -0.4574930   0.3472010  -0.2365340
  -0.3025783   0.8251254   0.8310330  -0.1230553   0.1072493   0.1713669
   0.3220306   0.8042276   0.3990061  -1.4076329   0.1109675   0.6068415
   0.0820092   0.0262918  -0.0359450   0.1644713  -1.1525161  -0.0597650
  -0.4930859  -0.3649857   0.2157777   0.0971448  -0.1705408   0.0845561
  -0.1929667  -0.2186804  -0.4845866   0.8103852   0.0469988   0.0103428
  -0.0572052  -0.4540482   0.4492779   0.5274980   1.5737433  -0.8625540
  -0.5560035  -0.2953020  -0.2319109   0.4949681   0.2347043  -0.2947468
   0.2304308  -1.6001021  -0.2395036  -0.0796361  -0.3907060  -0.3271550
   0.1198721   0.0282092   0.1018727   0.0895084   0.9638037  -0.9052131
   0.1580073   1.7186290   1.1677718   0.2868137  -0.0708873   0.0626720
  -1.4452651  -0.6936730   0.3190185  -0.2000731  -0.9270208   0.4594559
   0.1493510   0.4164192   0.0535740   0.0736994  -0.6374371  -0.7100151
   2.0601931   0.3609790   0.9465821   0.1470742  -0.0412654  -0.1622022
   0.7985512  -1.2043200  -0.9544960   0.1255523  -0.9280188  -1.1117452
   0.2775336  -0.0980566   0.1331079   0.2724324   0.1094773  -1.3361835
   1.1796541   0.9069745   0.6222771   0.2444686   0.4494999  -0.0134121
  -0.1624171  -0.7063969   0.4234160  -0.3408490   0.1765535  -0.6765439
  -0.1461406   0.1159958  -0.3375512   0.0462153  -0.3343394  -0.6003030
   0.1079662  -1.6917822  -0.4363741  -0.0325413  -0.1015296   0.1024965
   0.5182331  -1.4326725  -0.8172862  -0.5876007  -1.6411852   0.0985754
   0.3837334   0.3373068  -0.0467312  -0.9522637  -0.3270085  -0.7655765
   0.0048679   0.8301234   2.0356539   0.2036813   0.1186733  -0.0580100
  -0.4581631  -0.7720421  -0.2650430  -0.1218687  -1.6704611  -1.8818985
   0.0583256  -0.1000587  -0.0045092  -0.2264814  -0.1192374  -0.9693917
  -0.5593871  -0.2224334  -0.8473450  -0.3230192   0.0457003  -0.0264462
   1.3644222   0.4469747  -0.0281337  -1.0364171  -0.3117258   1.3074722
   0.1451644  -0.0459412   0.0271145  -0.2984743  -0.5208054   0.4982987
  -0.6088968  -0.3569797  -0.7203797  -0.2345028   0.3978469  -0.0594639
  -0.2609239   0.1060293  -0.3108794   0.5290588   0.1143847   0.4583956
  -0.1854150   0.1458782  -0.0450333   1.1961735  -0.8241825   0.0992240
   0.5619269   1.0657128  -0.3567031  -0.0221209  -0.1185410   0.0065129
   0.5229030   0.4956431  -0.9380153  -0.4152960  -1.7295376  -0.3935906
  -0.0311788   0.2820349   0.1544499  -0.8844482   1.1101860  -0.3419366
  -0.5727799  -0.3688323   0.8097529   0.2088112   0.0868331   0.0228711
   0.9374477  -0.6481367   0.4464353  -1.2980494  -1.0538491   0.6721442
  -0.0260817  -0.2145230  -0.1456414  -0.6186053  -0.2274534  -0.3689986
   0.2615672   1.7855302   1.4132425   0.0286826   0.0371481  -0.3778369
  -0.3537550   0.5174132   0.1170195   0.0604821  -0.1462687  -0.0630084
   0.3687879  -0.0433645   0.1314207   1.3516835  -0.0510457   1.9785408
  -1.5476583   1.1207269   1.4186158  -0.0818072  -0.0131303  -0.0977161
  -0.5612260  -0.1840915  -0.2785216   0.1421383   1.0478228  -0.3165257
   0.0743694  -0.1817344  -0.1106165   0.0149659   0.1330985   0.0744802
   0.9477609   1.0512625  -0.5284612   0.0345024  -0.0521577  -0.1076296
   0.3054277  -0.4257672   1.4978237  -1.4787472   1.0054581   0.2579151
   0.0228412  -0.1718450   0.2086886  -0.4383147   0.0105331   0.8516854
  -0.6799781   1.1632525   0.1644646   0.0945798   0.0511215   0.0997616
  -0.0966127  -0.0097551   0.7971689  -0.9133873   0.6984960   0.3350388
  -0.0334907   0.0514451   0.0287379   0.0964634   0.8732120   1.1185622
  -1.0432992  -0.9302743   1.1989204   0.2375038   0.1114384  -0.0170270
   0.2561921   0.3278375  -0.6817378   0.8746853  -0.4070551  -0.4103232
   0.1224153   0.0175202   0.3124757   0.1407769   1.4811688   0.0741958
  -0.0523441  -0.1943301  -0.5462709   0.0137313   0.1591711  -0.0251739
  -1.2722304   1.0159406  -0.3695396   0.0227368  -0.4036249   0.2035778
  -0.1411042   0.1149281  -0.1414402   1.1078923  -0.0789752   2.2330523
   1.0528621   0.1547353  -0.5137486  -0.1507505  -0.3343152   0.1277934
   0.2095989   0.2927565  -0.5603356   0.3678457   0.4192685  -0.0232551
  -0.2186797   0.0671561   0.0262387  -1.1077728   0.7076341  -0.6463457
  -0.3467510   0.6821954  -1.3090559   0.0916185  -0.0433179  -0.0728182
  -0.4687338  -0.8799801  -1.2388607   0.3695363  -0.5892467  -0.9693172
  -0.0411454   0.1565023   0.2115532  -0.1638998   0.5838106  -1.3123469
   0.2433664  -1.2237722  -0.4796833   0.1284834   0.0401616  -0.1908021
  -1.6558932  -1.4793028  -0.3676944  -1.0472422  -0.5579051  -0.1122456
  -0.6415310   0.1893354   0.0830643   0.3847016   0.8988222  -0.0946937
  -1.1275725  -0.3724161   0.4761288  -0.1476833  -0.0034056  -0.0082003
   0.6606003   0.3316651   1.1318919   0.5137907   0.4641167  -0.5627043
  -0.2049157   0.2573916   0.0443600  -0.3896624  -0.2300543   0.5841385
   0.8470934  -0.3536280  -0.2091318  -0.3297785  -0.0467686  -0.1040627
   0.1696862   0.0009306  -0.0768545   0.1801786  -0.5689549   0.1537615
  -0.2200192  -0.0883157   0.3210428   0.1427802   0.2277830  -1.0347970
  -0.3817347   1.4012952  -0.7614015   0.1609987   0.0036412   0.3119799
   0.3984721   0.0495164  -0.9285199  -0.1569273   1.2931129   1.0750945
  -0.1882332  -0.3010553   0.0389332  -0.9954305  -0.0731098  -0.1390691
   0.5713439  -0.8979792   0.0778990   0.1759008   0.1575989   0.1187574
  -0.3653995   0.2384208  -0.9134501   0.4751259  -0.1150989  -0.8155507
   0.2472990  -0.3194630  -0.0089276   1.7572150   0.7455607  -0.3623790
   1.1307406   0.1059481  -1.1432221   0.2843080   0.1699268   0.2290924
   1.3541045   2.3142219  -0.9718735   0.2030095  -0.2598407   0.5810460
  -0.0021031   0.1752008   0.1067876   0.1765195  -0.4029457   0.9890339
  -0.2990673   0.5123658  -0.2618470   0.0220244  -0.0867583  -0.0719820
  -0.6373896  -1.4469172   1.2950463  -0.1029594   0.0569281  -0.8690165
  -0.0457885  -0.1301226   0.1115641  -0.4418904   0.5170424   0.4969354
  -0.7709958  -0.2139790  -0.5549215   0.0393121  -0.2729857   0.1457698
   0.7867203   0.4730466  -1.2268706   0.2119005   0.3941408   0.0900072
  -0.0006709  -0.1850778  -0.0165183   0.3003997  -1.4814561   1.0541958
   0.6850699   0.1016642  -0.6853455   0.0556420   0.1265928   0.0089465
  -0.9605038   1.2222398  -0.0858008   0.6830017   0.9583489  -0.0365217
  -0.1944659  -0.2098153   0.2769578  -0.3518099  -1.5676547   0.2001657
  -0.3944684  -0.9680224  -0.0493257   0.3160474   0.0620262  -0.2289541
   0.8935194  -0.5615135  -0.2496414   0.0127651   0.7276352   0.9860829
  -0.3096781  -0.0136910  -0.0197554  -0.0464087   0.4526379   0.6720236
  -0.0492269   0.3568348   1.7243706  -0.0676434  -0.1239381  -0.0944233
  -1.3686107   1.3786937   0.5563868  -0.0230884  -0.0850816   0.5702762
   0.0847242   0.1002225  -0.0206940  -0.5735243  -0.7305611   0.2365362
  -0.2586598  -0.3369406  -0.0597186  -0.1061199   0.1021748  -0.1465597
   0.1537014   0.3003980   0.1134460   0.0271639   0.5345502  -0.6358475
   0.0255432   0.3628953   0.3392710   2.2733727   0.3514015   0.3719335
  -1.0670493   0.5202433  -1.4099457   0.1651879  -0.2844157   0.0103986
   0.4267675   0.0756671   0.6395915   0.1355149   2.3838913   0.0007994
   0.0978672   0.2621166  -0.1429123   0.4430355  -0.4886810  -0.2170020
  -0.0798220  -1.7930441  -0.4621855   0.1517785   0.0951550  -0.0911483
  -0.4372237  -0.2463095  -0.4750452  -1.0850443  -0.2835326  -0.9100371
   0.1085496  -0.0954781   0.0043579  -0.1223947   1.0117871   0.1474064
  -0.1545542   0.2871523   0.2214472  -0.2756460  -0.0842641  -0.3495374
   0.5483013  -1.6949434  -0.0952439  -0.5853151  -0.2107563   0.5220358
  -0.2191421   0.1526300   0.1327547  -0.1041523  -0.4700310  -0.5151542
  -0.5828948  -0.6869406   0.3591693  -0.0982708   0.0405057  -0.0316842
   1.0205925   0.1429720   0.0768562  -1.5449460   0.9553041   0.6813361
  -0.1113972   0.2521858  -0.2414884   0.0488822   0.0722692  -0.2155921
  -0.6044075   0.0301245  -0.6096936   0.1653934  -0.0431503   0.0738818
  -0.5288563   0.1840649  -0.3354291  -0.6481059   0.3065402   0.3281110
   0.1925051   0.2115169   0.2325622   0.4682747   0.2496335  -0.7832786
   0.6012353   0.9753453  -0.8650671  -0.0099154   0.2743029  -0.4130364
   0.0152416  -0.5400467  -0.3899162  -0.5468717   1.0936568   0.0653434
   0.1345676   0.1570699  -0.2078995   0.7448533  -0.1044334   0.1558050
  -0.1668473   1.9737405   0.4204689  -0.1648939   0.0283692   0.0411254
   1.2050335  -1.1975454   0.8011486  -0.2935547  -1.6867599  -0.6660217
  -0.0362206  -0.1352740   0.0345849  -0.0632919   0.0021062   1.0233880
   1.2642222  -1.1411436   0.3135404   0.1250050   0.1293553   0.0577543
  -0.2279616   0.4064516  -0.5399696   0.4518367   1.2897864   0.0397492
   0.1791934  -0.0827281   0.1415529  -1.1760396   2.0965695  -0.1010503
   1.7638660  -1.7783469   0.5341100  -0.1560109   0.1110817   0.2958852
  -0.2773265   0.2154555  -0.1452850   0.2722930  -0.7967946  -1.6102286
  -0.2027575  -0.1708307  -0.0469891  -0.9127069  -1.5612625  -0.6263702
   0.3830692   0.9752539  -0.5082393   0.1098901   0.0713664  -0.0693429
   0.5152857  -0.5112595  -0.5647043  -1.2782899   0.6833910  -0.5882353
   0.1327538   0.0030883  -0.0337972  -0.5299402  -0.1018656  -2.0947196
  -0.2159152   0.2651816   0.4942362  -0.0611341   0.0449329  -0.0639847
   0.0230971  -0.5272996   0.1341905   0.5658017   0.3055608  -1.3733669
   0.0464833  -0.0082171  -0.0899488   0.7593781   1.2894032  -0.5986116
   0.6709361  -0.5787132  -0.2940297   0.0122462  -0.0147933  -0.4059390
   0.3032692   0.2302713  -1.0360462   0.1994729  -0.9618818  -0.0084532
  -0.3141505  -0.0973601  -0.0108607  -0.4571289   0.2477584  -0.7989665
   0.8211052  -0.9412731   0.6335051  -0.2158545   0.1172664   0.1744300
  -1.2902652  -1.0127200  -0.8753215  -1.3500307  -0.9300899  -0.1619534
  -0.2890784  -0.0804280  -0.1056619   0.8017745   0.0734060  -1.2228123
  -0.6824103   0.0574993   1.2174235   0.1065647   0.0218328  -0.1212925
  -0.2449457  -0.6499656   0.0731563   1.3475755  -0.8265232  -0.1408460
  -0.0615768   0.1441886  -0.1849744  -1.3172069   0.3783062   1.8953818
   1.6043528   0.0074306   0.4604508   0.0612233   0.2687230  -0.1997090
   0.0039711  -0.2012511   0.0061221   1.1072957  -1.0750099  -0.6392000
  -0.1391195   0.1231519   0.0996100   1.0600028  -0.7385985  -0.2898970
  -0.6393009  -0.0518048   1.5387026  -0.0441387  -0.0019663   0.8066824
  -0.4076083  -0.4147649   1.2544603   1.4151557  -0.7361238   0.2442501
   0.0016989   0.2249262   0.1023724  -1.0414325   0.6083591  -0.1240298
   0.1895552  -1.7114268   0.3056848  -0.3099366  -0.0348450  -0.2750226
   0.1909096  -0.7534209   0.5558955   0.2666234  -0.7288548   0.9858323
   0.0069700   0.1646329  -0.1509277   2.6352068  -0.1014655   1.4364526
   0.9199569   0.8482101   0.5531455   0.0183998   0.0670141   0.4334319
   0.8526542   0.4937785  -0.3365739   0.3017116  -0.8329375   0.0378108
   0.1025940   0.2340253   0.0374155  -0.8931696   0.0476391   0.6608827
  -1.2892058  -0.6966316  -0.2622607  -0.1482008   0.2182227  -0.2358419
   0.3099727   0.0186022   0.8099660   0.2071570   1.4145421   0.1247798
   0.1833789   0.2756947   0.0690880  -0.1340825   0.2317209  -0.2576210
   1.1756390  -0.0042725   0.3820522   0.3260823  -0.0079245   0.0669065
  -0.5087690  -1.2628178  -1.0311446  -0.5461926   0.3299598   1.2835796
   0.1296239  -0.1523907  -0.0177451   1.3233894  -0.1035226  -0.3749236
   0.4894898  -0.4532339   0.1168867   0.1097512   0.2806349   0.0195126
  -0.4474356  -0.3891104   0.2055743  -0.0601496   0.6528886   0.1001009
  -0.2052319   0.0678163  -0.1335383  -0.3090066   0.4208304  -1.3860499
   0.2500491   0.2339029  -0.1185181  -0.0688950  -0.1207934  -0.0085453
  -0.1810949   0.2361255  -0.2952672   1.4260724  -0.2841636   1.5588449
   0.0188056  -0.0232259  -0.1413831   0.7665625   0.4876442  -0.1188772
   1.6057710  -0.4050166  -0.1496696   0.0643945   0.1728480  -0.0356577
   0.6298088   0.4124604   1.1898670  -1.7357589   1.0665461  -0.2433127
   0.1030897  -0.2922727   0.3364996  -0.7186783  -1.1536919  -0.6988564
   0.1661484   0.3939717   1.6694540  -0.0404475  -0.0253923   0.1473361
  -0.2730723   0.2823630  -0.2302127  -0.9683829  -1.8552303  -0.5539676
  -0.3936003   0.1957143   0.2674736   1.2656864  -2.4833967  -0.3665968
   0.2513169   0.2373377   1.1074950  -0.0150567  -0.1788125  -0.0216945
   0.3222364  -0.8149780  -0.5865982   0.5451027  -0.3050384   0.3030425
  -0.0079601  -0.1100523   0.0550158  -1.2647820   0.7338402   1.4896135
   0.2344233   0.9595014  -0.2932991   0.0032192   0.0161878  -0.0659136
  -1.6567609  -0.5753953   0.1562556   0.9473211   0.5316869   0.8492005
  -0.1072535   0.0191203  -0.2279285   0.5365644   0.4894582   0.3326916
   0.2418164  -0.7411072   0.3912545   0.1257595  -0.1943557  -0.0150722
   0.7000405   0.4803752   0.5280670   0.2459750   0.7496006  -0.1643625
  -0.2349820   0.3716590   0.4253849   1.9284719   0.3915688   1.5133659
  -0.6695148  -0.1586625  -0.9809631   0.0659955  -0.0560683  -0.3293860
  -0.7203911  -0.0160832   0.2927081   1.0792282  -0.1643489   1.1697673
  -0.1810648  -0.1825786   0.0397551  -0.1070950   0.2336008   0.7494301
  -0.5464625  -0.4566454  -1.1139923  -0.3780974  -0.0111826  -0.0978891
   0.2321936   0.2071603  -0.3609024  -0.1018463   0.1204971   0.4915801
  -0.1111378  -0.0880979   0.0113880  -1.2854145  -1.2766060   0.6191147
  -0.1207902  -0.0304611   0.0949998   0.3626887   0.1747529   0.1108838
   0.4664731  -0.2028098  -0.8565951   0.1871954   0.3061493   0.2883452
  -0.2648782  -0.2159181  -0.0533009  -1.6381003   0.3107786   0.2000569
   0.5316360  -1.0701125  -1.2908882  -0.3159032   0.0746713  -0.0714895
  -1.7512474  -0.6890798   0.6128058   0.4509204   0.6501149  -0.7082922
  -0.0947465  -0.3090151  -0.2679725  -1.7147026   0.3405467   0.4490406
  -0.0757552  -0.7995093  -0.4647923   0.1711537  -0.0108309   0.1044149
  -0.7512945   1.7121593   0.8778661   1.0153179  -0.6672888   1.0446565
  -0.0416745   0.1672172  -0.0456440   0.9360355   0.1334574  -0.5156415
  -1.6660593   0.1292680   0.3507159   0.2663600   0.0641438   0.1948139
   0.0492172   0.5262603   0.1711731  -1.0287522  -0.1202003  -0.2038574
   0.0180056  -0.2364898   0.1308848   0.5080261  -0.6099110  -0.6090295
  -0.1553842  -0.9938793  -0.3028987   0.0463566   0.0318953   0.2832911
  -0.0203366  -0.8242455   0.1342872  -0.8638084  -0.9390611  -0.3628352
  -0.0181304  -0.2484340  -0.2676718   0.9066946   0.2945944   0.6090813
  -2.3841392  -0.2580781   1.8472090   0.0658157  -0.0520293   0.2549287
   0.4089383  -0.3351097  -0.4232567  -1.1940295   1.6737637  -0.0533519
   0.3928122  -0.0526861   0.0218411  -0.5266905  -0.0896729  -1.2997789
   0.6333519   0.1420890  -0.6815986   0.2429753  -0.0742344   0.0827360
   1.2658576   0.8074754  -0.0098021  -0.6365834  -1.1400940   0.0971332
  -0.3132931   0.3492475   0.0383652   0.9434529   0.2042003  -0.1086475
  -0.2290869   0.0034143  -0.6422846   0.2529951  -0.2394307   0.1385713
  -0.5425125   1.2327101   0.7090202   0.9344020  -1.7273150   0.5008164
   0.2971163  -0.0805421  -0.2132212  -0.5681096   0.0748829   0.6286619
   0.2707558  -0.5112150   0.8679519   0.5818069  -0.0031494  -0.1661654
  -0.6812612  -0.8349907   0.0322026   1.0870167  -0.6454198   0.7444312
  -0.2735797   0.2106733  -0.1386471  -2.1996073   1.3394003  -0.3345041
   1.3021770   1.2910222   0.2892130  -0.0653614   0.1051262  -0.0748764
   0.0683094  -0.8688991  -0.3373781   0.1264973  -0.4970455  -0.8157216
   0.2074177   0.0311541  -0.1026218  -2.4748829   0.4801699  -1.1679542
  -0.1089744  -0.2812835  -0.3230585   0.3396728   0.0071302   0.2548881
   0.8687669   1.1409508  -0.2966562  -0.1263557   0.1363896   0.5593038
   0.1177032  -0.0853836  -0.1456719  -0.0075114  -0.3554288  -0.5761694
  -0.7118497   0.2733339   1.1499670  -0.0474628  -0.0277228  -0.1360180
  -0.0348044   1.0618289   1.4068382   0.2743863   0.1842487  -0.6095724
   0.1478638  -0.0585098  -0.0445022   1.2500144   0.7160748  -0.5316046
   0.5229454  -0.3836271   0.6476245   0.0962473  -0.0688806  -0.1240796
  -0.0715035  -0.0801342  -0.1685990   0.1219179  -0.7604183  -0.2790662
   0.2766379   0.1912768   0.3201018  -0.0858189   0.4753192  -1.3557306
   0.0243992   0.5232615   0.3199290   0.0275686  -0.0509616   0.1821214
   0.5124228  -0.0786077   0.9336136  -0.2598346   0.0221591   1.0156151
   0.2016118  -0.2264177   0.4421351  -0.4217811  -0.0830370  -1.7837397
   0.6233106   0.2720104   0.2715950   0.0218745   0.0404058   0.0751121
   0.3227005  -0.6717000   1.0871851   0.5552241   0.9713631   0.1239335
  -0.0164855   0.1447621   0.1997036   0.3473184  -0.5140201   0.1250736
   0.3569118   1.4066798   0.5099276  -0.0015004   0.0030836  -0.2756389
  -0.0097546  -1.0160997  -1.1643821  -0.2160443  -0.9673437   0.5491932
  -0.3791481   0.1281913  -0.2869054   0.1772140  -0.4518963   0.5564601
   0.3252252   0.7569570  -1.5362674  -0.2427806  -0.2833365  -0.0578779
  -1.0636957   0.0365361   2.0371219  -0.6399501   0.6549901   1.1189395
  -0.3597452  -0.2037801   0.1847045   0.2204493  -0.6565552   0.9286684
  -1.0270393  -0.3631854  -0.5588276   0.1344032   0.2651778   0.1649884
   1.1174876   0.3167013  -0.2823496  -1.6132662   0.6936632  -0.0013721
   0.0208020  -0.2941394   0.0520089  -0.3200387   0.0156592   0.5191421
   0.5849301  -0.2919566  -0.5766109   0.0522294   0.1569020   0.1432726
  -1.7643146   0.1436003  -0.0989070  -0.2532710   0.0850327  -0.5518778
   0.3589932   0.3232776   0.3402735  -0.0336001   1.0728846  -0.6247229
  -0.5493329  -0.9485729   0.3495864  -0.0693024  -0.0801534   0.1595449
  -0.6043491   0.6030038  -0.7391590   1.1103976  -0.5253414  -0.6771662
  -0.1370905   0.1791492  -0.1766287  -0.1030438  -1.0088556  -0.3917649
  -0.1080888  -0.2923360   0.3819888   0.1343908  -0.0728933  -0.0026981
   0.9134157  -1.0635348   0.3233593  -0.2380606  -0.1608513   0.1283093
  -0.0417626   0.3119879   0.0212925  -0.9447245  -0.1915863  -0.3940908
  -1.3826904  -2.1930238   0.4356688   0.1869904  -0.0515689   0.0667764
  -0.1159809  -0.9806410   0.8761785   1.0771962  -0.8958859   0.7816567
   0.3332710   0.1257074  -0.2742992  -1.1247666   0.0100876   1.5428704
  -0.9666589   0.4648847  -1.1820611   0.1815143   0.0695902  -0.3028537
   0.5539084  -1.2421209  -0.9910732  -0.2419468  -1.1220027   0.1044424
   0.1104057  -0.0126861  -0.1997436   1.4148178  -0.2510742  -0.0970739
  -0.0226992   1.2144399   0.9606193   0.2244794   0.0471235  -0.2807332
   0.6084172  -0.5375534  -0.3029512   0.4835600  -0.0848422   0.0018567
  -0.0345847   0.0732463   0.0072357   0.3085772  -1.0893501  -0.6716153
  -0.1210958  -0.9090921   0.5859848  -0.1475245   0.2848160   0.1008969
   0.1341938  -0.7837919   1.6698662  -1.3827104   0.5581145  -1.1652695
  -0.0484371   0.3677304   0.1598447   0.2981729   0.8537004  -0.8198685
   0.7257746  -0.6707477   0.1447996  -0.1241948   0.0843418  -0.3687824
   0.5590226   0.9618153  -0.6166316  -0.2236211   0.7961669   0.3992127
  -0.2194318   0.0713839   0.0424771   0.1330339   0.6973348   0.2084081
  -0.3636450  -0.2424588   0.3476559   0.2042218  -0.0405530   0.1866317
  -0.0418217   0.9786153   1.6247015  -0.0855905   1.1050597  -0.7011387
   0.1048596   0.0318018   0.0187864   1.2010925  -0.6865347  -0.2922108
  -1.4879999   0.3247808   1.0917135   0.1479022  -0.1940598   0.0316541
   1.2897903  -0.1716490   0.0333830  -1.8922522   0.6121929  -0.1057835
  -0.2175410  -0.1189894   0.0474336   0.6161676  -1.4858365   0.1143292
   0.9993699  -0.8394722  -0.5837352   0.2459230   0.1681395   0.1077841
  -1.7401213  -1.3599455   0.2007739  -1.1375623   1.3379864  -0.5048338
   0.1948164  -0.0099503   0.1617299  -0.3469659   0.8611083   0.1279220
   0.1835815   0.7439001  -1.3161430  -0.0984648   0.0906615   0.3084218
  -0.6253412  -0.1077040  -0.6658562   0.1578811   1.1759878   0.1264520
  -0.1005885   0.0830756   0.1856332  -0.0363770  -0.1009687  -1.2657320
   0.3470664  -0.1578408  -0.4378453  -0.0741142  -0.1087878  -0.0741226
  -1.2041726   0.9809479   1.6114004  -0.9179432   0.0962811  -0.5712749
  -0.1349346   0.0411899   0.0018240  -0.8216914  -0.5516069  -0.6534353
   0.6723798   0.5530515  -2.3401244   0.3534098  -0.2586801   0.2938986
   1.9346152   0.2051141  -0.0851326   0.0611358   0.5556463   0.8115706
  -0.1297742   0.0603722  -0.0579063  -0.0098274   0.3104903  -0.5852640
  -0.3638576   0.4550293  -1.9351988  -0.2047268   0.0102182   0.1279988
   0.4776410   0.0428335   0.4132724   0.5965680  -0.7778844   0.0989534
  -0.0391182   0.4839771   0.1260368  -0.3577104  -0.6194388  -1.2940949
   0.6817928   0.2013723   0.4961746   0.1278687   0.1527633  -0.1890052
   0.4604112  -0.2213244  -0.1187757  -0.0521794   0.2017916   0.1000925
  -0.0732362  -0.1651992  -0.0251667  -0.1344472  -1.2667494  -0.3183367
  -0.4449543   0.1973317   0.6070615   0.0717428  -0.1241581   0.2100415
   1.6410841   1.4104331   0.2657842   0.4913601  -0.1218402   0.6076537
   0.0821476  -0.0933368   0.0776535   1.3629987   0.8052045   2.4689589
   1.4187115   1.0332776  -0.4781665   0.1109930   0.1157043  -0.1258448
  -0.0353916  -0.9048072   0.4169808   1.6015688   0.9816092   0.1236612
  -0.1591559  -0.1900028  -0.0383199   0.3320815   0.2108059  -1.4150134
   0.5477808   0.5693727  -1.3237875   0.1719646   0.2022944  -0.2894903
  -0.9396601   0.4977916   1.5954214   1.0923422   0.3300589  -0.1484173
  -0.2183778   0.2228096   0.0297584   0.5517738   1.1551073   0.0687875
   0.6522475   0.2929341  -1.6093567   0.1024055   0.3542617  -0.0446124
  -0.5410496   0.5066484   0.5997243  -0.3148745   1.0704052   0.3807734
  -0.1110779  -0.2618598  -0.0953046  -0.5238324  -0.2730931   0.9451054
  -0.2818850  -0.6516479   1.0383501  -0.0507449  -0.0780714  -0.1395885
  -0.3597730   1.5437002  -1.8869672  -0.5057091   0.2360030  -0.3949957
  -0.2103205  -0.0460158  -0.0177091  -0.2368704  -0.6568410   0.2040819
  -1.0138893  -0.7210194   0.1858035  -0.1469181   0.0987043   0.2189942
   1.5378868   1.4810804   0.0201873   0.3970244  -0.8555619  -0.4756268
   0.0603326  -0.2451028  -0.0438409  -0.7139520   0.5930847  -0.0752656
  -0.9719055   1.4504366   0.0840274   0.0592248   0.1320353  -0.0907782
  -0.5295543  -1.7163768   0.5247178   1.6789081  -0.4977593  -2.0004746
  -0.1940374  -0.0146433   0.1700233   0.6750288  -0.1762544   0.9245421
   0.9990642  -0.7275713  -0.6233362  -0.1111750  -0.6034644  -0.1277337
  -0.5206434  -0.0362212  -1.2962638   0.7819251  -1.6071885   0.5429898
   0.1658633  -0.3162670   0.1486878   1.0213269   0.4403369   0.9588775
   0.2471035  -0.9175332   0.2924022   0.2923759   0.0961748  -0.1545113
  -0.3981052  -0.5204448   0.6516887   0.6660656  -0.6275481   0.3793773
   0.3037257   0.2169621   0.0120746   0.4878711   0.8494917   0.8969795
  -0.1011499  -0.8784452  -0.1044298   0.1367611   0.2701051  -0.1333720
  -0.5236765   0.4879426   0.2126604  -0.4756646  -0.9432301   0.3408248
  -0.3214413   0.0607942   0.0689134   0.0461130   0.6723048   0.4924446
   0.0960930  -0.5658479   0.5175834   0.1292807  -0.2867810  -0.1712435
  -0.2310608  -0.2287367  -0.7788611   1.1008574   0.0222370   0.5827514
  -0.0887987   0.4028033  -0.0263152  -1.0523334   0.5926813   0.8373302
   0.4787463  -0.3066566   0.5736203   0.0180190   0.1279420   0.0295973
   0.1892550   1.0795424  -0.4965256   1.1162756  -0.8827271  -0.0816427
  -0.0048124   0.0170264   0.1311779   0.1877822   2.0108104  -0.9190139
  -0.5650166  -0.1983213   0.3061160  -0.1745133   0.1205155  -0.3122642
   0.0322634   0.4215718  -0.9054674  -1.6850862  -0.2748402  -0.6035620
  -0.2217499  -0.1757614   0.1817343  -0.2195173  -0.1245643   0.5691129
  -0.4021846  -0.4930342  -1.4692967  -0.2985850   0.0068488  -0.1485440
   0.1300139   0.9247183   0.7977730   0.1264934  -0.0507013   1.0586915
  -0.1092741   0.1065584   0.2607504   0.6206067   0.1315335   0.5247003
   0.3419303   0.3052309  -0.2368999   0.0741092   0.3024022  -0.1018747
   0.5862576  -0.1711622  -0.9172394   0.4630632   0.3311086   1.0244212
  -0.0148878   0.0918439   0.0281296  -0.0213645   0.0793887   0.7356700
  -0.4924452   0.1661002   0.5759920   0.0813780   0.0319297   0.1729899
  -0.5843807  -0.5043341  -0.3348457  -0.8797864   0.3219670  -0.6493162
   0.2206410  -0.3379015   0.3080486  -0.0201096   0.0269122   0.2366087
  -0.8391402  -1.5108786   0.4638057   0.1141063  -0.0519902  -0.3106197
  -0.8469797  -0.7796030   0.7282018   0.1708437  -0.0800228  -0.9918278
   0.0680670   0.1166546  -0.0083514  -1.0591974  -0.9357166   0.8491778
  -1.4178864   0.4391210   2.0694212  -0.1254854  -0.2661422   0.0497791
   1.5005741  -0.9909728  -0.3428308   1.0039759  -0.4369992   0.3659387
  -0.2724333  -0.0734474   0.3502884  -0.2771575  -1.8327888  -0.3596316
   1.5356277  -0.9427468  -0.1451562  -0.1646066   0.0792098  -0.0207475
   0.6445236  -0.1954137   0.4822780  -0.8522521   0.4835625  -0.5770007
  -0.4459161   0.0479622  -0.0287530  -0.1921609   1.0611498   0.9071443
  -0.7073401   0.4204706  -0.9066477   0.0585093  -0.2496945  -0.0368247
  -0.0961562  -1.1284525  -0.6455937   1.8512802   0.7695306  -0.4707358
  -0.2515469   0.5063667  -0.1826502  -0.1899327  -1.4433321   0.0845649
  -0.0575726  -0.2114927   0.1756203  -0.0880989  -0.2186424  -0.3819876
   0.1244904   0.4166603   0.2917064  -0.6930106   0.7235509  -0.0119155
   0.3307253  -0.0690143  -0.2502950   0.0335354  -1.1247602  -0.2636907
  -0.0560377   0.4016797   0.3116720   0.3781835   0.1654599  -0.1363871
  -0.3244606  -1.0776477   0.7959589   0.2943926   0.7313394  -1.7960135
  -0.1631120   0.0355223  -0.1776504  -0.0607712   0.6537019  -0.7363300
  -0.0411473  -0.1026947   0.3080299   0.1516852  -0.1514519  -0.1006814
  -0.9875217   0.4561644  -0.4098753  -1.2543325  -0.7710970  -0.9795469
   0.0771575  -0.2891455   0.0073740   0.3674290  -0.2751471   0.2527927
   1.3160505  -0.0099895  -0.6691349   0.2051595   0.2538246  -0.2449775
   1.6756352   0.0564024  -0.2888025  -1.2791179  -0.4228191   1.1829111
   0.0630611   0.0889244   0.0784223   0.6642314   0.3031059  -0.3986014
  -0.5916932   0.9356786   0.0913373   0.1911756   0.3614382   0.0680770
  -0.2256657  -0.4223956   0.1558760   1.6620035   0.6879669  -0.1758255
   0.0285852  -0.1874136   0.2387445   0.2330986   0.0690494   0.0323944
   0.1870165  -0.2048001  -0.3075151   0.0514052   0.1759721  -0.0331537
   0.5606620  -0.5222725  -0.8634065  -0.3934339   0.5221098  -0.1553540
  -0.2698957  -0.0891124  -0.1517258   0.8890178  -0.1202102  -0.5625437
  -0.9553155   0.1556667   0.7447027   0.1345006  -0.3038619   0.1971362
   0.6919499  -1.9093987  -0.2152118  -0.3950743  -0.9502861   0.3459066
  -0.2425959  -0.2270651  -0.1761339  -1.2407742  -0.5211250   0.4195690
   0.1197422  -0.7113801  -0.2114703  -0.0201579   0.2639134   0.5483999
  -0.1097341   0.1111356  -0.7989928  -0.7866678  -0.6634190   0.5862702
  -0.0725602  -0.0717988  -0.0639480  -0.1128268  -0.2868851   0.2856712
  -0.3528430   1.3318026  -0.8750145   0.0811599   0.0392085   0.0055424
   0.4026194  -0.3409305   0.2996864  -0.1924744  -0.9878954  -0.4261100
  -0.0536498  -0.0983556   0.0787245  -0.8083302   0.1457298   0.9609395
  -1.7257792   0.0410876  -0.7040179   0.1209625  -0.1412135  -0.0458554
   0.6536440   0.3069404   0.8946934  -0.8331244   1.5453276  -0.0859645
   0.1491592   0.1428234   0.2320972   0.1506674  -0.6452516   0.0176124
   1.2712950  -0.0914183  -0.4403665   0.1197388  -0.3466772  -0.0353945
  -0.6782288  -0.5835568  -0.4620185   1.2448401  -0.3244983   0.0784599
   0.1539797  -0.2008383  -0.0344727   1.2597055   0.1944309   0.8380369
  -0.5534792   0.3186966   0.7252190   0.1134346   0.3719629   0.1611544
   0.5274167  -0.1011270  -1.1240868   0.7064477  -0.8917746   0.0699803
   0.3349695  -0.1149978   0.1354304  -0.6587732  -0.2467692   1.9027198
   0.8638850   0.0637659   0.3875206  -0.2225304  -0.1670007  -0.0455396
   0.0299611  -0.8849059   0.1031251   0.8159292   0.7506501  -0.2542829
  -0.1673093   0.2691598   0.2243662  -0.3287224  -0.4280897   0.8460810
  -0.3350273   0.0224109  -0.2200749   0.0677987   0.0442074  -0.3628037
   0.6956667  -0.2957730  -0.0736631  -0.8185775  -0.1658681   0.7411320
   0.0400917  -0.0169193  -0.1917276   0.7873292  -0.0960986  -0.6562636
  -1.0797712  -0.6405890   0.4376853  -0.1180999   0.2286213  -0.2328172
  -0.5101235  -0.4234491   0.1522430  -0.3437108   0.1834079  -0.4041733
   0.0456817  -0.5087338   0.0839840  -0.1995200   0.8830878  -0.9160681
  -0.4817484   0.5409705   0.2994418  -0.2140764   0.1318046  -0.1900628
   0.0992215   0.9895643  -2.0476159  -0.5267544   0.9754385  -0.0513805
  -0.1838839   0.0967416  -0.1702768   1.0593551  -0.3231426  -0.2177532
   0.3373970   0.1684153  -0.9656517   0.0118426  -0.2204502   0.1781384
  -0.8170578   1.1627823   0.0409996   0.8582435  -2.0583958  -0.7667962
  -0.0153423   0.2788050   0.0550239   0.1698803   0.0943836   0.5117632
  -0.7782550  -0.5783870  -0.6168023  -0.2766415   0.2672667   0.2407722
   0.5173855   1.1133626   0.2246860  -0.7863109   0.2847876   0.0626238
  -0.0060434  -0.0217936   0.0931667   0.3154115  -1.6996603  -0.4367937
   0.0547063   0.8130789   0.7671313  -0.2500154   0.0700462  -0.3488537
   0.5689043   1.4735148  -1.8184102  -0.9027093   0.3113889  -1.1366879
  -0.0903934   0.3756103   0.0534598  -0.1429391  -0.5854493  -0.5614285
  -0.8366972  -0.9332525  -0.0990092  -0.0042762   0.1311005   0.1191353
   1.4804312   1.4124466   0.3601221  -1.1940287   0.0930467   0.0759629
  -0.0634935   0.0594433  -0.2605577   0.2623690   0.8117812  -0.6648221
   1.1729050   0.1557083   0.8481158   0.1696307   0.2159143  -0.0860202
  -0.0642802  -1.3487882  -0.8039014  -0.4688225   0.0248260  -1.0357013
   0.2048984   0.5890144   0.1344496   1.0259126  -0.0184275   0.0249740
  -0.0587714  -0.4103204   0.0300103  -0.1072667   0.1906886  -0.2892775
  -0.5020481   0.6500386  -1.0162515  -1.7978056  -0.8333268  -0.5815563
  -0.2994089  -0.0143269  -0.1572992   1.4790096  -0.1251781  -0.8880710
  -0.9238731  -0.5286483  -0.0598768  -0.3473647   0.1288600   0.2050414
   0.7648383   0.1207873  -0.5773771   0.3979959   0.7869066  -0.8366694
  -0.1486849   0.1530700  -0.1825728   0.2913570  -0.5973605   0.5014458
   0.3648125   0.1016118  -0.3619731  -0.0810153  -0.4149464   0.0320631
   0.0255307  -1.1955747  -0.4467348  -0.5701790  -0.7088591   0.2723674
  -0.0161992   0.1588761   0.0376726  -1.4639579  -1.4592357  -0.1776773
  -0.4581646  -0.7801157   0.1686782   0.1833342   0.0230617   0.4138010
  -0.1940480  -1.0190239  -0.3422206   0.2648129   0.2977774  -0.2865429
  -0.2000084   0.0079421   0.0457762  -0.6330886  -0.3997702  -0.8999199
   0.1664915  -0.5385406   1.2716287  -0.0506418   0.1822252  -0.1206824
  -0.9187418  -0.0809861  -0.4156315   0.3419034   0.2037975   0.4749601
  -0.3103388  -0.0751718  -0.0349055  -0.0253237   1.7172794  -1.0623816
   0.2914575  -0.3998231   0.1142645  -0.0834817  -0.2949909   0.1788997
   1.8517399   0.5896928  -0.7461136   0.4415090   0.8071190  -0.2395835
  -0.1462348   0.1089969   0.1694064   0.5171750  -0.7778953   0.3900442
   0.8503895   0.5499145  -1.8539126   0.3078791   0.1186741   0.0475568
  -0.4994186  -0.2814869  -0.3222465  -0.3297101   0.0816520  -0.2382034
  -0.1297777  -0.1234710  -0.0270764  -0.6627459  -1.5892281   0.1301407
   0.7526320   1.5258876   0.9102920   0.1039021   0.1112140  -0.1307130
  -0.6225061  -0.1985234   0.4324147  -1.1522729  -0.6174501   0.3910389
   0.2087948  -0.0724699  -0.1836851   0.1352583   0.3447845  -1.3664323
   1.2604358   0.1542016   0.2412722  -0.0674059   0.2148953   0.1844717
   0.1975528  -0.8659628   1.3126526  -0.0975962  -0.1406439   0.7203633
   0.1986345   0.0688983   0.1052352   0.1485315  -1.9972164   0.8799127
   0.7018129  -0.2758469   0.2674354   0.1329342   0.2479580   0.2921368
  -0.5467777   0.2042302   0.6417942   0.4330820   0.1812498  -0.2009042
   0.2049277  -0.3053035  -0.0289128   0.0886807   0.7346344   0.7953942
  -1.0305806  -0.4252044  -0.1035829   0.1285687   0.0576218  -0.0311962
  -0.0054043   0.7215790   0.5113858   0.0706138  -0.7554410  -1.0147717
  -0.0110072   0.2278283  -0.1502803   1.1165402   1.1263530  -0.0318558
   0.0783556  -0.9128413   0.0207461  -0.2569380   0.2544718  -0.2467123
  -0.7259838   0.9676500  -0.0013907  -0.3594794   0.3699915   0.9561112
  -0.3259963  -0.1181621   0.1845239   0.7695682  -0.8917383  -0.5822939
  -0.4763768  -1.3293599   0.3935954   0.0440561   0.0624230   0.0049916
   0.1577916  -0.0735283   0.3294735   0.6490732  -0.8845670   1.1647224
   0.1431668   0.0426233   0.2423831  -0.6300150  -1.3118260   0.3946264
  -0.6689171  -0.0172526   0.5816504  -0.2141189  -0.1433013   0.1159382
  -0.2155607  -0.1294989  -0.8570307  -0.1196815   0.0172603   0.1578116
   0.4250759  -0.0066100  -0.1527297  -0.3284777   1.6831924   0.7929098
  -0.9565641  -0.4984694   0.4356401   0.0581773   0.0049563  -0.1443201
   0.4958137   0.5723239   0.0507381   0.0322846  -1.1048780  -1.5066791
  -0.5215559   0.0438334   0.0814873  -0.3126269  -0.2001099   0.2332399
   0.2663575  -1.3274804  -0.8398415   0.4047905  -0.1348950  -0.2989033
   1.5641599  -0.5407972   0.1849375  -0.6833234  -0.0555046   0.5423699
   0.2865151   0.2691073  -0.0504353   1.2413511   0.1074271  -0.1527131
   0.0677484  -0.4022502  -0.3384360   0.0028660  -0.5058541   0.2990127
   0.0311756  -0.8932236   1.1528939   0.4963293   1.3187545   0.5252985
   0.2539931  -0.1310974  -0.1408976  -0.0069127  -0.7119135   1.0353829
  -0.0890640   0.4144287  -0.8610180  -0.2693413  -0.2040556   0.2548247
   0.2300081   0.0024961  -0.1728521  -0.0788374  -0.3985956   0.6307140
   0.0297780  -0.3398329  -0.2042779   0.2526435   0.3699681  -0.5397541
  -0.2512184   0.3680562   0.5273256   0.0906711  -0.0159099   0.1524316
   0.4078926   0.8321869   1.0025452  -0.6970660  -0.2279417  -0.2165404
   0.2321546  -0.1119459   0.1102293   0.9766221   0.5445962  -0.2272694
   0.2203408  -0.0686034  -0.8370044   0.0185000  -0.1563304  -0.0567062
   0.0779715   0.9352593   0.0005351  -0.4233311  -1.0462120  -0.5732002
   0.1929676   0.2773835  -0.1111651  -1.0981250   0.5554870   0.4851313
   0.1883691  -0.3200698   0.0105622  -0.2248106   0.0163991   0.0761758
   1.1817990   0.4696596   0.9377633   0.3898178  -0.3888302   1.0642235
   0.2971496  -0.2703472   0.2602225   0.0280506  -0.7054043  -1.0601211
  -0.7767432   1.2544079   0.0418467   0.1247731   0.2432403   0.2965434
   0.5371725  -0.8563471   0.6757861  -0.3387304   0.2116994   0.6074664
   0.0617998   0.0374607  -0.3002027  -0.1972866   0.3587101  -0.1537963
   0.7428815  -0.2763774   0.0412474  -0.4226282   0.2613614  -0.0658276
   1.0666603   0.7530954   0.8539322   0.4389222   0.6281130   0.8593842
   0.0083749  -0.0356887  -0.0171867   0.7405942  -0.3260789  -0.4527699
  -0.2056673  -0.0265794   0.7924758   0.0869660   0.2705431   0.1255748
   0.5098029  -0.5840102   0.6460582   0.8499920  -0.1075716   0.7151875
   0.0890729   0.0768449  -0.0164744  -0.5033428   1.0717305  -0.5070754
   0.4607063  -0.4259812  -1.0508891  -0.2131577  -0.2755772   0.2191786
   0.1160102  -1.2429680   0.9352613   0.1810523   0.9964470  -0.1464353
   0.1842290   0.0975636   0.0839470  -1.6783251   0.5787226   0.5949753
   0.7813268   0.3758944  -0.3343566  -0.4473716  -0.0874896  -0.1843120
   0.0191959   0.2991182   0.1564254  -0.1929238   0.1762167  -1.3809860
   0.0355942  -0.2112985   0.0654558  -1.0878755   0.3043434   0.1918829
   0.6010889   0.2296042  -0.4200511  -0.1500369   0.4259563  -0.3236627
   1.1549036  -0.1042405   0.0983364  -0.4476385  -0.6057280  -0.0003200
  -0.0077967  -0.3226739  -0.0085596   0.0241507   1.1311651   0.2114388
   0.2986156   1.0727764   1.8003228   0.1570411  -0.2495745   0.0247140
   0.1271916   0.6191275  -0.3913197   0.5346047   0.7392283  -0.7511505
  -0.1834041  -0.1644414  -0.3608611  -0.2883765  -0.4098115   0.4641665
  -0.8298991   0.2808964  -0.3012057   0.2290215   0.0104857  -0.2558309
   0.5698166  -0.7960221   0.3384934   0.2697261  -0.5588579  -1.6147220
   0.1003514   0.3304814  -0.0155640   0.2781609  -0.9844292  -1.1810796
   0.5204127  -2.3293303   0.2325943  -0.0538307  -0.1154802   0.2492047
   0.7516523  -1.1012862  -1.9031735   0.4477721   1.0648370  -0.6802631
   0.1522315   0.0892342   0.0507856  -0.7431184  -1.0841546   2.2159149
   1.5699036   0.2382692  -0.0663403  -0.1401765   0.0412225   0.2896496
  -0.2858576  -0.5647397   1.1921746   0.0538564   1.1411255  -1.1892782
  -0.1714041   0.3287274   0.1851908   0.9165500  -0.5351777   1.0191306
   0.8803844   0.0321432   0.4804483  -0.0395184   0.1043941   0.1340953
  -1.1361690  -0.7323160   0.6018704   0.2081109   0.5138922   0.1159921
  -0.1609469   0.0092126   0.0105860  -0.1338581  -0.5972652   0.0027770
   0.4295589   0.5034223   0.3304572  -0.1632975  -0.1646694  -0.1588009
   0.2008759  -0.8697723   0.6508883  -1.5160149   0.9063975  -1.0643882
   0.1283293  -0.2131846   0.0103127  -0.1389421  -0.2489428  -0.0466943
   0.3138512  -0.4000454  -0.5068803  -0.0149903   0.1354143  -0.2996436
   0.1469086   0.8424164   0.4556290   0.6038223  -0.9086168   0.4530090
   0.0828455  -0.4289467   0.1705147  -0.3508909   1.4081732   0.7840406
   0.9697166  -0.3191872  -0.1706426  -0.2036777  -0.1945338  -0.0907618
  -0.5965734  -0.6074871   0.1819312  -2.0561068  -0.3405519  -0.2819027
  -0.2929778   0.1794336  -0.1024817  -0.9597654   0.1491383  -1.7469921
   0.2156324   0.3416445  -0.0841089  -0.1568716   0.2786040  -0.0670603
   0.6054796  -0.4992483  -1.0817081   0.8176566  -0.0631634   0.1840833
   0.1373807  -0.3049978  -0.5265664  -0.1652810  -0.4844687  -0.2667951
  -0.5730054  -0.1540042   0.2308875   0.1384586   0.0199910   0.1408096
  -0.3971530  -2.1307980  -0.4300329   0.1225739   1.6450955   1.1718242
   0.4291560  -0.2662027  -0.0939411  -0.3400551  -0.4715682   0.2317960
  -0.1266214   1.3383492  -0.6555618  -0.0797788   0.3711137   0.0867313
   0.0472765  -0.8494846   0.3108072   0.2879461   0.4168526   0.4999796
  -0.1602062  -0.2011978  -0.0755109  -0.0843697   0.1909933   0.7901268
  -0.4454578   0.1776812  -0.6106273  -0.0762529   0.0607065  -0.1525336
  -0.3288449   1.7210150   0.5675971   0.4816334  -0.1097019  -0.4193013
   0.1796867  -0.1951630   0.1058241  -1.9773039  -1.8498746   1.2479944
  -0.6268649  -0.5750356  -0.4193081   0.0549402  -0.2358334  -0.1634790
  -1.0205556   0.4566535  -0.5521135   1.1287322   0.3693774  -0.5402418
   0.3373428   0.2933225   0.1027837   0.5291676   0.1888586  -0.8323278
   1.4647548  -0.8317964   0.0386314  -0.3139559   0.3460365   0.2444465
   0.2159240   0.2567729  -0.5276871   0.1774228  -0.1129249  -0.6146436
  -0.2090743   0.1947194  -0.1664602  -0.7223839  -0.8047148  -0.6860737
  -0.6619695  -1.0223361   0.2575293   0.0090605   0.3078344   0.0994795
  -0.9355697   0.1416915   0.8067117  -1.0818681  -1.4040460  -0.5710432
   0.1626763  -0.1831258  -0.0440771   0.0138733   0.2987420  -0.8463452
  -0.2574385  -0.3919841  -0.1951032  -0.0469310  -0.0530790   0.5325406
  -0.5735935   1.1557868   1.0807257  -0.2516637   0.9500120   1.2428409
  -0.1792804   0.0773779  -0.1568940  -0.0270122   0.4397890   0.6402969
   1.1552768  -0.0873113   1.0687151   0.1665587  -0.1101361   0.2523407
   0.9534503   0.3803241   0.4717083   0.5556091   0.5161646  -0.1698036
   0.3694982   0.1173157   0.1177148  -0.1843287   0.4416981  -0.2404475
   0.6237166  -0.0380586  -0.0229103  -0.1472587   0.0008689  -0.1387107
   1.1379454   0.2204888  -0.8756948  -0.7694934   0.3867874   0.2494978
  -0.0295030   0.2869629  -0.2581505   1.3016052   0.0839104   0.2628280
   0.0239964   0.5290900  -0.0422125   0.0836938   0.1470321  -0.2401107
  -0.6909135   0.1282636   1.2651769   0.4590429   0.1052608   0.4192536
  -0.2446074   0.0660969   0.0603335  -0.0884145   0.4752930  -0.3003325
   0.7703895  -0.4528318  -0.0322058  -0.1641741   0.2512073   0.3177235
   0.9817364  -0.4503482  -0.4188348   0.1830689   0.2164007   0.7182238
   0.1683707   0.0533165   0.0280053   0.0031997   0.5647052  -0.5783890
   0.1862397   0.5834204  -0.0048926   0.0484786   0.2551907  -0.0096439
  -1.6563619  -0.2712015   0.9255816   0.5695575  -0.1128575   0.3612671
  -0.0680355   0.0295561   0.0989071   0.1479440  -0.9965301  -2.3409933
   0.3322491  -0.7063203   0.8346617  -0.0321532  -0.1259742   0.0293855
   0.3389167  -1.2290587  -0.0128983  -0.5631247  -0.6226391  -0.0320634
  -0.0430372  -0.0094381  -0.0423057   0.1831077  -1.5210846  -0.0029726
  -0.7402242   0.1690303  -0.1551182   0.2008442  -0.1218667  -0.1078816
   1.6179620   1.0433826   1.3025937  -2.2410794  -0.2458723   0.7915177
   0.0068921   0.1163826   0.0073918  -1.2296147  -0.0998516   0.9071223
   1.0521765   0.7057039  -0.3488983   0.0572196   0.1744180   0.5055001
   0.4988955  -0.8822134  -0.2972170   0.4395891  -0.9156705  -0.2108917
   0.0058192  -0.0748170   0.0640383  -1.2502458  -0.3714706  -0.2886911
   0.4441193   1.1025688   0.5368572  -0.0000748   0.0384794  -0.1491949
  -1.3165263   0.7554394  -0.7007379  -0.3092191  -0.2468119   0.2256744
   0.3456071  -0.1983193  -0.3404854  -0.3043200  -0.3994880   0.6145996
  -0.2034865   0.2127081   0.5436256  -0.0218198   0.0617720  -0.0210901
  -1.7060713   0.2823723  -0.0834779   0.1266072  -1.0133454   0.1061110
   0.4034016   0.1185199   0.1430209   0.3467316   0.1899071  -1.6914938
   0.3363970   0.7790936  -0.8310430   0.0301221   0.0247673  -0.0178225
   0.6899988  -0.1153723   0.2097468  -0.5481645  -0.5884345   0.2550543
  -0.0286324   0.1785726   0.1259746  -0.3322828   0.1533629   0.1012574
   0.9118925  -0.8930154   1.4231130   0.2969722  -0.1368760  -0.0361348
   0.0933475  -1.8064602  -0.0124158   0.9078861   0.5022476   0.2579174
  -0.1118764   0.0207706  -0.0003574   1.4046454  -0.2120924   0.7517189
   1.3387557   1.3522019   0.7871848  -0.2630497  -0.0137224  -0.1953798
  -0.0643885  -0.9143200   1.7789850   0.2098508  -0.3771135  -0.6829843
  -0.0582479  -0.0221220  -0.0295897  -1.2394448  -0.4376390   0.1768867
  -0.9090752  -0.1916357   1.4230883  -0.1534425   0.2267296  -0.0675571
  -0.5951946  -0.1996634  -0.3059679  -0.1473198   1.5118090  -0.1003160
   0.4066686   0.1066651   0.0237941  -0.8462262  -0.1257341  -0.0446296
   0.6473005  -1.0137284   0.9564829  -0.1118995   0.0580312  -0.1837027
  -1.4413204  -0.2955890   0.1033319  -0.5822699  -0.5575523  -0.8739876
  -0.1863188  -0.1426089  -0.1533185   0.9785784  -0.1119607  -0.3141788
   0.2647330   1.0350028  -1.1983168  -0.0235290   0.2552754  -0.0228020
  -0.6067702   0.7428362   0.2739062  -0.9117314  -0.2755378  -0.4527067
  -0.1517628   0.0457841   0.2027006  -0.1415856  -0.3836716   1.1098487
   0.4665846   0.4279639   0.1513874   0.2442964  -0.0490351   0.1988867
   0.1119239  -0.9874278   1.0074254   0.7934279   0.1456740  -0.2842183
  -0.1193774   0.0432056   0.1725609  -0.0428632  -2.1108139   0.8380991
  -0.2940213   0.1428226   1.4744766  -0.1800101   0.0128620   0.0304078
  -0.5217677   0.0251927   1.3007046  -1.6582654   0.1617741   0.2676206
  -0.5036762  -0.0515674   0.2679545   0.2682901  -0.3651369   0.2843993
   0.1652081   0.8502322  -0.5179237   0.2139787  -0.0355074   0.0541292
   0.0878111  -0.2879969  -0.4216241  -0.3317339  -0.3909182  -0.0292495
  -0.1276517  -0.0005682   0.0024497  -0.0904819   0.8710500   0.9362539
  -1.3750488   0.4452295   1.1935941   0.0913152  -0.2099170  -0.0708693
   0.6950297   0.1466819  -0.5443914   0.7695295  -0.2584106  -0.3524358
   0.2404259  -0.1767990  -0.2919740  -0.6144371  -0.0713385  -0.7455127
  -0.3766838  -1.2510369   1.2355638   0.3306160  -0.0465255   0.1544227
   0.5846556  -0.8334552   0.3793929  -0.6349797  -0.6429343  -0.6613913
   0.2379348   0.1313913   0.1568686  -0.4159056   0.4795601  -0.5334733
  -0.3205429  -0.7540361  -0.5545945  -0.2058327   0.0192025  -0.3352056
  -0.4839890  -0.2805504   0.1487824   1.9178100   0.8925590   1.3964258
  -0.1721160  -0.1854550  -0.1013175   1.4982164   0.0127413   1.2494150
   0.2582004   0.1319317  -0.5476871   0.0818687  -0.1438640   0.3365446
  -0.4699285  -0.7897800  -1.7227083   0.4733733   0.7197569   0.5390496
  -0.0535777   0.2095842   0.1161232   0.5087660  -0.8122229  -0.7556515
  -0.6423646  -1.2688880  -0.1336846  -0.4352739   0.2334846  -0.0535247
   0.2274534   0.4723876  -0.8526031  -0.4705314  -0.2515842  -0.0560761
  -0.2101139   0.0076989  -0.0116442  -1.2233997  -0.5316174   0.7255188
  -0.4289522   0.0448746   0.1162803  -0.2879775   0.2053589   0.0344148
  -0.9838399   0.0734881   0.1751221   1.0828378  -0.5885789   0.2698727
   0.0937233  -0.2266684  -0.1526197  -1.2181394  -0.2367682  -0.9847904
  -0.8380274   1.1433565   0.0898407  -0.0872718  -0.1905128   0.2754777
  -0.3635354  -0.0675689  -0.0574276   0.4188446   0.0154805   0.9212727
   0.0657012   0.1112756  -0.0699596  -1.4167242  -0.1233366   0.4524238
  -0.7144883  -0.3818351  -0.4391472   0.1161709   0.1362098  -0.1370833
  -0.1373228   0.1292644  -1.7681529   0.8200539  -0.8729046  -0.8509703
  -0.3180454  -0.1340885   0.1269040  -0.5847607   0.1110395  -0.3763424
  -0.1652706   0.7081813   0.2006796  -0.0708096  -0.0178308   0.2811418
  -1.5581848   0.2245564  -0.9111281  -1.1473926  -0.7228724   0.6366453
  -0.1701507  -0.1575818   0.2755968  -0.5114542   1.1131968   0.9818188
  -0.7893625   0.5162552   0.0061485   0.2928583  -0.1577963  -0.0156216
  -0.1820123   0.2489271  -0.2344814  -0.2068943  -1.4566771  -0.4736444
   0.0944929  -0.1442291  -0.3371262   0.0954557  -0.4693169   0.2160099
  -0.8293988   0.5134917  -1.4260394   0.0045738   0.0834634   0.0743539
   0.4434581   0.2217324  -0.3929133   0.1630165   0.2243841   1.0446682
   0.0220488  -0.2820261   0.3859966  -0.2253758  -0.0370823   0.5102232
   0.7793525  -0.3123813  -0.1376339  -0.0121950   0.0178567   0.0881641
   0.5141348   0.6760769   0.7666748  -1.9160832  -0.2004803  -0.3757285
   0.0915147   0.0494658   0.0229926   0.4762040  -0.9615340   1.8386700
  -0.8929548  -0.4145036   0.3979009  -0.0510973   0.3593342  -0.0689625
  -0.8714090   0.1347944  -1.1408658  -0.4689026   0.5067368   0.4125845
  -0.1895934   0.0339636   0.0974929   0.7768249  -1.4729525   0.3292689
  -1.0168340   0.7836284   0.9364707   0.0332100  -0.1032500  -0.3601532
  -1.7916323  -1.0318563   0.1374102   0.7203974  -0.3801173   0.0617076
  -0.0874773   0.1073168  -0.1264081  -0.3964945  -0.1822282   0.4928957
   1.3932229   0.4828619  -1.1007876  -0.0406777   0.0909908   0.1396785
  -0.6721957  -1.2214278   1.5268165   0.0334236  -0.5596267   0.4403581
   0.0488951  -0.1434704  -0.2412081  -1.1469554   0.1766439  -0.0270278
   0.4375024   0.0931309  -0.5008866  -0.1038719   0.3842245  -0.0468518
   0.0702197  -0.7952567  -1.2106155  -0.9197601  -0.4640183  -0.1456421
   0.1107558  -0.2691532   0.2464289   0.7768280  -1.8296273   0.4819906
  -0.2379272  -0.7511054  -0.3589578  -0.0329260  -0.0747655   0.0891608
   1.3513060  -0.2395051  -0.0974570   0.3883566   1.1823870   0.8212755
  -0.1122836  -0.2647424  -0.0310275  -0.2206872  -0.1288734   0.5119773
  -1.2769435   0.9914611   0.6744801  -0.2782789  -0.0790316  -0.2599322
  -0.0033945   0.5922187  -0.3953294   0.6914160   0.1093199   0.0903718
  -0.1199878  -0.1157269  -0.0174696  -0.0115565   0.1607868  -0.1603240
  -0.9318050  -1.1158634  -0.6140611  -0.0211764  -0.1169443   0.3338587
   0.0902300  -1.0774889  -0.2467167   0.1587545  -0.6473218   0.6083013
   0.0209902   0.1456055   0.0387731   0.0911275   0.0843383   0.0337254
  -0.8342862  -1.0392373   0.8110325  -0.0053895   0.2760744  -0.2577925
  -0.6234714   2.0457374   1.0333837  -0.4001981  -0.6753706   1.6666488
  -0.2043660  -0.0298674  -0.0834489   0.5459149   0.1623685   0.5937137
   0.3276475  -0.3084594  -0.6374069   0.1984597  -0.0656143   0.3201622
  -0.0123627   0.6407949   0.1440237  -0.1803424   1.2435135  -0.6373312
  -0.1822620   0.3639445  -0.0291695  -0.0852881   1.0812872  -0.9306285
  -0.0138557  -0.9436778   1.0232089   0.0007720  -0.1016979   0.0580044
  -0.7396665   0.1290524  -2.1127961  -0.5732275   0.3413633   0.6814342
  -0.0502314  -0.1750159  -0.0614208   0.2862834  -0.8908810   0.7644639
   1.0579571   1.2789586  -1.2399261   0.0217429   0.0346220   0.2592685
   0.1444114  -0.3396708  -0.5095129  -1.0363212  -0.8988296  -0.4370395
   0.2965455   0.3404545   0.0813733  -1.3716628   1.5105595  -1.2846989
  -0.4475743  -0.2448859   0.3886911   0.0074281   0.1338395  -0.0192586
   0.3272580   0.6533875  -0.8361387   0.3177475  -0.7387920   0.3908003
   0.1272107   0.0773174  -0.1005719  -0.5639372   1.2608288   1.1650600
  -0.6538824  -0.7715287   0.2545896  -0.1449105  -0.1947440   0.0352436
  -0.7864980   0.7148798  -0.1020579   0.3605806   0.6007542   0.0667620
  -0.1594280  -0.4354194   0.0146741  -0.3134708   0.2103437   0.4636270
   0.5627000   0.2396585   0.8903674   0.4034203   0.0758975  -0.0707764
   0.0277993   0.0229187   1.0537190  -0.7158231   0.5421216  -0.6255619
   0.2153977   0.0051869   0.2152005  -0.1643802  -0.0748233  -0.0564508
  -1.4592248  -0.3275200   0.7168715  -0.1491180   0.0483928  -0.0129539
  -0.2225184  -0.6823517  -1.1823016   0.2506456  -0.7749218   0.1344050
  -0.1230435   0.0871900   0.0512420  -0.2149803   0.9679555   0.8467269
   0.0690164   0.4654612  -0.8235025   0.0660895  -0.1750046  -0.3105006
   0.4115325   0.8772871   0.6081176  -0.7284825   1.5318004   0.7726323
   0.1557816   0.0059536   0.1055263  -0.4606547  -0.0893548   0.5434285
  -0.4013888  -1.4706981   0.2849232  -0.1762545   0.2064128   0.1612001
  -0.7828838   0.7674910  -0.2321645  -0.5179056   0.1844537  -0.2386870
   0.5938595   0.0099816  -0.1619902  -0.0692298  -0.0420660   0.9121155
  -0.9329969   0.6437565   1.0020900   0.1028910   0.0889518  -0.0944544
  -0.0062786  -0.0205366   0.7496601  -0.1794010   0.4628551  -0.7759547
  -0.0878052   0.0186079  -0.1894934  -0.7469035   0.5134279   0.3246532
  -0.4863530  -0.0136264  -0.4494182  -0.0932116   0.0104201   0.0283470
   0.1575899   1.4439301  -0.3247818   0.0041120  -0.1156629  -0.1375777
  -0.0337188   0.1352453   0.0804158  -0.2982652   0.0417392  -0.6369358
   0.3551748   1.2235839  -0.3425158   0.1977613  -0.1976721   0.1210413
   0.1147312  -0.3529446  -0.4013997  -0.2815866   0.6618716  -0.0969264
  -0.0099363  -0.2923528  -0.1690772  -0.2642784  -0.4107608  -0.6226557
  -0.6580795   1.5170528  -0.6516084   0.2000930   0.0243391  -0.3378680
   0.0035759  -0.4600959  -0.1094485   0.1716751   0.2072727   0.8116252
  -0.0620713  -0.0078337   0.0772670   0.6773109   0.3050184  -0.5642151
  -2.3165404   0.4005291   0.5629341   0.0135018   0.2405146   0.1227395
  -0.2933009  -0.6395962   1.0612670   0.8043790  -0.7052413   0.6563663
  -0.0422790   0.0002020   0.1517358  -1.0273295   0.7880781  -0.1343613
  -0.5715909  -0.2932170   0.7902397  -0.2764364  -0.2254461  -0.3508368
  -0.6128366  -0.6102029  -0.1692157   0.5621860   0.8441517  -0.3877609
   0.0062236   0.1152868  -0.0669345   0.1137408  -1.3346701  -0.2027355
   0.3741653  -1.4450345   1.1283299   0.1509116  -0.2317605   0.1092269
   1.1124342   0.4997623   0.8927501   0.0843417   0.9764040  -1.2327847
  -0.1992314  -0.0623468  -0.2199721  -0.1753694   0.7388624  -0.2779504
  -1.0102648   0.0626137   0.8813587   0.1839076  -0.2215623  -0.2968079
  -0.0851233   0.4308419   0.0765401  -0.4846240  -0.5406212  -0.8464211
  -0.4091450   0.2435064   0.3283317  -0.9669650  -0.4827669   0.4485062
  -0.7664851   0.5213146  -0.3203053   0.0234756  -0.1406464  -0.0862636
  -0.2426578  -0.0388351  -0.5226171  -0.6407397  -2.0457164  -1.3483241
   0.1045000   0.2623257   0.2436899   0.2504784  -0.1224353  -0.4917827
  -0.9730603   1.5754310  -0.3957119   0.0589388   0.1513546   0.2793497
  -0.1288946  -0.1870114   0.4466225  -0.2780264  -0.2468757  -0.0484102
  -0.1475298  -0.0991538   0.0461999   0.8097136   0.0061303   0.3824431
  -0.3021711   0.4651145   0.6167519  -0.0864391  -0.1290463  -0.2582379
  -0.3832754   0.4829759   0.9892040  -1.1448147  -0.0057469   0.3258095
   0.2556034  -0.1038127   0.0460728  -0.6957379  -0.7238395  -0.9167991
   0.4901014   0.0481144   0.5361889   0.1596329  -0.1702655   0.2150062
  -0.3433959  -0.7365951   0.4676322   0.2132218  -0.3969960   0.1386275
  -0.2617134  -0.1745007   0.2764771  -0.9450646   0.9264150  -0.9217677
   0.3322127   0.8408337   1.2983174   0.0826480   0.0766479  -0.6354418
  -1.0318500  -0.7539089   0.4540103  -0.6933776   1.3150514  -0.8988785
   0.0285754   0.1220457  -0.0372180   0.8971680   1.1875324   0.5986310
  -0.3321193   0.2320273  -0.7964876   0.3019784   0.2400015   0.1250195
   1.2886528  -0.2877475   0.6877973  -0.9077491   0.6293859   0.9385294
   0.0217672  -0.1998857  -0.0368158   0.0291035   0.2507434  -1.6124867
   1.0143892   0.0386710  -0.0217730   0.1938981   0.4645022  -0.1463765
  -0.4922524  -0.2399117   0.0603087   0.9604795  -1.2805989   1.2143572
  -0.0358968   0.0287511   0.0362101  -0.1360151  -1.1800275  -0.0016069
  -0.3660832  -0.4907301   0.2907932  -0.1888335   0.0211909   0.1886661
  -0.8735861  -2.4146942   0.3386832   0.5031606  -1.6310444   0.2128659
  -0.1539611   0.2087719  -0.1957175   0.4439460   0.0182446   1.4447327
  -0.0246562   0.0215914  -0.6496523   0.1622071   0.1098345  -0.2520751
   0.9391200   1.6493398   1.6339654  -1.2810816   1.5477469   0.2568831
  -0.2913409   0.1565489   0.0403316   1.3882835   0.4101323  -0.4160191
   0.0987976   0.2793777   0.2606772   0.0452766  -0.0568288  -0.0411553
  -0.2133682   0.0204897   0.5484513  -0.1828337   0.4128000  -0.2955418
   0.0987914   0.1961526   0.0777908   0.2769063  -0.3529280   0.6203299
  -0.7662173  -0.0495465  -0.2981528   0.0987500  -0.1322338  -0.0104299
  -0.1436118  -0.3479721   1.2556637   0.8762805   0.1317469  -0.6175871
   0.0419756  -0.1897777   0.0469080   0.5344266  -0.2937799  -0.7300356
  -0.9831775   0.2218189  -0.1260249   0.0880445   0.2095910   0.2842744
   1.0299309  -0.5276268  -0.4025730   0.0384251  -1.1999604  -0.1181285
   0.1176630  -0.0218230   0.0681947  -0.1976664   0.6147075  -0.3471810
   0.0205944   1.0548680  -0.9689755   0.0705922   0.1208061  -0.1659602
  -0.5720481   1.1082777   0.5767434  -1.0649323  -0.5039960   1.3385444
   0.0807272  -0.1798411  -0.0378052   0.4974108   0.0669321  -1.1028199
   0.5774532   0.6047002   0.3598659   0.3433852  -0.1495518  -0.1595175
  -1.2469764   0.4431789   0.2671531   0.3648015   0.0240137   0.7562265
  -0.0629910   0.2658787  -0.0542771   0.8762525  -0.3353532  -0.8949976
  -0.6312245  -0.9425916  -0.5790547  -0.2852591  -0.0025831   0.3045270
  -0.4451525  -0.9809477   0.4346274   0.1773196  -1.1388775   0.3935696
   0.0230175  -0.3026198   0.2565952  -0.7915091   0.4095860  -1.4291651
  -1.2748936   0.6586822   0.3794412  -0.0605341  -0.0726421   0.0773998
   0.4180687  -0.4417362   0.4819565  -0.0190545  -0.1208292  -0.1298142
  -0.1131582   0.1389547  -0.2072347   0.8502294  -1.0128737  -0.9311134
   0.0472240  -0.4323378   0.2533633   0.3149132  -0.1165429  -0.0436134
   0.2924971   1.4145195   0.4927033   0.9794714   0.1293381  -0.3599142
  -0.4079597   0.0636831  -0.1261845   1.8245604   1.1479209   0.7137389
   0.4153084  -0.2770518   0.2624819   0.0799051   0.2491125  -0.0111540
   0.6652421   0.8590599  -0.1272034   0.6853674   0.9621404   0.5183129
  -0.0553584  -0.0209785   0.0048107   0.7295399   0.0265355   0.0280128
  -1.2782335  -0.2935087   0.9167894   0.0896022  -0.0573887   0.1992868
   0.8123775  -1.0496855  -0.9145926   0.3439141  -0.0130125  -0.4820195
  -0.1586310  -0.0311501   0.0741842  -0.9409686  -0.2751959   0.6635568
  -0.8321914  -0.0728672   1.0655883  -0.0895440   0.2704219  -0.2476842
  -0.0125598   1.8607478  -0.0220803  -1.0625434   1.1255979   0.4620552
  -0.0312078   0.1149632   0.3140087  -0.3184245   0.3676712  -0.3204752
   0.2374002   0.6892464  -1.5476212  -0.0211757   0.0944131  -0.0811489
   0.4917648  -0.2388733  -0.7910468   1.2238078   0.9558346   0.5059584
   0.0129803  -0.1429615  -0.1059858  -0.3582447  -0.4192298  -0.3447345
   1.7140419   1.3756754   0.8266919   0.1496059   0.1065153   0.1694802
   1.0818731  -0.3468478  -0.1740212  -0.6696794   0.1077387   0.4129780
   0.2895968  -0.0615249   0.1056762   0.5898051   0.3508008   0.2943708
   0.6117842  -0.5407288   0.9040567   0.2513546   0.1082144   0.1187361
  -0.2397283  -0.7605278   0.0105329  -0.1193890  -0.2981125   0.8482648
  -0.1638122  -0.2490679   0.0676174   0.5099292   0.1077464   1.3750714
   1.0697664  -1.0304639  -0.3611494   0.2347811   0.0639822  -0.0188493
   0.4454184   0.9305563   0.7442116   1.0419850  -0.4849004   0.5108643
   0.0908311  -0.0755901  -0.1468145  -1.5549745  -0.2171117  -0.6487143
   0.9177310  -0.5154748   0.3600040  -0.1702608   0.2340953   0.2724833
  -0.8060713   0.3964671  -1.2304121  -1.2612390   0.0244508  -1.1464913
   0.0552797  -0.1973625   0.0020306  -0.2211094  -0.6274759   0.3149076
   0.3480165  -0.1644014  -0.5606835   0.0854311   0.0430541   0.0980066
  -1.1577821  -1.0409816  -0.7774048   0.3460837  -2.1384541  -0.8432698
   0.1083758   0.0250405  -0.1736960   0.0511076  -0.4922498   0.5799667
  -0.3772676   1.0694197  -1.6830520   0.2739887  -0.1783298  -0.0303421
  -0.0509986   0.1658200   1.0414812   0.4072110  -0.4098916  -0.5126177
  -0.0141328  -0.1401741  -0.1260581  -1.1297019  -0.0406381  -0.3643610
   0.1540041   0.2543893  -0.1158701  -0.0042811  -0.2869742   0.1853304
   0.3227433  -0.3935404  -0.1428424   0.4376802  -0.5924166  -0.0074499
   0.1680829   0.1509737   0.2971804  -0.0088737  -1.2632891   0.5939171
   0.8035415   0.0346455  -0.5197739  -0.0478278   0.2502397  -0.0872639
  -0.0797945  -1.1449038  -0.3036817  -0.2468299   0.3161875   0.2336417
  -0.2370490   0.1401612   0.1603267   0.0730043   0.1523513  -0.2780682
  -0.4084298   0.7987527   0.3656807   0.0483732   0.1576648  -0.2714111
   0.7219955   0.2657838  -0.8137744  -0.4007017  -0.2053113   0.0404220
  -0.1720046  -0.2215307  -0.3049545  -0.4360554  -0.7185466  -0.8267536
   0.1163742  -0.1844588   0.4673754   0.0463665  -0.1898357   0.0529018
   0.4601863  -0.4644332   1.3557924  -0.4292731  -1.1939545  -0.4905521
   0.2007715   0.1727318  -0.1814613   0.0531784  -0.0941506  -0.1463878
   0.3829947   0.1585007   1.7320082  -0.1844689   0.0338777   0.1582020
   0.5066091   0.6614525  -0.4839978  -0.5483495   0.1922854   0.1262663
   0.0866551   0.2786989  -0.0002817  -0.4318527   0.2911158  -0.5065987
  -0.8303561   0.0166951  -0.3478742   0.4638368   0.1259205   0.1691160
   0.9249724  -1.9424990   0.1786491  -0.1555770   1.0575586  -0.8859932
   0.0327751  -0.0366414  -0.0118220   1.1916173   0.3521208   1.3775722
  -0.7215719   0.4435308  -2.4503414   0.0413484   0.1561765  -0.3823491
   0.2962925   0.5235206   0.7083509  -0.3426604   0.0829430   1.4251620
  -0.1871282   0.3058769  -0.0898097   0.2971967   0.6106326  -0.1195127
   1.9491190   1.2318867   0.6108158   0.0463906   0.3019854   0.1016197
  -0.1836758   0.5897744  -0.9556867   0.0810314  -0.1697253   0.6462316
   0.1278991  -0.1123560  -0.2707517   0.8790905   0.8101207  -0.7169579
  -0.0270954  -0.6283294  -0.3980998  -0.0340867  -0.0788918   0.1300932
   0.5602228   0.2063527   0.6427231  -0.6937618   0.8798768  -0.2874211
   0.2523091   0.2815447  -0.1248148   1.5004791  -0.1078133   0.5564887
  -1.1169084  -0.0425116   0.4985642  -0.0924843  -0.2132500   0.0146663
  -0.0187298   0.5802461   0.2626138   0.9591482   0.7320708  -0.3629566
  -0.1946473  -0.0199779  -0.1637687   0.0231775  -0.4390179   0.1961083
   0.6712590  -0.3660956   0.1895958   0.2253959   0.1166056   0.0486715
   1.1127447   0.4251362  -0.8129569   0.8103192   0.9027656   0.4563852
   0.0920191  -0.2793246  -0.0235036  -0.0540307  -0.4593563  -0.3122466
  -0.8900788   0.4549686   0.9122120   0.0234656  -0.0022048  -0.0476303
  -1.4368857  -1.5930935  -1.2906660  -0.8743074   0.3040013   0.7270308
  -0.3029553  -0.2530919  -0.0882214   0.5309557   0.1889130   0.0515684
  -0.2889409  -1.0354167   0.1064453   0.1281105   0.0555674   0.0580006
  -2.2547584   0.4644859   0.3642400   1.5332630  -0.5684441   0.0814817
   0.0145598   0.4771322   0.1180953   0.7182940  -1.5843461   0.4077776
   0.0959890  -0.0015557  -1.6065609   0.2592757  -0.0357044  -0.0256490
   0.8609898  -0.9163005  -0.0812962   1.9907647  -0.8342002   0.2739849
   0.0548700  -0.5385031   0.1098773  -0.9956093  -0.7138493  -0.7524250
  -0.0328613  -0.3404512  -0.2180550   0.0713551   0.0716572  -0.0213012
   0.5905844  -0.5998941   0.2846052  -1.1629321  -0.3333756   1.3910410
   0.1259888  -0.0955532   0.1842813  -0.0526738  -0.2825393  -0.1264629
   0.4676982   1.1636197  -1.4187823  -0.3162056   0.0235323  -0.2077986
   0.6591623  -1.3061334   0.0268394  -0.3073836  -0.1297866  -1.6058889
   0.0272184   0.2974766  -0.2483227   0.4890096   0.2918657   0.0965403
  -0.3907977   1.8878211   0.3613690   0.0333660  -0.3309430  -0.2088446
   1.2019996   0.3880161   0.0692312   0.7937100  -0.2743017  -0.3944190
   0.0882937  -0.1273240  -0.0237428   0.9495779   0.8248943  -1.1188901
   0.9519403  -0.7497752   1.4745958  -0.1214625   0.3016246   0.2292975
  -0.1483581  -0.0392643   0.2907917  -0.2968194   0.8515491   0.8077350
  -0.1237371  -0.2354910   0.3301142   0.3928020  -0.4439026   1.4205186
  -0.8569984   0.2201935  -1.1176834   0.1653531  -0.0174714  -0.2114224
  -0.3557579   0.1292211   0.8553337   0.0684239   0.0276231  -1.1235282
   0.0698777  -0.2743303   0.0192910   0.4011802   0.5162002  -0.0188099
   1.0065378  -0.3320420   1.3275806  -0.3567506  -0.1615262   0.1550127
   0.1266499  -0.2601280   0.8336223  -0.3803106   0.2539745  -0.6228219
  -0.0491081  -0.1394349   0.0880215  -0.4523109  -1.1889744  -0.8774731
  -0.8935576  -1.0527019   0.7897785   0.3859404   0.2110960  -0.1827465
  -0.0415026   0.7642932  -1.2224191  -0.2406253  -1.1700938   1.9695671
   0.0824865   0.0244504  -0.0006907  -0.8606022   2.3562209  -0.2538521
   0.7918765   0.6205169   0.2294868  -0.1190209  -0.0526855   0.0330546
  -1.1959271   0.7907415  -0.6125604  -1.2256244  -0.6710702   0.3734721
   0.2305243   0.3694294  -0.2040380   0.9066687  -0.9553572   0.5548434
   0.6209491  -0.9299544   0.2205545  -0.3066773  -0.1921172  -0.0207152
   0.7250281  -0.9422312   0.0117069   0.9008910   1.0147909   0.3069292
   0.0903186  -0.0417932   0.1092045   0.0709631   0.1464184   0.3176043
   0.3434197   1.9119193  -0.8460674  -0.2221245  -0.1103678   0.2732590
  -1.4301260  -1.3945146  -0.7408198  -0.1640181   0.3060977   0.5102092
   0.3044212  -0.0809213  -0.3678012   0.1728752  -0.1629704   0.1678187
   0.1261575  -1.1738162   0.6234141   0.2984981  -0.1149377  -0.0289190
  -0.8586216  -0.6665992   1.0650947  -0.9801834  -0.8973873   0.4077581
   0.1628022   0.1343246   0.1169579  -0.1210376   0.2611613  -0.9029989
  -0.4500881  -0.5999961  -0.5370674   0.3047139  -0.3652823  -0.1913003
   0.5669782  -1.0062689  -0.0234907   1.9005670  -0.8046834   1.1546985
  -0.0450879  -0.2202433  -0.0697196  -0.4537593   0.1367649  -0.7342179
   0.3582691  -0.4434321  -0.2890234   0.1262257   0.2468747   0.0310854
   1.7262465   0.4696605  -1.7281204  -2.3767410  -0.3091856  -1.0597340
  -0.0857934  -0.1821778  -0.0766441   0.5167306  -1.0138517   1.7314374
  -1.4581247   0.6638660  -0.8520515   0.0828778   0.0530052   0.1662349
  -0.5122874   0.3151548  -1.2501870  -0.8532697  -0.9100482  -0.6040975
   0.0765086   0.0127257   0.1512114   0.5008211  -1.3486307  -1.4591053
   0.1646630  -0.6619781  -0.0336449  -0.1851864  -0.3944430  -0.0597105
   1.2566697  -0.0682567   0.8011553  -0.8019198   0.5780295   1.8421890
  -0.1716414   0.0157490   0.0062686   0.1869448   0.6596654   0.6622565
   0.0200299  -0.0947954  -0.4273409  -0.1445355  -0.2515993  -0.1385022
   0.3930422  -0.2046130   0.7601435   0.8248019  -0.9514981   0.1609378
  -0.0524508  -0.2409464   0.0228454   0.3065214   0.3979596   1.1914258
   0.1683001   1.1829846  -1.6254445   0.1667512   0.0358064   0.1717405
  -0.1837561   0.1070492  -0.1194359  -0.3552349  -1.1191579   0.2155070
  -0.1515244   0.1996908  -0.1780780  -0.2573252   0.4105758  -0.5466873
   0.9855204  -0.5166683  -0.5203961   0.1294252   0.2162952  -0.0684712
  -0.2571749   0.2856603  -0.3884442   0.8043806   0.3558388   0.4998539
  -0.1264639  -0.0890391   0.1317215  -0.7434037   1.3295079  -0.2767767
   0.6669743   0.0957404   0.5928592   0.1852737  -0.1950206  -0.0493974
   0.4284541  -0.8559091  -0.5397511  -0.4625528   0.1971361   0.4695264
   0.2075784   0.2735404   0.0815556   0.7604677  -0.7413978  -0.4168576
   0.3481093   0.2473846   1.0620487   0.1755732  -0.0139083   0.1765062
  -0.9905109   0.2024228   0.3581327   0.1173574  -0.0729396   0.3765414
  -0.4719728  -0.1241863   0.1240088   0.6939879   0.9244375  -0.9637243
   0.4754088  -1.1640346  -0.9170014   0.1234724   0.3319136  -0.0746038
  -0.4523421   0.3245859  -0.2810486  -0.7130766   0.1208215   1.2911549
   0.1891740   0.4092233  -0.3114034  -1.5192742  -0.9292600  -0.7002204
  -0.6034577   0.3613820  -0.1095080   0.4819637  -0.2538060   0.1206021
   2.1656424   0.0909546   0.8512524  -1.2556424  -0.0023610   0.6931704
   0.1150029  -0.1510173  -0.0189128  -1.2088054   0.1969753   0.2128859
  -0.6665296  -0.2239763  -0.5623677  -0.0005563  -0.1678379  -0.1240334
   1.0608927  -1.7128144  -0.5215452  -1.8166242  -0.8988339   1.2734316
  -0.0616224  -0.1543456  -0.0322877   0.2505471   1.3772567   0.7459827
   0.4414214  -0.9393078   0.7952808  -0.4852404  -0.1121111  -0.3180488
  -0.4394082  -0.3951492  -1.1505906   1.0412837  -0.5909914   0.5057418
  -0.1354368  -0.0847326  -0.3416882   0.6661218   0.6854932   0.6364317
   0.0240961  -0.2330951  -0.1064215   0.2044426   0.0300728  -0.1341529
  -1.5904376  -0.7152463  -0.1726895  -0.3273894  -0.9479758   0.2432653
   0.0087328   0.1084730   0.0121417  -0.4489938   1.3876547  -1.4265170
   0.1436973  -1.7667454  -0.0738803  -0.1431150  -0.2128137  -0.0615034
   0.3040985   0.2737526  -0.8505112  -0.2804684  -1.2139113   0.4335529
  -0.0887556   0.2530632   0.4054864   0.4849357   0.2811396  -0.8074017
  -0.1587971   0.8914705  -0.5480931  -0.1553693  -0.1060505  -0.2409236
  -0.6087049  -1.0227693   0.1960244   0.9273595  -0.0121302  -0.3920400
  -0.0914616   0.2390489   0.3394454   0.3945370  -0.2628334  -0.9070510
  -0.7510949   0.4089750   0.6827529  -0.3815822   0.1432395  -0.0950152
  -0.7051355  -0.6064565  -0.2734951  -0.9858557  -1.2486218  -0.6287821
   0.2929874   0.2433034   0.0313646   0.6438626   0.9863900  -0.6090178
   0.4722095  -1.0423579  -1.6978412  -0.2193087   0.3084880  -0.1394375
   1.1863388  -0.8860864  -0.6695297   0.2669833  -0.4768481  -0.4317777
  -0.0988810   0.1315226  -0.2222381  -0.2774957  -0.4275483   1.6416725
  -0.4332246  -1.1686748   0.0187226   0.1964165   0.0166858  -0.0098015
  -0.7312872  -0.5912398   0.7970127   0.0538241  -0.0706104  -0.3064903
   0.0126575  -0.1049456   0.1199533   0.0089812  -0.6832356   1.5738650
  -0.1513584   1.4244354  -0.0606180  -0.0705425  -0.0088101  -0.0766366
  -0.3011452   1.0978144   0.1087386   0.7726679   0.5982781   0.4662657
  -0.2335980   0.1162136  -0.1613404  -0.1405304  -0.2367150  -1.3940610
   0.1856222  -0.7174076  -0.8034003  -0.0802460  -0.1734186   0.2284266
   0.4108903   0.8206675   0.0106932  -0.5846832   0.0807178  -0.8320580
  -0.1158179   0.1345972   0.1221058  -0.0182799   0.5256852   0.1926215
   0.1792917   0.3983081   0.8509173  -0.0290933   0.0334953  -0.1090883
  -0.1749296  -1.6937002   0.2688177  -0.7551366  -0.7202488  -0.0930707
  -0.2987000   0.0801963   0.0056681   0.2571459   0.0203828  -0.6985896
   1.0419603  -0.9436013  -0.4458189   0.1491486   0.0753402  -0.3559290
  -0.6780616  -0.2558292  -0.2399162  -1.2928213   0.1585980   0.3937755
  -0.0825368  -0.2299725  -0.1758135   0.3141664   0.7952485  -0.3408617
  -1.6946224   1.6932877   1.0814217   0.1002463   0.0457102  -0.0519219
   0.6977515  -0.3651844   0.8524229  -0.1617822   0.5674342   0.7816412
  -0.3771700   0.0757154  -0.0454743   0.1363565  -0.5898743   0.0424928
   0.1320050  -1.4206538   0.4917179   0.5370212   0.3961772   0.0100349
   1.8396301  -1.3849337  -0.3719540  -0.3799161   2.2143028  -0.2397802
   0.2807330  -0.2008218  -0.2441877  -0.7172769   0.6035059   0.1046852
  -0.5512315  -0.4914556  -0.7972473   0.0919677   0.1322365   0.2627481
  -0.7253926   1.2353016   0.2765190   0.4498352   0.2137909   0.0714601
   0.0783100   0.0500388  -0.1121540   0.0518658   1.0580605   1.0217453
   0.0555533   0.7756320   0.5932596  -0.0834709  -0.2184803  -0.0020095
  -0.9417251   1.1832994   0.2994152   0.3158044   1.4377473   0.4881048
   0.1588020   0.5387348  -0.1000632   1.3953331   0.3253670   0.4881170
   0.1602528   0.0059959  -0.9134140  -0.0633123  -0.0572905  -0.0145388
   1.0012153  -0.3042435   0.8049205  -0.3258608   1.7705372  -0.3016989
  -0.2252768   0.1473485   0.0228074  -0.3766531  -0.2430171  -0.3117673
  -1.3737742   0.2840650   0.4178592  -0.0096552   0.4121952  -0.0396530
   0.0604314   0.2951759   0.2997587  -0.1853469   0.9704680  -1.0493224
   0.1129455   0.0607351  -0.0805544  -0.5059421  -1.3127266   0.7851799
  -0.5231759   0.7887853   0.4873905   0.2320650  -0.0634344   0.1548818
  -1.0349238  -0.0488199   0.2806584   0.8804535   0.1771372  -0.5252465
  -0.0820705  -0.1269623  -0.1476799   0.6838841   0.3177453  -0.0775588
  -0.6588829  -0.2136227   0.2114043  -0.0648369   0.0284368  -0.4636378
   0.9663419  -1.2797154   0.8655337   0.5157654  -0.2725828   0.2752251
   0.1148452  -0.2373593   0.5056985  -0.9983925   1.0158940   0.3806069
   0.0817353   1.5063212   0.0116094  -0.0282874  -0.0723007  -0.3767805
   0.4290130  -0.6490479  -0.7182295   0.1922202  -0.6260756   0.9035781
   0.1914706  -0.1966575  -0.0760193   0.2341275  -0.4398229   0.4522276
   0.0149155  -0.2725348   0.6815735   0.4250724   0.1609258   0.1529607
  -0.2607225   0.4031727   0.0441199  -1.2141561   0.5841884   1.1812189
   0.1366031   0.4598281   0.1186503   0.7634651  -0.5273753   1.0962811
  -0.1511568  -0.3640200   1.1953859  -0.1737222  -0.0834661  -0.2012580
  -0.2975732  -0.7704543   1.2492418   0.0476996   0.0930178  -0.1622281
  -0.0105502  -0.1822610  -0.2186353   0.1181545   1.3106593  -0.1530670
   0.3248234  -0.0657007  -1.1871100  -0.0701502  -0.1461701   0.0727478
   0.6744089   1.4561370   0.2077874  -0.8431334   0.3631288   1.3124008
  -0.0314429   0.4063370   0.0474596   0.7384658   0.1199718  -0.4567648
   1.1647551   0.0223029  -0.0143259  -0.3991143   0.1501064   0.1630507
  -0.5094832   0.6701812  -0.0142169   0.0671830   0.1734386  -1.0955279
  -0.2410448  -0.2350770  -0.0558813   0.8275017   0.9811856   1.0728471
  -0.8264195   1.0135360  -0.6707842  -0.3432146   0.2085995   0.1097019
  -1.0779118  -0.1846369   0.2894871   0.1852057   1.5187152   0.1452286
  -0.0243664   0.2024278  -0.0100870   1.9353758  -0.5009566  -0.1435796
  -0.1048451   0.1775053   0.1589446   0.0245149  -0.0434793   0.1626483
  -0.5630232   0.0736128  -0.8426742   0.8601907  -1.0286360  -0.0325811
  -0.0404955  -0.1576909   0.1362430  -0.5748604   0.9227979   0.7519506
  -0.2339139  -0.6189346  -0.3776236   0.0398017   0.0471599   0.2606538
   0.8087928   0.1673601   1.2152009   0.2921462   0.3290928  -0.6507025
  -0.1872960  -0.3372478   0.1383683  -0.1381294   0.3406448   0.8583055
  -0.7557032  -0.9445343  -0.5031984   0.0844526   0.2572041   0.0446436
   0.7949614  -0.5444531  -1.3951389  -1.4684576   1.9745549  -0.4504915
  -0.2371072  -0.1954746   0.2392957  -0.2583367   0.8055033   0.7834005
  -0.0668627  -0.4681324   1.7967991  -0.2308286  -0.1285638   0.0648115
   0.3576219   0.5249450  -0.7824137  -0.3752015  -0.8492523   0.5280879
   0.0115061  -0.3218887  -0.4836352   0.7402932   0.6890520   0.6417866
   1.0375953  -0.1519345  -1.0718485  -0.1626450   0.0531600   0.0514830
  -1.0383896   0.3079571   0.5697301  -0.0591191   0.7283122   1.0366884
  -0.0907538   0.4525946   0.1798626  -1.2009703   0.0029885  -0.1256767
  -0.9070663   0.6155630   0.2975851  -0.0847804  -0.1779961   0.1639284
  -0.2846073   0.2517408   0.3101188  -1.8961027  -1.0266868   0.4214679
  -0.0935895   0.3343727  -0.2387296  -0.6292383   0.5446072  -0.0854603
  -0.4631919  -1.5391029  -1.1605389  -0.4008913   0.0117044  -0.0813972
  -2.2587325   0.6260525   0.6934796   0.6097898  -0.1482931   1.2386365
  -0.0851372   0.1767696   0.0021124   1.2858761   0.7157973   0.8495464
   0.6949616   0.1524430   0.4735958  -0.2787950   0.2039822  -0.3802702
  -1.0445563  -0.4938122   0.0113403  -0.7897563   0.0170861  -0.7789324
  -0.4957209  -0.0775205  -0.0635992   0.6319678   0.5292222  -0.5619156
   1.4678385   0.8285831   0.0294944   0.0488653   0.0739013  -0.1263021
   0.1927602   0.1261118   1.5771345   0.1285750   1.8510744  -0.0512674
  -0.2893739   0.0086417   0.1843978   0.5812624   0.3697890   0.5507801
   0.9099228  -0.6769634  -0.5393253  -0.0224705   0.0279785   0.1066931
  -0.8710295   0.5273437  -0.1579795   0.9194507  -0.7833142   0.8711106
   0.5936316  -0.2957045   0.1458163   0.0790481   1.1069177   0.4600617
   0.8818839   0.7466675   2.1667811  -0.2620440  -0.2101157  -0.0694120
   0.3579662  -0.7041252  -0.7389032   0.4905949  -1.3847088  -0.9229644
   0.2043174  -0.0331826  -0.1740040   1.8966536  -0.0763748  -0.3420016
   0.1629656  -0.9517284   0.0428711  -0.0333161   0.0992917   0.1789936
   1.1695732  -0.0584019  -0.8616723   1.9258588   0.7115333   0.2984227
   0.3582861   0.0792176   0.1417496  -0.3846800  -0.8124728  -0.4175186
   0.8505814   0.4229719  -0.8215353  -0.0421280  -0.0339739  -0.1600908
   0.5918200  -0.1670886   0.4469582  -1.0331001   0.5186562   0.5505324
  -0.1065972  -0.0413126  -0.0476037   0.3172449   0.4334201   0.4554592
  -0.0987169   0.7568268   0.2814895  -0.0709141  -0.0414932  -0.0003149
  -0.0339566  -1.1039912   0.2774455   1.0388839   0.3836853  -0.9224287
  -0.0729607   0.0061232   0.1437579   1.3004553   0.1862286   0.3166718
   0.8224247  -0.9228665   0.1009491  -0.2136383  -0.0713325   0.0544600
   0.6788848   0.4893528   0.6742791  -0.1015580   0.5743093   1.1604979
   0.0293629   0.0370107  -0.0434397  -0.7054930  -0.9594890   0.3163441
   0.6208682   0.4993118   0.1068507   0.0483333  -0.1149726  -0.1580371
   0.9461843  -0.0649279   0.5794197  -0.6616122  -1.0734106  -0.0913297
   0.1718730  -0.2440388   0.3184518  -0.3783946   0.9591270   1.0334215
   0.7576714   0.5326755  -0.3698823   0.3080129   0.1100154  -0.0609854
   0.5331055   0.2082838   1.7408112  -0.2159838  -0.1258226   0.3620043
   0.1691438  -0.0500012   0.2154670   0.1838311  -0.3203989   0.6376253
  -0.7231961   0.8245551  -0.5051553   0.0544947  -0.3647194   0.0431094
  -1.6763290   1.7748972  -0.9304704  -0.9235356   0.1431794   1.2266671
  -0.2178016  -0.1368588   0.1395976   0.2282889  -1.3322521   1.5030948
  -0.9153032  -0.0227527   0.0126130   0.1879784  -0.0634900   0.1596951
   0.3822350   0.0985229   0.3096975   1.5155028   0.0739779  -0.2555500
   0.2179591   0.1421507  -0.0766530  -1.2092170   0.6554512  -0.0446830
  -0.8461966   0.3946322  -0.0228297  -0.2341863   0.4841082   0.0591500
   1.3700032   0.7812771   0.8393929  -0.8297660   0.4073524   0.7989758
  -0.1711554  -0.1598016  -0.1718189   0.1302120  -0.6508228  -1.1642356
   0.4175921  -0.2709233   0.5233671   0.0416303  -0.2221051   0.1162094
  -0.5048740   0.0199025  -0.9331308   0.8577567  -0.3271843  -0.2600447
   0.1874215   0.0626567  -0.0934372   0.0746948  -1.7483734  -0.6437193
  -0.0159938  -1.5214100  -1.4434858   0.0127911   0.0804042   0.2168953
  -0.1347609  -0.0637193  -1.2671667  -0.3123643   1.0804313  -0.2178863
  -0.0718616   0.0558209   0.0146459  -0.3558466   0.6925482  -0.1967638
  -0.0153214  -0.1355060   0.9300331  -0.1064326   0.1348239   0.0927709
  -0.0581310   0.1385628   0.0644889  -0.9972614  -0.3860343   1.7605391
   0.0089557  -0.1101399  -0.0210359   0.5096780   0.5753450   0.0578260
   0.4199362  -0.5954897  -0.9862968  -0.3520993  -0.2656687   0.3052574
  -0.4262023   0.3947742   0.4060004   0.8565883   0.8378839   0.0427582
   0.1722459   0.4264623  -0.0669143  -0.7440504  -0.4882579   1.1524333
  -0.1585663   0.5477627  -0.4745932   0.3232756   0.2973946   0.1091217
   0.5109560   0.5237947   0.4029960  -0.2504505   1.4719304  -0.8401720
  -0.1948325  -0.1140777   0.1822018   2.0531461   0.4831565   0.3753141
  -0.7507981   0.2378853  -1.2071181  -0.0334794   0.3123365  -0.1142563
   0.8204103  -1.0112699  -0.3792669  -0.1616786  -0.7802220  -0.7456920
   0.2679856  -0.1979466  -0.3148127  -0.1679705  -1.2669176   0.5050646
   1.5926399  -0.0136690   0.2406072   0.1372488   0.0977842  -0.1521669
  -0.0097197  -1.7355471  -0.4070159   0.4513139  -0.0218437  -0.9654395
   0.1278692   0.1437181   0.3364153  -1.2351945   1.1593643   1.2196168
   0.9917952   0.1230638  -0.2087494  -0.1062177   0.1189675   0.0440559
  -0.8655299  -0.1046850  -0.8470823  -1.3317798   0.5614683  -1.0644006
  -0.1782579  -0.0143449   0.0672754   1.0306156  -1.2876448  -0.1107457
   0.3000233  -1.1312599   0.1900924   0.1145617   0.2532068   0.0194816
  -0.0912685   0.4930215  -0.7455619  -0.5492816   0.2367823   1.1468925
  -0.1947191   0.1618629   0.0634574  -0.0950579   0.7841592   0.3679598
   0.3461691  -1.5093764  -0.6948232   0.1118485   0.0074838   0.0820436
  -0.2299703   1.1596539  -0.3902254   1.7374098  -0.6973542   1.6971060
  -0.1084741  -0.0666970  -0.1479637   0.8530477   1.4987184   0.6999535
  -0.3708467   0.1207940  -1.4246800  -0.0184453  -0.0515527   0.1093437
   1.1671161   0.3741021   1.0707297   0.3036269  -0.8360519  -0.4050696
   0.0078832  -0.2546276   0.1251572   0.5593137   0.2891482   0.6244817
  -0.4162154  -0.1640843  -0.2517980   0.0909483   0.2545387  -0.4396264
   1.0451599  -1.1064110   0.5409766   0.1033338   0.6601019   0.0227888
   0.4424546  -0.2780879   0.1513289   0.5904109  -0.1268586   0.8361114
  -0.9587986   0.0888773  -0.1294921   0.1267183   0.0266012   0.0584053
   2.2511629   0.6822759  -0.4898712  -0.8684805  -0.7268740  -0.4963719
   0.1064427   0.1738837  -0.1964931   0.0969486  -0.4342947   0.0814687
   0.6504553  -0.3451172   0.1795045   0.1973690  -0.1985793   0.1180331
   0.3465311  -0.9457872  -0.4625398   0.6942080   0.0097087  -1.1556756
   0.1394345  -0.1357593  -0.0033842  -1.1680429   1.0766702  -0.2329291
  -1.2377060   0.7417954   1.0044707  -0.2316518   0.1620117   0.0905899
   0.7503136   0.7472848   0.6183768   0.5947587  -0.3778235   0.0196248
   0.0124804   0.5621768  -0.0340136   1.0023037   1.7588215  -0.0850176
  -1.0212759  -0.3207042  -0.6392076  -0.0061964   0.2220956  -0.1082925
   0.6448880   0.4650459  -0.0838479  -1.0361626  -0.8360255   0.3226989
   0.1565316  -0.2552814  -0.0040939   0.1750238   0.5481942  -0.5704111
  -0.3147076  -0.9605016  -0.5829958   0.3564340   0.2233483  -0.0909858
   0.8891577   0.5456526  -0.3203534  -0.2814506  -0.6738944  -0.0478416
  -0.1308756   0.0173808  -0.1937657   1.1714081   1.1963387  -1.2636874
   0.2785062   0.0031021   0.6830492  -0.2680445   0.3456800   0.0131969
  -0.0789637  -0.6671991  -0.6469106  -0.7960225  -0.6790164   0.7404629
   0.0046135   0.0292379  -0.0883232   0.5020556  -0.2668502   0.2189482
  -0.4337852   0.0684738  -0.1857256  -0.2373510   0.1105519  -0.3536128
  -0.0819700   0.8126881   0.3613692  -0.1056955   0.0742963   0.9730903
   0.1872876   0.1137753  -0.3484602   1.8578339  -0.1514264  -0.2439167
   0.1223539   0.5647930   0.1143857   0.1509426  -0.0514816  -0.0945418
   0.7132175  -0.1370414   0.0548933   0.4425389  -0.4279050  -0.3979776
  -0.1207053   0.1296336  -0.0845702  -0.4198055   2.5726051  -0.4243405
   0.6385418   0.0602332   0.1432452  -0.1259242   0.4481709  -0.1635611
   0.4469757  -1.3496906  -0.5135957   0.0640782   0.4906458   0.5247716
  -0.2208398  -0.2795453  -0.0357579  -0.6243645   1.2108967   0.1496962
  -0.0854286   0.0556649   0.0822527  -0.1731641  -0.2089275  -0.0550941
   0.9709054   0.9785659   0.0991962  -0.2874178   0.2803459   1.1100114
   0.1579485   0.0341183  -0.0392827   1.0245424  -1.1973290  -0.7702193
   1.2008883  -1.1261857   0.0562029   0.1451911   0.2522792   0.0853473
  -0.8320615   1.2010309  -0.5750715  -0.7462765   0.9271133  -0.6946874
   0.0306726   0.0760714   0.3101035   1.3165608   0.4108441  -0.7693052
   0.7252999  -0.4164583   0.5530002  -0.0114033   0.2044836  -0.0234064
  -0.1564670  -1.0322333   1.3367288  -0.3759905  -0.5605710  -0.7039569
   0.3313399  -0.2718162   0.1611536   0.2583267   1.4379925   1.0842643
   0.2751515  -0.5371456  -0.3115649   0.0415275  -0.3620908   0.3169911
   0.4612358  -0.3331446   0.0120826  -0.4636218  -1.2208695   0.4034755
  -0.1502363   0.1688172   0.1607242  -0.9759704  -0.3917070   1.1358568
   0.6665841  -0.8384740  -0.1007401  -0.1194458   0.2130467  -0.0181660
  -0.4734339   0.9542031   0.9664629  -0.3798234   0.0311446  -1.4471466
   0.1987362  -0.2526545  -0.0005053  -0.5039391   0.3607220   0.1704641
   0.4474786   0.4743348  -0.4971631   0.2485442  -0.1852761   0.1429132
   0.2510397   0.1067941  -1.1711305  -1.0964022   1.6388728  -0.3037535
  -0.1434971  -0.1386763  -0.0048056  -0.5881977  -0.6221159   1.4517326
   1.2170775  -0.5031079  -0.7089977  -0.1220830  -0.1465546  -0.2788118
  -0.0532627  -0.6026196  -0.0653332  -0.1117402   0.6894477   1.3181377
  -0.4410061   0.1839299   0.4063965  -0.2892409  -0.7496938   0.0693622
  -0.0816224  -0.2739081  -0.3613460  -0.0603572  -0.1013938   0.0363776
  -0.3628473  -0.9086470   0.9794564   0.1627808   1.3615902   0.2024676
   0.0733068   0.0421697   0.1361980  -0.2968876   1.0555707  -0.0274508
   1.3132589  -0.2733293   0.4571250  -0.2638484   0.0068297   0.1691116
   0.4867143   0.5180642  -0.3891208  -0.0342541  -0.2025550  -0.3644056
  -0.1666925   0.0526049  -0.0365201   0.7003985   1.1641552   1.1839620
  -0.1749521  -1.8051379   0.5381387  -0.3479373   0.2317495   0.1077150
   0.4628327  -0.5514538  -0.4584997  -0.0697522   1.0769221   0.0940439
   0.1343424  -0.1078624   0.1941388  -1.2993033  -0.0968072  -0.5228935
  -0.2838835   1.8044875  -0.7566823  -0.0289754   0.0279158  -0.2307900
   0.4441917  -0.6035588  -1.3169392   0.0604750   0.6074207   0.0254688
  -0.2490139   0.2235666  -0.2787867   0.6630467  -0.6942911   0.0401694
   0.2089161   0.0101295   1.7644769  -0.0603392   0.0813029   0.5326497
   1.4650547   0.3458328  -0.8661559  -0.3721641  -0.4457349  -0.1468667
  -0.1807708   0.1611764  -0.2823580   0.2097883   0.0410813   0.4614927
   1.0826268  -0.6938046  -1.0639235   0.0509149  -0.4085742   0.2336947
   0.8646599  -0.7633955  -0.1050400   1.2428421  -1.1652409  -0.3767300
  -0.1880556   0.0904793   0.1741366  -0.8357592  -1.7509165  -0.4967392
   0.2429963   0.1018688   0.5098228   0.0868735  -0.3519468   0.0085771
   0.1993058  -0.0343796   1.4251960   0.4065887   0.6781444  -0.7281986
  -0.3049651   0.0244374  -0.0107408   1.2357727  -1.4069956   1.4897353
   0.9162679  -0.1468009   0.1987936   0.0516087  -0.3232666   0.0230406
  -0.0513999  -1.4120917   0.0332753  -0.3404355  -0.4988467   0.4276181
  -0.2711429  -0.0762691  -0.1351917  -0.5561253   0.0142404  -1.2689803
  -0.2049168  -1.0344163   0.6691741   0.4182295  -0.2332759  -0.2035450
  -0.6260479  -1.2320341  -0.8705357  -1.2773328  -1.1776684  -0.1316849
   0.2124630   0.0098961  -0.1997731   0.0618433   0.1993891   0.0898329
  -0.4485687   0.1452039   1.5609133  -0.0835809   0.0091654  -0.0284271
   0.4271326   0.0329910   0.0143211   0.9127556  -0.3998120  -0.6839668
   0.1551171   0.0229274   0.0437363   0.5629575  -0.0815217  -0.7530373
  -0.8902285   0.2296543   1.1929328  -0.2935489  -0.0856097   0.0609580
   0.9517594   1.3413297  -0.4910988  -0.9478301  -0.4492075  -0.1302515
  -0.0442474  -0.1459256   0.3156275  -0.1712136   0.0519968  -0.1160031
   1.5674184  -0.6355399  -0.5667688  -0.1198461  -0.1359513   0.0231389
   0.0097037  -1.3353097  -1.0904448  -1.1226731   0.2837150  -0.2363916
  -0.4563140   0.1967796  -0.0652256   1.0179991  -0.2564096  -0.3307369
  -1.4788988  -0.5413294  -0.2619287   0.0939461  -0.2668257  -0.5595160
   1.3066895  -0.8868659  -0.4022946  -0.5353276  -0.2387599   0.0438068
   0.1060838   0.1915256   0.2053506  -0.7974366   0.8912369   0.3341309
  -1.7743721   0.8816321   0.2517179  -0.1745515  -0.0408072  -0.0359498
   0.9409085   0.3222083   0.0004243  -1.7376216  -0.0120696   0.4681569
   0.0664587   0.1896656  -0.0025008  -1.1496881   0.8659954   0.4027321
  -0.4652909   0.4143511   0.3382278   0.1435823  -0.1492626  -0.2077248
  -0.7141335  -0.9919082   1.0724856   0.0796884   0.0785051   1.3884840
   0.1187081   0.0757659  -0.2175442   0.2551535   0.5579943   0.6749704
  -1.6147542  -0.6125682  -0.2575770   0.0323460   0.1007812   0.1371522
  -0.1523393  -1.2524898   1.6833021  -0.7222427   1.0698411   0.7428035
   0.0870513  -0.1103946  -0.1389709  -0.8911212   0.6372980  -0.7244197
  -0.1170999  -0.2150318  -1.8427011   0.1653147  -0.2093642   0.0658088
   0.6979031  -0.9851891  -0.2637978  -0.0874243   1.1852915   0.9311740
   0.0221954  -0.0231011  -0.1797510   0.0609975  -1.4820546  -0.1585008
  -2.2786996  -0.0916032  -1.4925074   0.0384932  -0.1533344   0.0911462
   0.9857965  -0.7071363   0.1127747   2.0400594   0.1576866   1.9084907
   0.2192744  -0.4902855  -0.1042343   0.0362168   0.5318260  -0.3193897
  -0.2878409   0.0739718   0.2055576   0.1011701   0.0677527  -0.1638318
  -0.3383324   1.0336569  -0.8045964   0.2604593   0.5863520  -0.5804418
  -0.0821049   0.0550222   0.0383034   0.3275020  -1.5410130  -2.0262973
   1.6667893  -0.4980383   0.7336009   0.0942045   0.1734631   0.1159913
  -0.3412240  -0.4173340   0.6752952  -1.3590862  -0.1899826  -0.8109952
  -0.1712180  -0.0689876  -0.2542306   0.0715536   1.5321873  -0.3010249
  -0.0201665   0.0798706  -0.5019303   0.1432498   0.2022524   0.1754231
  -0.0039659  -1.5789269  -0.2567521  -0.6001995  -0.2467983   0.9278072
  -0.0996339  -0.2451303  -0.4688511  -0.6785807  -0.0966884  -0.1338283
  -1.5844790   0.6582779  -0.0858137  -0.0803687  -0.1338162   0.2973409
  -0.2945366   0.7642903  -1.9384508  -0.5267907  -0.0438808   0.6010069
   0.0800785   0.4598837   0.1226777   0.7058943  -0.2571089   0.5614028
   0.5486872  -0.1079018  -0.2050498   0.0842379  -0.1246891  -0.1629467
   0.0129637   0.9156179   0.6255532  -0.4792262  -0.2042245   0.3156955
   0.3252693  -0.0906911   0.1867320  -0.4802645   1.3987829   0.8469988
   1.4873529  -0.1032233  -0.2455976  -0.1696475  -0.1163877  -0.1371683
   0.5854325  -0.2878186   0.1709775  -0.4756286   1.1289327  -0.1303629
  -0.2682559  -0.1111717  -0.1846404  -1.0030261   0.2594818   0.5429881
   2.0246009  -1.3353639  -0.1300300  -0.0265327  -0.2230494   0.4885272
  -0.0208105  -0.2904984  -1.0352629   0.8763893  -2.0130570  -1.6353012
  -0.2977614  -0.0398707   0.1756793   0.3253997  -0.2760199  -0.5463448
  -0.0901969  -1.3962942  -0.4038622   0.4010513  -0.0521980   0.1582470
  -0.4681975  -0.0599248   0.1625110   0.1558654   0.4396566  -0.4648297
  -0.0189762  -0.2551047  -0.3282886  -0.5401584   0.3333357  -1.2774380
  -0.3480964  -0.5564336  -0.2917579  -0.4593828  -0.0286390   0.3386782
  -0.7848645  -0.7894637   0.2266336   0.5326020  -0.2064844  -0.5721355
  -0.0083372  -0.0580284   0.0071780   0.3896440  -0.7981510  -0.5451012
   0.4129758  -0.3141308   0.4458474   0.0196693   0.0456106  -0.3628998
  -0.1721692  -0.2174463   0.0100693   1.9841221  -1.3408731  -0.7076459
  -0.2635709   0.0952529  -0.0780204   0.4181239   0.3387644   0.1684360
   1.5170079   0.3015361  -0.7045179  -0.1818223   0.2044975  -0.0227389
   0.3176487   0.3502050  -0.9613760  -0.5152793  -0.2073456  -0.3391781
   0.0780402   0.0378486  -0.1791378  -0.5174548  -0.3498949   0.3341018
  -0.7608905   0.8011385   0.3430048  -0.0914895   0.1296213   0.1324436
   1.5440071  -0.4743898  -0.1724428  -1.7444608   0.5355506   0.4628232
  -0.0385948   0.0574652   0.2487178   0.4269324  -0.1741068   0.2832525
   0.1057605  -0.0620889   0.9068578  -0.0318105  -0.0051410   0.1985521
  -0.9126720  -0.4772170   0.4961594   0.6466352  -1.5235879  -0.5247727
  -0.1082259  -0.1916444  -0.2457062  -1.0654693  -0.0202369  -0.3681434
   0.7886468  -1.0057933   1.1521611  -0.0487558  -0.0191490  -0.4346599
   0.8942030  -0.2773881  -0.3125802   0.5871819   0.1238012   0.4935896
   0.0894128  -0.1527364   0.0573246   2.0882220   0.6365750   0.8597331
   0.4065951  -0.5299736   1.1435354   0.2446015  -0.1696621   0.1276939
   2.1333107  -0.6069162   0.4754811  -0.0632863   0.4355841   0.3515677
  -0.1520964  -0.0741329  -0.0035037  -1.1918298  -0.0950892   0.7244590
  -0.6541741   0.6690107  -0.4856420   0.2824708  -0.2787403  -0.2815824
  -0.0807045  -0.0473571  -1.8787424   0.3440206   0.5306350   0.0410990
  -0.2240569   0.1365681  -0.5219758  -0.4030760  -1.3281175  -0.3634217
  -0.9667368  -0.3705578  -0.1099360   0.2011752  -0.0439000  -0.0515749
   0.0566166  -0.2813159  -0.6928578  -0.1870292  -0.6471493  -0.2693190
  -0.2162814  -0.0576977  -0.0408640  -0.2481925  -0.5762112   0.1641685
   1.5438988   0.0017676  -0.2799341  -0.0150540  -0.0617606  -0.1414512
  -0.5259311   1.2984870   0.3294493   0.9321782   0.3289138  -0.5912666
   0.3060990   0.3103750   0.0305264   0.1143625  -1.2206995   0.9456547
  -0.7323868  -0.8480390  -0.6507563   0.0252853  -0.0808438   0.0729126
   0.7003301  -0.4117062   0.7313800  -1.0030228  -0.0520371  -2.0694726
   0.1298977   0.0059444   0.0299133   0.2360877   0.7598641   0.1857479
   0.6891482   0.8449894   0.8416067   0.1580916  -0.2855135   0.2498290
   0.2805708   0.1866908   1.0206425   0.2680701  -0.6405855  -0.5548144
  -0.0045767   0.0791092  -0.1076315  -0.2121370  -0.8801644   0.1839300
   0.2513735  -0.3451626   0.3040956  -0.2151312   0.1245949   0.0446907
  -0.2901325   1.2850075  -0.4823843   0.1926157  -0.0515689   0.3261118
   0.2116788  -0.0337391  -0.0498142   0.0218676  -0.0575217  -0.1335147
  -0.9648782  -0.7396030  -0.4974250   0.0454140  -0.1392276  -0.0137105
   0.1018739  -1.1668136  -0.1070209   1.6590403  -1.6224558   0.6129403
  -0.2628046  -0.3048632  -0.0900666   0.3629355  -0.0868814   0.6120994
   1.2861760  -1.4569719   0.0928216  -0.1641933   0.0449243  -0.4910104
   1.8781877  -0.9922032   1.1192242   0.0430652  -0.5276220   0.1208134
  -0.0160403  -0.1397656  -0.0128697   0.1378322  -0.4356219   0.0196488
  -0.3125793  -0.5682905   0.2138844  -0.1017407  -0.3345334   0.1869832
  -1.7214924   0.6210630   0.0956514   0.5115416   0.4563376  -0.7826839
  -0.3202335   0.0043688  -0.0148828  -1.0845613   0.5743170  -1.0666143
   0.2652157  -0.1139866  -0.3307738   0.1990855   0.0104988  -0.3171875
  -1.1997963   0.0338782  -1.1070081  -0.2631774   0.6890279  -0.0786602
   0.1213665   0.2147071  -0.1016332   0.8758027  -1.3018501  -1.3452757
   0.3134804   0.1164103  -1.3189123  -0.0304881  -0.2848741   0.1575039
   0.0267833  -0.4931444  -0.7069002   1.1732505   0.2467371  -1.0247861
  -0.0035781   0.1380843  -0.2052714   0.3285947  -0.1256207  -0.6811230
   0.2687988  -0.6140153  -0.4501799  -0.0445688   0.0778396   0.3625211
  -1.0094357   0.6140203   0.1174831   1.0086736  -1.2359587  -0.8038717
   0.0991799   0.0615883   0.0376074   0.7334715   0.0448420   0.1716696
   0.2639206  -0.2220163  -0.4233962  -0.0161937  -0.1165196   0.2195252
   0.0769514  -0.1146666   0.5242798  -0.0956171  -0.2208685   0.1450129
  -0.1127769   0.0754488  -0.1984847  -0.0128967   0.1135193  -0.4205942
   0.8700895   0.6273571   0.8869952  -0.3218063  -0.0273730  -0.0311861
   0.4874396   1.1201784  -0.4440025  -0.6974926   0.0970334   1.1250696
  -0.0542974   0.1117401  -0.3240086   0.0062779  -1.1156623  -0.0625660
  -0.2280533  -0.0184772  -0.5450624   0.0024200  -0.2678505   0.0732296
   0.1353586  -0.8382333  -0.1785126   0.6373661   0.0971668   0.3453357
   0.1189605   0.0493038  -0.0968897   0.0155334  -0.6038631   0.5303863
  -0.1377066   0.5498183   1.4530780   0.1955596   0.2748791  -0.0426003
   0.0641303  -0.5952433   0.0941813   0.0412565   0.1643801  -0.6214071
   0.2298323  -0.0353826   0.0906476  -0.3627069   2.2850160   0.1569801
   0.1116166  -0.4112582  -0.8206164  -0.0957390   0.1995417  -0.1007288
   0.2196501  -0.4656824  -1.5826562  -0.6315373   1.1142748   0.8605454
  -0.2355589   0.0846977   0.0121126   0.2410296  -0.1056769   1.6090623
   0.2132520   0.2625458  -0.9059629  -0.2729965   0.2663200   0.1448622
  -0.1871628   0.5028900   1.6464126  -0.6301167   0.6601067  -0.1200133
  -0.1141462  -0.1121301  -0.1176646   0.1254207  -1.1791065   0.1682049
   0.8593743  -0.9616139   0.2354907  -0.2618087   0.4100345  -0.1843843
   1.2224490   0.1317381   0.2077498   0.1993284   0.8962488   0.5746181
   0.2333315  -0.2466445  -0.1013979  -0.7270660  -0.4032390  -1.3683606
   0.2623585   0.1390600   0.8851550  -0.0309179  -0.1408760   0.3146469
   0.1993859   0.7036065   0.0703802   0.9976576   0.9238369  -0.0741088
  -0.1312810   0.0042581  -0.1592242  -0.5962248  -1.1390854  -0.7357381
   0.6643201   0.5742782  -0.4105298  -0.2402659  -0.1517230   0.0763754
  -0.1269448  -1.2887781   0.0214848   0.1479230   0.1600596  -0.6770806
  -0.4642157   0.3200605  -0.2638820  -0.8957532   0.7679326  -0.8418595
   0.2740473   0.8105176   1.4525026   0.1107517  -0.2146616  -0.3704988
   1.1507752   0.1544210   1.4989288  -0.0084665  -0.0990997  -0.1786108
   0.0946087  -0.2359487  -0.2357879  -0.6121637  -0.6104486   0.3348762
  -0.4216705   0.4670068   1.0606260  -0.0457571  -0.0130738  -0.2866891
  -0.1327292   1.2691229  -2.0740014  -1.0821257  -0.0142206   0.4483689
  -0.3149511  -0.2251049  -0.0434732  -0.1603523   0.4453927   0.2696008
  -0.5789155  -0.9108312  -1.5151832   0.1687060   0.0629773   0.4039179
  -0.0544028   0.3027731  -0.4558882  -1.0268137   0.0582826  -0.9220757
   0.1210731   0.1720750   0.0598620  -0.3450246  -1.3198339   2.6999415
   0.3386759  -0.3677579   0.6514523  -0.0890959   0.0192040  -0.1447946
   0.6119904   0.0390508  -1.2235934   0.3702875   0.0262118  -1.1419404
  -0.2022301  -0.1800931   0.1085884   0.0447227  -0.7044213   0.8081761
  -0.3599689   1.7301791  -0.6120932  -0.1417065  -0.0888462  -0.5946439
  -0.4889291   0.6397859  -0.6546915   0.5913605   0.6230123   0.0540712
  -0.2399548  -0.1945107  -0.0909237   1.4341082  -1.1402692   1.7072502
  -0.0056596   0.7860384  -0.4222391   0.4671182  -0.1186469   0.1151420
  -0.0986419  -0.1789488   0.6086557   1.2836725  -0.3001390  -0.1541583
   0.0625755   0.0758861   0.0518298   0.0524625   0.1558077   0.3294000
   0.0874981   1.3384327   0.6638033   0.3798257   0.2284209  -0.1739831
  -0.2278422   0.2821969   0.5868310   0.9650215   0.0556078   0.7088238
   0.1760253  -0.1726979  -0.1577508  -0.9723068  -0.4012648   0.3779708
  -0.0949791  -0.2911868   0.7090538   0.0037907  -0.1692670   0.3948678
   0.6142715   1.4824837   1.2840711   0.4227777  -1.3065924  -0.3347381
   0.3801674   0.4202495   0.1697921  -2.1049868   0.3976394   0.8325517
  -0.5570249  -0.6857262  -0.2214248  -0.0672357   0.1291768  -0.1966838
  -0.2288553  -0.3221625  -0.2879844  -0.6149575  -0.3699644  -0.6797053
   0.0673177   0.2106329   0.1937747  -0.7045417  -1.0525160   0.6265246
  -1.0646067  -0.8630528  -0.0030280   0.2453683   0.0495464   0.2036136
  -0.9250383  -0.0835660  -0.0196167   0.4114178   0.4812910  -1.1906627
  -0.2343158  -0.1812415  -0.0806771   0.1066763   0.2773424  -1.3466188
  -0.6726636   1.0787384  -0.0399429   0.3773107   0.2102916   0.2726726
   0.6220246  -0.0955367  -0.5178212  -0.6643812   0.4836116   0.0211448
  -0.1008734   0.0054083  -0.1716555   0.8501606  -0.1373809   0.1370668
   1.5808526  -0.1079939  -0.6078061   0.3233033   0.0584373  -0.1305249
   0.4116027  -1.0216783  -1.3717310  -0.5243614   0.3306807   1.0563043
  -0.0759123  -0.0255250   0.2010969  -1.5282917  -0.7992035   0.2153268
  -0.0482723  -0.5454029   0.8429794  -0.0154629  -0.1220553   0.1023582
   0.2035930  -0.3146281  -0.6588435  -0.1231444   0.0040320   0.1452194
  -0.5151721   0.2447247  -0.0820708  -0.4905400   0.7875492   0.1138534
  -0.8669298  -0.2602022   0.9157538   0.0757658  -0.0742885   0.1850217
  -1.1374963   0.7387648  -0.3027723   0.1573398   0.8821502   0.9403683
  -0.0943114  -0.0277063   0.1392653   0.3193280   1.1221766   0.2686312
   0.7823912   1.5187369  -0.9097146   0.0625376  -0.1600764   0.0121194
   1.2159937   0.5659477   0.1425935   0.0889020   0.6149551  -1.6118361
  -0.3315551   0.1491919  -0.1554616  -0.9226769  -0.0234827   0.5689561
   0.1955126   0.7049835  -1.9352337   0.0453514   0.2512779   0.0363387
  -1.2888797   0.5271552   0.8879051   0.7267012  -0.0262215  -0.1769796
   0.0559993   0.3664353  -0.0333316   1.3566666  -0.8194579   0.7123880
   1.1473066  -0.4588634   1.0427490  -0.0456798   0.0493475   0.3455920
   0.2909248  -0.0503222   0.7208579   0.6209472   0.2171557  -1.1934871
  -0.0384549   0.2267016  -0.2479510   0.2469167  -0.9536060   0.6344610
   0.1882836  -0.3315580   0.7625110   0.3003292  -0.1927782   0.0569905
   0.3491050  -0.2688842   0.2201468   0.3012102  -0.5560400  -0.0282212
  -0.0361079  -0.1906897  -0.0550743  -0.1637211  -1.7166349  -0.0709156
   1.4771953   0.0834364  -0.2630330  -0.2210448  -0.1732135  -0.0132744
   0.6751897   0.0953657  -0.7644342  -1.3445819   0.3958637   0.1136243
   0.0503962   0.1595504  -0.0208846  -0.6108412  -0.7288519   0.8406347
  -1.7896610   0.5802783  -0.2566342   0.1893301  -0.2236884  -0.2070770
  -0.1576236   0.9318136   1.1886663   0.8985279   1.4873004   0.6494225
   0.1161244   0.0480345   0.1735112  -0.1405381   1.4972711  -0.3280472
   0.7145138  -0.8446236  -0.7835678  -0.2550402   0.0584797   0.0461676
  -0.6179821  -1.6364903   0.0008285  -0.5520628  -0.6011217  -0.0109505
  -0.2094318   0.0672149  -0.1033119   1.1088570  -0.3018498  -0.6607335
  -1.1744832   0.1344372   0.3818229   0.1712162   0.0908261  -0.2710538
  -0.1975291   1.1698783  -0.8097741   0.8230421   0.5432994  -0.0380728
   0.1298850   0.1667851   0.0582130   0.6129548   2.0424593  -1.0238232
  -2.1813163  -0.6311886   0.2010523  -0.1146594  -0.1898345   0.2988197
   0.9291164  -0.5877562   0.7715468  -0.2494859   0.4795865   0.2711618
  -0.0053163   0.2178977   0.0557909   0.6494756  -0.8671486  -0.0423973
   0.4490720   0.4566874   0.0291984   0.0373902   0.1565756  -0.3515379
  -0.1972570  -0.2580375   0.4665949  -0.8828339  -0.5183145   0.5802923
  -0.1969590  -0.2771719  -0.2007725   0.1570525  -0.5869217   0.8765667
  -0.3439232  -0.7791469   0.6972409   0.4142092   0.1663223   0.0558354
  -1.4938812   0.6983254   0.4361249  -0.1590032  -1.2519947  -0.1968402
  -0.1625327  -0.2007596  -0.1292412   1.7446607  -0.1777359   0.1862666
   0.9018033  -1.0419449   0.1444745  -0.0657008   0.1974472  -0.2690072
   0.6139840   0.2896456   0.2174281   0.4789535   0.1845386   1.0447176
   0.1637579   0.0222303   0.2089086   0.2637553  -0.3616504  -0.0720675
   0.2312911   0.5066097   0.4431172  -0.0354775  -0.3508803   0.3387557
   1.4193771   0.3121301  -0.2481496  -1.2566728  -0.4110160   0.4987660
  -0.0196944  -0.0059724  -0.0137872   0.9736725  -0.4290318   0.6041476
  -0.2282388  -0.5523655  -1.0443654  -0.0550616   0.2723615   0.0663512
   0.7141109   1.0618951  -0.2021237   0.8385644   0.4689161  -0.8343523
   0.4556994  -0.3984871   0.1083888   0.5670722   0.2541547  -0.1136909
   1.2556042   1.2889910   1.3214048  -0.2611971   0.2179470  -0.0032096
   0.5506460  -1.7009276   0.2799897  -1.8694425  -0.2136597  -0.0741081
   0.0659187  -0.3202570  -0.1514041  -1.0290341  -0.5141496   1.7398776
  -0.5012687  -0.3955851  -0.6068646   0.0396032  -0.0159507   0.0183019
  -0.0166386   0.6533710   0.1304779   0.1851598   0.3508258  -0.0888092
  -0.1023012  -0.1770378   0.1485844  -0.5733013  -0.7753266  -0.2559641
   0.6372005  -0.3847462  -0.9956037  -0.1428330  -0.2510063  -0.3625625
   1.2609554  -0.4700346   0.6398514   0.0221521   0.0764282  -0.2350758
   0.1171599  -0.1906089   0.2460819  -0.5842379   0.0966183   1.4913047
   1.3384239   0.1575748   0.6101895  -0.2076525   0.1790567  -0.2104224
  -0.1116871   0.2407442   1.5461360  -0.3187006   0.2909659  -0.5719404
   0.1076532  -0.2498040  -0.1057629   0.5893639   0.8546686   0.1579971
  -0.1996762   0.9932004   0.7340930  -0.0398686   0.3773871   0.3081419
   0.7306127  -0.0140627   0.1305601   1.1130289   0.4700740  -0.2347303
  -0.0093176  -0.2343962  -0.1273788   0.2142060  -0.5031416   1.0940521
   0.2521697  -0.2948418  -1.0149460   0.0997792  -0.0209991   0.1832195
  -0.2851754  -0.5312032  -0.1401621   1.3094554  -0.2397606   0.0798662
   0.1542788  -0.1250332  -0.0653730  -0.1627462  -0.7073625  -0.7966812
   1.5744603  -0.0062553   1.1723523   0.0740634  -0.1426314   0.1459822
   0.2775612  -0.7559212  -0.2392711  -1.2525976   1.2181029  -0.6549281
   0.0953996   0.0459700   0.2299104  -0.9138981   0.2283893   0.3481685
   0.0074123  -0.6438674   0.9610294   0.2009083   0.2501897   0.0445569
   0.6425957   1.0200765   0.0129224   0.8487903  -1.2682203   0.2027045
  -0.2116055   0.0105195  -0.0246874  -0.0322570  -0.1795447   0.9784089
  -1.3406357   0.6552874   0.7914875   0.1205668  -0.0508932   0.5021192
   0.1609994  -0.8724024  -0.2807052  -0.5507356  -0.3327651   0.0772233
   0.0362560  -0.0246074   0.4477733  -1.0690414   0.5827128  -0.4373260
  -0.0632922  -0.2876513  -0.2872418   0.1240933   0.1163621  -0.1672690
  -0.2362668   1.6881903  -0.7376259  -1.4072080  -0.6622880   0.0657637
   0.1676105   0.5055193   0.0086993   0.6230001  -1.2175765   0.2110051
  -0.2834206   1.0099891  -0.5002484   0.0233371  -0.0773286   0.0233424
   0.4341278  -0.4234044  -0.1029239   0.7610066  -0.5765764  -0.7170868
   0.2279212  -0.3207252   0.3139503   0.2816827   1.7004470   0.2723803
   0.2038122  -0.3436943   0.3985097   0.2315547   0.3084390   0.1686135
   0.6117729   1.1281424   0.4872153   1.3110911   1.1601158  -0.0635798
   0.2498287  -0.3514909   0.0147748   0.6529314  -0.3954724   0.0914904
  -0.5651231  -0.7024909  -1.0868167  -0.3645167   0.0434145  -0.3770911
   0.9616546   0.0859850  -0.8688399   0.8795592   0.5848328  -0.3469623
  -0.1512426   0.0941675  -0.0844070  -0.2329303   0.4135348   0.3328440
  -0.4799174  -1.2389042  -0.4753296   0.1995745   0.0903066  -0.2067097
  -1.3143396  -0.3322087  -0.6796805  -0.2656216  -0.1899837   0.5439071
  -0.0769761   0.0313448   0.0486841  -0.2193323   0.2624003   0.5338269
   0.7989922   0.3414795  -0.5640428   0.1440833  -0.1883945  -0.1209271
  -0.4715256  -0.7756985  -0.3539890  -0.4484559   0.3630392   0.9823842
  -0.0673014   0.0037295   0.0021443   1.1300935   1.0661877  -1.3356571
   0.2660567   0.4411054   1.5877751   0.1660304  -0.0379074   0.0932086
  -0.9079176  -0.9243393  -0.5432860  -0.1408909   0.4734024   1.7863707
   0.0850002  -0.0823099  -0.0728177   1.4555976   0.8446268  -1.0092541
  -0.5449245  -0.2568702  -0.9073656  -0.0569765   0.4106042  -0.0202889
   0.3895337   0.4176119   0.3621238   0.7155759   0.2603898  -0.7982464
  -0.1095185   0.1094141  -0.0152182   0.3488221  -0.3449541  -0.7593039
  -0.7934130  -0.0798431  -0.1646894   0.2385321   0.0064642   0.1829753
  -0.4489408  -0.0601466   0.2273086   0.1418701   0.0292133  -0.6060373
   0.1628423  -0.4260229   0.1507917   0.0539903  -0.5942648  -1.3311862
  -0.0692800  -0.5115510   0.0869527  -0.1419031   0.1451609   0.0624888
   0.0773166  -0.1072765   0.8018923   0.9453362  -1.0926632  -0.3010059
  -0.1192236  -0.2832551   0.1585532  -0.0289211   0.4206500  -0.1517418
   0.0346605   0.0494808  -1.0675721  -0.2347094  -0.3102366  -0.3221205
  -1.2811535  -0.5555018  -0.3017813   1.6269510   0.7138874  -1.3022151
  -0.3226178   0.0923486  -0.0540272  -1.0423196   0.1546449  -0.3159688
  -0.1754215   0.6515467   1.0906152   0.0429870   0.0404741  -0.1663043
   0.2307451  -0.8101723  -0.3292802  -0.1618332   1.4307002   0.2132990
   0.0428532   0.2663423  -0.0956020  -0.1918742   0.5467406   1.2361381
  -1.4331886  -0.1405735  -0.6647498  -0.3565741   0.2600230   0.4004365
   0.5151435  -0.3288216   1.4949190   0.0324532  -1.0975884  -0.0915123
   0.0755426  -0.0794519   0.0071358   0.0356599   0.7839868   0.4000938
  -0.8673072   0.7631671  -0.1900147   0.0302960  -0.2211274  -0.1335264
   1.0374295   0.9320375  -0.9436485  -1.0375498   0.2957416  -0.3955573
   0.1043531   0.0838379   0.0196222   0.0434583  -0.5384581  -0.0687757
   0.4118944  -0.7086649  -0.1111654   0.4115921   0.1311595   0.0049151
  -0.3035229   1.2407521   0.8217491  -0.5077687   0.0607406  -0.3989479
   0.2035796  -0.0925748  -0.0979245   0.6639571   0.2339146  -1.2695020
   0.7490379   0.2614756   1.3301904  -0.1393166  -0.0921352   0.1717103
  -0.3806363  -1.4428654   0.2754218   0.8047050  -0.3657290  -0.6702477
  -0.1898977  -0.4124769   0.2071253  -0.5621411  -0.8783910   1.1955415
   1.0977655  -0.5984398  -0.4947904   0.1551304  -0.1484158   0.0425789
  -1.5292188  -0.7154581   0.3673522  -0.6784506  -1.0102074  -0.4746023
   0.1597087   0.1281762  -0.0772756   0.0945436   1.3788822   0.6850826
  -1.1644085  -0.5492074  -0.3884541  -0.1346458  -0.1925634   0.0506856
  -0.3106229   1.0265949  -0.5047652   2.7421997  -0.5013401   0.4344627
   0.0089821   0.0166578   0.2920740  -0.5734107  -0.8741288  -0.7286922
  -0.4859754  -1.1598961  -0.9264599  -0.3274951   0.1127458  -0.0768530
   0.3102909   0.8079792   0.3617180   0.6198519   0.8683620  -1.0043859
  -0.0383639   0.0067351   0.1484060   0.4630061   0.5957288   0.0968026
   0.6883086  -0.0166383  -0.8470493  -0.1978864  -0.0927637   0.2258744
  -0.5309168   1.0964068   0.1393127   0.4807911  -0.1947773  -0.3773499
   0.1298685  -0.2420805  -0.4049619   0.1847183  -0.8950374  -0.0360586
   0.5621263   0.3628599  -0.4659666   0.2941949  -0.0183935  -0.1134531
   0.3611708   1.9951232  -1.1354900  -0.7319170  -1.0043894  -0.3538883
   0.0636219  -0.1468762   0.1596338  -0.6455194  -0.6246413   0.3012078
  -0.1519428   0.2997019  -0.4894334   0.3152225   0.0811912   0.1019985
  -0.0134929  -0.1901232   0.2584144   1.2709998  -0.8401942  -0.8194967
   0.2533264   0.0022717   0.1959228  -0.3790305  -0.9402955  -1.5220354
   1.1372236  -0.6772535  -1.6164566   0.0294984  -0.1200258   0.2421203
   0.6409484  -1.5550025  -1.6923067   0.6797094   1.4819284   0.2027159
   0.1011192  -0.2645455   0.2081311  -0.2791217   0.5752391  -1.1237131
  -0.2518095  -0.1136971   1.0826239  -0.1603809  -0.1350029   0.1824350
   1.1691680  -1.6276589  -0.5292461  -0.4365178  -0.4633782  -0.5405408
   0.1748829  -0.1146512  -0.1654148   0.7325320  -0.6997505   0.1317536
   0.1220060   0.0382521   0.8864504  -0.1382635  -0.0830945   0.2370708
  -0.0330029   0.5590564  -1.1060557   0.4591282  -0.7266231   0.5689440
   0.1116097  -0.3370890  -0.0678751   0.0723413   0.0793986   0.5263255
   1.4010857  -0.1149141   0.0888338  -0.0430689   0.0686833  -0.0087041
  -0.5190365   0.0965373   0.1478805  -1.8106301  -0.4583876   1.6742431
  -0.2219760   0.0085528   0.1375199   1.2895049  -0.2249710  -0.3667388
  -1.9491341   0.2483762   1.2970160  -0.0259342  -0.0721087  -0.2699495
  -0.6214852   0.8397665   0.0168511   1.0427298   0.9838476   0.1593369
  -0.1573418  -0.1377501   0.0978871  -0.5725328  -1.0805686  -0.9351671
  -0.5986197   0.0832336  -0.0799948   0.2077090   0.0086726   0.0877219
  -0.5578916  -0.1468426  -1.1314090   1.2413407  -0.6865893  -0.4795286
  -0.1248250  -0.1795665   0.1036318  -0.3909006   1.5860242  -0.3258490
  -0.6536445   0.0066112   1.1869853   0.2326588  -0.0815948   0.0157502
  -0.5720421  -0.5202101   0.4022283   0.3671097  -1.1451080  -1.0073714
  -0.3246254  -0.2315184   0.1621585   0.8671298   1.8580621   1.1285847
   0.2830376   0.3295992   0.6037644   0.0067056   0.1936393  -0.0758064
   0.9060745  -0.4981233  -0.3307212  -1.3504362   0.1409899   1.7259079
  -0.1841904  -0.0038165  -0.1100786   0.2543100   0.1328322  -0.2416841
  -0.4167693   0.3830598  -0.0699816   0.2227744  -0.0401882   0.1574823
  -0.2141812   1.1111562  -0.4331306  -1.4409242   1.3838156   0.2192746
   0.2224989  -0.1651562   0.0554996  -1.7831865   0.7160703  -0.5825365
  -0.6340174   0.4059703   1.6943174   0.0883010   0.0562099  -0.3459061
  -1.3661323   0.8010194   0.1373370   0.0647406  -0.9784642   1.1266936
  -0.1729776   0.2053484  -0.0745185  -0.1046119  -0.2220998  -0.9526894
  -0.7083151   0.6622636   0.0996794  -0.0786371   0.1481823   0.0441186
  -0.3198928   1.0669372   2.2377625  -1.0743785   0.0172521  -0.1701950
  -0.2639158  -0.6203283   0.3033101   0.2630676  -0.6345345  -0.7582562
   0.2771841  -0.0611992   0.2618880  -0.0288943  -0.0657687   0.4134416
   0.0151072   0.0322557  -1.1145556  -0.5702622   0.4387209  -1.4810626
   0.0540596  -0.0787407  -0.3074139   0.2883788  -1.0995420  -0.0879515
  -0.7129183   0.4970005   0.1116164   0.1566342  -0.3204067  -0.0649201
  -0.7539307  -1.0809646   0.6626095   0.7429576  -0.7808142  -0.0434222
  -0.0098548  -0.1476835  -0.0735358  -0.9541536   0.2861599   0.6622893
  -0.0722639  -0.8735187   0.4241193  -0.2682172  -0.1082489  -0.1771914
  -0.1723760   1.4149178   0.0641862  -0.9026323  -0.2427357   0.6650643
   0.1467767  -0.0536310   0.2745989   0.1573277   0.4048777  -0.7259505
   0.7278961  -1.8681753   0.2732240   0.1449021  -0.0911670  -0.1636822
  -0.3443479  -0.9905350  -0.5395425   0.6325719   0.8047749  -0.9470899
  -0.2095273   0.3342202   0.0009601   0.5464769   0.5604632  -0.5621151
  -0.1870715   0.8770641  -0.4727842  -0.0334391  -0.0940905   0.3236708
  -0.2235619   0.7821585  -0.9518914  -1.3543366   0.1455276  -0.4552528
   0.0254931   0.1558210  -0.2740842   0.1166370   0.9895564   0.8670658
   1.0897463  -0.2780226  -0.7837444  -0.0798154   0.0422272   0.1326575
  -1.0690759  -0.5885862   0.5267086   0.2658950   0.2199486  -0.0456448
  -0.2686921  -0.0332285   0.0243308   1.1424805   0.6022932  -0.3951484
   0.1906824   0.1267449  -1.0429573   0.1409133   0.2558977  -0.4351895
   0.2677734   1.1293545   0.4481787  -0.2957280   0.3905232  -0.9124794
  -0.1808657  -0.0407077  -0.1523465  -0.6194794  -0.0105919  -0.2137607
   0.9228057  -1.3478905  -0.4181629  -0.0751724   0.0082978   0.0156314
  -0.6162992   0.7008074   0.6688838  -1.0855841   0.4578043  -0.2395099
  -0.0097786   0.2428627   0.2846411   0.3743453  -1.1254147   0.1680231
  -0.7571700  -0.0440882  -0.2823072  -0.3556408  -0.1584560  -0.0869826
   1.0154332   0.3054331  -1.4867809   0.7252330   1.0869769   1.2999659
   0.5205144  -0.1007859   0.2125544  -0.0989879  -0.0489244   1.3250252
  -0.0182777   0.3448702  -0.4910939  -0.1993083   0.2405938   0.0412804
  -0.4503161  -0.4736927  -0.4122007   0.2357442  -0.6605486   0.2037310
   0.3273885   0.1521954  -0.1523668   0.6118321  -0.7799601  -0.2742605
  -0.7375747  -0.2741072  -0.1833348   0.1256256  -0.3839368   0.1105269
   0.4779230  -0.2060128  -0.6754174   0.0919847  -0.0413659  -0.7297077
   0.1464545  -0.0143070  -0.0126505  -2.1698569   0.7732267  -0.3835204
   0.8431548  -0.2819560   0.6220004   0.0876859   0.0925738   0.0211215
  -0.2795949  -0.9443737  -1.3019874  -0.0509137  -0.6978601  -1.3481538
  -0.1408711  -0.0817263  -0.1236103  -0.3267894  -0.6605169   1.1237519
  -0.1156991   0.3893485  -2.1758983  -0.2579149  -0.1779278   0.1202319
  -0.4995639  -0.2693837   1.3435349   0.7776320  -0.2961539   0.6404661
   0.0651846  -0.2877134   0.0353227  -1.1059777   0.3103929  -0.1710713
  -0.5654994   0.7563434   0.1996310   0.1591954   0.4212036  -0.2891580
  -0.0305545   1.1072564   0.0687598  -1.7968062   0.2838168   0.2129837
  -0.1848805   0.0713015  -0.0030207   1.9348248   2.1002790   0.5747208
  -0.9916865  -1.1936462   0.3959894   0.1315173  -0.0062476   0.1211167
  -0.2387307   0.2148665   0.2420602  -0.8387729  -0.2941017   0.1692504
   0.2270823   0.1304893  -0.2509799   0.8053629  -0.0842117  -0.6932995
  -1.7178523  -1.0382872   1.3195298  -0.4433300  -0.0560621   0.0482000
  -0.7227784  -0.0987901  -0.1019317  -1.5384865  -0.8568039   1.3584166
  -0.1764939   0.0389598  -0.0736808  -0.8278100  -0.2725274  -0.5875512
  -0.5533584  -1.6678558  -0.6824018  -0.1035341  -0.2372556  -0.0020246
  -0.3212037   0.2536206  -0.4810886  -0.8009964  -0.0862210   0.5383596
   0.0074432   0.1205155  -0.3052715  -0.4646096  -1.3261604  -0.7896510
  -0.3276693   1.2550269  -0.9306771   0.1347698   0.3543099   0.0630856
  -0.9743896  -0.2357057   0.1644458  -0.3705212  -0.5052696   1.0859882
  -0.1834397  -0.0345618  -0.1641352   0.4468153   0.3479150  -1.3071684
  -0.0304705   1.1007563  -1.0965719  -0.0428538  -0.0827412   0.1326067
   0.6818062  -0.4237651   0.9399792  -0.4779221   0.4503587  -0.6564264
  -0.0847421  -0.0499351  -0.0787714  -0.2555641  -1.0045985  -1.3719229
   0.7072266   0.3095994  -0.0502187  -0.1920517  -0.1666277   0.0718633
  -0.3061032   0.1351725   0.5237063  -0.4210811   0.4032990   0.4302343
   0.2430961  -0.0217262   0.2108047  -0.0904786  -0.5558507   0.2013730
   0.2476622  -0.4672258  -0.5510528  -0.0810943  -0.3970277  -0.0086590
  -1.7987702  -1.1125458  -0.5107785  -0.9699310  -0.8331765   0.2583817
  -0.1439510   0.0697967   0.1029738  -0.2296997  -0.2035697  -0.8341350
   1.1727216  -0.1443510   0.2669338  -0.1568823   0.0725928  -0.0694141
   0.6050594  -0.6436829   0.3821016   0.4092404  -0.2942261  -0.1216938
  -0.0872969   0.2774481   0.5643842   0.2463642  -0.2775072  -0.0283626
  -0.9660654  -0.4590439  -1.1884502   0.0897377  -0.0988274   0.0048701
  -1.1303174   1.1341392  -0.6804293   0.7820842  -0.9994946  -0.0155270
   0.0010993  -0.0195177  -0.1252886   0.0956491  -0.6390941   0.7935916
  -0.1185917   1.2932378  -0.1041785   0.2496628  -0.0735865  -0.0324646
  -0.4715606   2.3392619   0.1662663   1.1106544  -0.1462380  -0.0014085
   0.1003745  -0.0569094  -0.3486482   0.1764776  -0.0435592  -0.9646099
  -0.7611335   0.1586466  -0.2909099  -0.0172996   0.0438455   0.2320021
  -0.0085850   0.8048534  -1.5491487   0.9031425   0.3045271   0.0183915
  -0.1085060  -0.0060703  -0.2645371  -0.3340639   0.1387161   0.9249795
  -0.0162670  -0.2789179  -0.8312393   0.2528441  -0.0159609  -0.0385508
  -0.4480334  -0.0077620   0.6877024  -1.0528676   0.2642116  -1.1339283
   0.0993829   0.1342434  -0.0376102   0.7793085  -0.6419942  -0.8077550
   0.5201534   0.1065055  -0.6849036   0.1502813   0.2764126  -0.1289933
  -0.0507584  -0.6286703  -0.3048828   0.0663457   0.2954876  -0.1328901
   0.3723120  -0.3254657   0.2025234   0.4053941  -1.9614852   0.7133366
  -0.2682501  -0.7494575   1.2555009  -0.0210497  -0.2186118   0.0376505
  -0.7148689  -1.8537245  -0.8387362   0.7660711   1.4041342   1.1278187
  -0.1329457  -0.3112771   0.2332418  -0.7770223   0.5789580  -0.0497128
  -1.0124629  -0.8751227   1.1668669   0.2060870   0.2420583   0.0301002
   0.3290221  -2.5484291  -0.2933426  -0.1531848  -1.0306990   0.3443450
  -0.0552985  -0.1410458  -0.1279617   1.3614510   0.0174097  -1.3646659
  -0.6954140  -0.6884276   0.6556254   0.0939332  -0.1704627   0.0771445
   0.4933949   0.4961644   0.1828355  -0.4778570   0.6533525  -0.3867156
   0.1138647   0.4557442  -0.3328267  -0.9876700  -1.6570208  -0.7618052
  -0.3256074   0.5319253  -0.1057983   0.2201395  -0.2138322   0.2019713
  -0.5094057   0.4233561   0.2837184  -0.3068767  -0.0564616   0.4623721
  -0.0658228   0.1203081   0.1075489   0.2554416  -0.1945054  -1.0363563
   0.9314326  -0.3338842  -0.3728813   0.2063859  -0.1047078  -0.1565260
   0.1180089  -0.0896820  -0.9263210  -0.4414392  -1.8075116  -0.9618135
  -0.1239123   0.0850666   0.1315841   0.0062709   0.8198335   0.7176266
   0.5966418   0.8443848   0.8259201  -0.4126238  -0.3512921   0.1099247
  -0.5894958   0.8742671  -0.1783820   0.6968322   0.8820460  -0.3825899
   0.1723926  -0.1216332  -0.0787025   0.0824945   0.6984163   0.0462151
   1.1652215  -0.3457218   0.4397567  -0.2069714   0.1987349  -0.3477423
  -1.1416745  -0.7134525  -0.5027183  -1.1477428   1.0805062   0.3259884
   0.1885848  -0.0606079  -0.0681446   0.3930406   0.2603803   0.6119984
   0.2938146   1.2896598   0.7701025  -0.2584212   0.0202311   0.2457874
  -0.7478794   0.1701094  -0.4279950   0.1979108  -1.3775858  -0.6132350
   0.0707370  -0.1206227  -0.1330566   0.4746052   1.1264585   1.7582706
   0.0683493   0.2052503  -0.1614179  -0.1522712   0.0417513   0.2897888
  -0.5210583  -0.6830171  -0.1784970   1.4203854  -1.6772949  -0.4291608
  -0.0577739   0.2754896   0.0229694  -0.4701155   0.4247193   0.5459554
  -0.1405644  -0.0230031  -1.0709456  -0.1533439  -0.1699835  -0.0851532
  -0.0584794   0.0414714  -0.3658123  -0.4958347  -0.3075198   0.3334518
  -0.2980764   0.1445511   0.0320085  -0.3300796  -0.8782978  -0.9681200
   1.3563339  -0.5100742  -0.2398901   0.0071835   0.0129902  -0.0932080
   0.7176765  -0.6188545  -1.0872717  -0.7996857   1.2163705  -0.1365407
   0.2458790   0.3763381  -0.6886896   0.5876317   0.6219190   1.4215036
  -0.0481130   0.4206637  -1.2569677  -0.1002592   0.4087215   0.0019379
  -0.0432103  -0.1447741   0.6820111  -0.3270735   0.2277370  -0.0752862
  -0.2090750  -0.1223089   0.1068106  -1.0309673   0.3791461  -0.2282816
   0.1040709  -0.2812714   0.0654057   0.1019721   0.1530582  -0.1483083
   0.4120775   0.8936702  -0.7921197  -0.8333595  -0.6401009  -0.0664021
   0.1252635   0.2782090  -0.1706758  -0.0351908   1.3070927   0.4642242
  -0.4146679  -0.5196122  -0.8366815  -0.0876686   0.0250782  -0.1539593
  -0.1857947  -1.3546948  -0.8508459   0.5810592   1.9322382   0.9288624
   0.3534416  -0.2405767  -0.1146659   1.0882707  -0.2157476   0.2375064
  -0.7136724   0.8110393   0.6773644  -0.1983746   0.0378107   0.0663950
  -0.1020002   0.3992020   0.0230099   0.7267041  -1.0567763   0.0992908
  -0.0306014   0.3595777  -0.0906653   0.1625383   0.6137882  -0.9914877
  -0.2193242  -0.5866235   0.7026432  -0.0817024   0.1504093   0.0765658
   0.6309577  -0.8641728   0.0054583   0.6052651  -1.1276259   0.2288420
  -0.0320352   0.1321731   0.2069903   0.0021396   0.0149267   0.0002116
  -0.8692657  -0.1603369  -0.5000839   0.0631525  -0.1579232  -0.3354138
  -0.1149077   0.3823107   1.5488237  -0.7196600  -1.3347042   0.9802657
   0.0953121   0.2641218   0.1954863  -0.0841908  -0.4637622  -1.5969791
   0.4499498  -1.6904523  -1.7597069  -0.3257566   0.1064880   0.1345945
  -0.3491757   0.5396172   0.4115690   2.0791772   0.4898760  -0.2245247
   0.1603511   0.1815262   0.2897764  -0.8394694   0.9749982   0.5615814
  -0.5342940   0.5489992  -0.4810476   0.0053330   0.0528334  -0.0840092
  -1.2188064   0.4720752   0.6711216  -0.6927528  -0.4066990  -0.2680056
   0.0084400   0.3014188   0.3999685   1.0588830   0.2315836  -1.2765819
   0.6754330   0.4120261  -0.1464347   0.1655013   0.2323546   0.0499427
   2.7136168  -0.5207968   1.7402788   0.1575907  -0.4485894   0.6961694
   0.2742325  -0.2480135  -0.3647316   0.2022822  -1.2479162  -0.6621705
   0.8440228  -0.0486104   0.3252221  -0.2809749  -0.0903242   0.2529942
   1.0591015   0.3357165  -1.4470450   1.1394657   0.8330059   0.4870513
  -0.1938103   0.1186686  -0.3894887   0.6102498   0.6182814  -0.2704450
   1.1129051   0.4843413   0.0595012   0.0330400   0.3671458  -0.1823645
   0.5281116   0.8212998   0.2809967   0.0980500   0.8607177  -1.3153331
  -0.0361630   0.1121110   0.1268080  -0.1370794   0.4071453   0.5109722
  -0.4576603  -0.0589473   1.0409500   0.0435537   0.0284580  -0.0670872
   1.2261933  -1.5482083  -0.0004746  -0.4768783  -0.7161564  -0.0227073
   0.2580918  -0.0276736  -0.0071925   0.5783613  -0.1431874  -1.4674135
   0.0721371   0.2849196  -1.0995946   0.0849175   0.2929804  -0.4248690
  -0.4534052  -0.0778440   0.4176225  -0.8721990  -0.8078871   0.6109552
   0.1507456  -0.1516511   0.1228223  -0.1440799   0.8677880  -0.6262005
  -0.3436319  -1.0549660   0.8638267   0.3381276   0.0000924  -0.0293297
  -1.0724171  -0.1992472  -0.2839205  -0.3857970   1.9599516  -0.0933391
  -0.1536164  -0.3034594   0.0793297  -0.3308830  -1.3686019  -0.2168374
  -0.7562495  -1.9164596   1.1088773  -0.2906089  -0.1032774  -0.0174374
  -0.3573156  -0.2322783  -0.5440788  -0.3238938   0.4573920  -0.1948442
   0.0782751  -0.1329126   0.2702414  -0.3490937  -0.4948409   0.2876868
  -1.3731727   0.8721962   0.2121646  -0.0333135  -0.1184519  -0.4116571
  -0.3073603   0.7399155   0.8140511  -1.2415254  -0.0097769  -0.0681802
   0.1935994  -0.0981956  -0.0761249   0.7728802  -0.3174303   0.1602015
   0.7403969   0.4466088   0.2026393  -0.0061581  -0.0661590  -0.1796855
   0.6726925  -0.4278706   0.9272892   0.5531230   0.3118327   0.8664522
   0.1474172  -0.0269972  -0.3386467  -0.8853665   0.1595941   0.2514032
   0.6685113  -0.2528356   0.6834506  -0.4883210   0.0173353   0.2642584
   0.4325882  -0.2017807   0.4775971  -1.3357660  -0.3775575  -0.2688425
  -0.1193525   0.0546837   0.1107240   0.2342781   0.2320361  -1.0974288
   1.1443447  -0.4038104   0.0507254  -0.0219356   0.1115899   0.0087957
  -0.6358078  -0.0364968  -0.0024680  -0.5312693   0.2449580  -1.3515121
   0.1704806  -0.1929729  -0.0833521   0.4496061  -0.7300359  -1.1280359
   0.0398218  -0.5325076  -0.5796216   0.0437504  -0.0938241  -0.3446949
   0.4354961  -0.6815127  -1.1441634  -0.0110545  -0.5201792   0.8722284
  -0.2297319  -0.1243523  -0.1174710   1.3051234  -0.2859190  -1.2566142
  -1.1206963   0.2406988  -0.2780687   0.2861228  -0.1209659   0.2434633
  -0.5279936  -0.3858148   1.1836922  -0.5638124   0.5950071   0.7821429
  -0.0317585  -0.1544240  -0.2182251  -0.7170615  -0.4168767   1.2209932
   0.6510236   0.4134054   1.0099051  -0.1724273   0.3103235  -0.0313649
  -0.2058469  -1.3437581   1.4943284   0.7118817  -1.4729500  -0.4346956
  -0.2400045   0.3372041   0.2807379  -1.3788201   0.0125705   0.0016022
  -0.2872408  -0.2740878   0.9913404  -0.3397076   0.1549882  -0.1007647
   0.1588675  -0.9369698   0.6878634  -0.1221983  -0.3190032   0.6498114
   0.1190505  -0.0683993   0.4409239   0.6672907  -0.0427114  -0.0390312
   1.2033754   0.3044117   0.4218775   0.0178360  -0.1322956   0.1749840
  -0.9121535  -0.4930361  -0.6382727   0.7313383  -1.4701364  -0.2241462
  -0.1737569   0.2180780  -0.0526719  -0.0309242  -0.2556709   0.5443792
  -0.5068334  -0.4153081   0.5175557  -0.0659865  -0.0637711   0.2388441
  -1.1815230   0.4739885  -0.4384827  -0.1957591  -0.3731997   0.3179829
   0.1733218  -0.1363388   0.2671136  -0.4043662  -0.9547157   0.3803575
   1.2159698   0.2505083   0.1339264  -0.3412146   0.0474419  -0.1081934
  -0.0103835  -0.5207665  -0.0498186  -0.1407326  -0.8609367  -1.0233237
   0.2155973   0.0392858   0.1220455   0.1416749   0.1013187  -0.9048424
   0.8401751  -1.4156585  -0.3004118  -0.0114956  -0.2235005  -0.3401423
  -0.6987457   0.9461868   0.3900088   0.7291221  -0.6197039   0.5208071
   0.2674603   0.4423208  -0.2090593   0.1827985  -1.1917587   0.0019065
   0.1938941  -0.2455301   0.7085890   0.1208625   0.2033436  -0.0065219
   0.5234347  -1.8646377  -0.3644740  -0.0038416  -0.2677810  -0.1726283
   0.0586571   0.0823363  -0.1751274  -0.0108357  -0.6603182  -0.9128815
   0.7549626  -0.2575346  -0.0677957  -0.0309365  -0.1475304   0.0855344
  -1.1716680   0.0459098   0.4394020  -0.2560317   2.0908360  -0.8536387
   0.0686672   0.2932041   0.1339000   0.3069295  -0.7510969   1.0260883
   1.9081467  -0.2091543   0.5924331   0.2605981  -0.0479777  -0.1295218
   0.1251719   0.3039316  -0.2058125  -0.6707911  -1.5974270   0.4678976
   0.3052968   0.0961487   0.0733551  -0.2179854   0.7122947   1.1100716
   0.7728980   0.0672190  -0.3629485  -0.0479308  -0.0600834   0.2594180
   1.8484020  -0.3039144  -0.4154257   1.6271808  -0.6242907   0.0046581
  -0.0135087   0.0618884  -0.2089547  -0.5424074  -0.4529309   1.1946528
  -1.5174796   0.5635284  -0.6754621  -0.0283598  -0.0633423  -0.2251396
  -1.6547733  -0.1587340   0.4156637  -0.3218239  -0.6769393  -0.8161317
  -0.0026709  -0.1046398  -0.2431819  -0.2133759   0.7420128   0.0528761
  -0.8452062  -0.7056871   0.5570997  -0.1989862  -0.1515947   0.1711092
   0.4075817   0.3040098  -1.2751300   0.4561987   0.0172321  -1.5626026
   0.0635023  -0.1689014   0.2722911  -0.1744415  -0.4602543   0.0085358
  -0.6595276   1.2327243   0.0040616  -0.3501742   0.1518406   0.1283525
  -0.4162958   0.9103591   0.2460568  -1.8134136   0.5819916  -0.3805580
  -0.2568039   0.0251795  -0.0824258  -0.4370989   0.8995078  -0.6098853
   0.0778737  -0.3337052  -0.1715708   0.2693819  -0.2006697   0.0871528
   0.8189844   0.8538124   0.8575304  -0.1975663  -1.5506906  -0.2958101
   0.0774457  -0.0236384   0.1422561   0.9790212  -0.1899154   0.4891224
   1.0382850  -0.3978633  -0.3163071   0.0799910  -0.1382808   0.0898957
   0.5050166  -0.7558127   0.3166657   0.0739031   0.4515687  -0.2625673
  -0.2529458  -0.2128656   0.1013459  -0.4585530   0.1917356   0.8191864
   1.2267194   1.2366706  -0.6746129  -0.4262108  -0.1708227  -0.4722558
   0.7783567  -0.2494846  -0.5524834   2.1166267  -1.4042898   0.0417425
   0.1885298  -0.0976259  -0.0606643   0.4978665  -0.2271543  -0.2771342
   0.9786424   0.2440065  -0.4283960  -0.2306652  -0.0525863   0.4530242
   0.0274662  -1.1408728   1.6368789  -1.5462803  -1.2222959  -0.0916515
  -0.2521473   0.0189349  -0.3424007   0.2357929   0.2504984   1.5995007
   0.1972226  -1.7357715   0.6920453   0.0896165   0.2474314   0.1122621
   0.2120902  -0.3764681  -0.8037711   1.3615329  -0.8239384   0.3774575
  -0.0406414   0.0999065   0.1644133  -0.1766791  -0.5180918   0.6720758
  -0.9192645  -0.8684438   0.0399295  -0.0667331  -0.1579581  -0.2969367
   1.4620860   1.8474406   0.6576584  -1.3851142  -0.1052198  -1.2289103
  -0.5485359   0.1783379  -0.1436400  -1.3596177   0.1179178  -0.8826060
   1.0285768   0.8698727   1.1121672  -0.3683069  -0.0105345   0.1214473
  -0.7072134  -0.4421880  -2.2058852   0.4038015  -0.1805224  -0.3061051
   0.1617302   0.0397885  -0.3038895  -0.2153932   0.2125356   0.0040950
   0.5301891   0.5313267  -1.2212166  -0.0160670  -0.2797133  -0.0527955
  -1.3909133  -0.2029310   0.9386280   0.8619501  -0.3117391   2.0641090
   0.1074955   0.1267356  -0.0258246  -0.2516169  -0.0097042   0.4505154
   0.1595257   0.9762391   1.2352844   0.1305269   0.2145068  -0.0031553
   0.0318270  -0.6671932   1.2470172  -0.1245277  -0.4731748  -0.1909514
  -0.0490880  -0.2162506   0.0100350  -0.0840664  -0.7590427   1.1615020
   0.5776659   0.7219313  -0.5324220   0.1016260   0.0457325   0.0969022
  -0.2431943   0.4577371  -0.3395528   0.1371542  -0.7974408   1.3667250
   0.0659513  -0.0977263   0.0293699  -0.6291880  -0.3205776  -0.0601806
  -0.3176414  -0.1034811   1.7781798  -0.1014603   0.1477501   0.1154821
   0.5535453  -0.7770288  -0.5246183  -1.5559227  -0.2913269  -0.0851140
  -0.0745310   0.1398043  -0.0876718   0.2877373   1.9665834   0.7817681
   0.2550854   1.7968900  -1.2008362   0.4618135   0.0866293  -0.2239068
  -0.6525272  -0.3489296  -0.3943630   0.7735994   0.9539824  -0.0504908
  -0.2784555   0.0301537   0.2185446  -0.6668868  -0.7038795  -0.2718871
   0.5434568  -0.3177389   0.4413271  -0.0111404   0.2474215  -0.1519032
  -1.9362725   1.0138260  -0.0201107   0.2227514  -0.9375343   0.7293665
  -0.1207998   0.3565435  -0.2029890   0.4065034   0.7994166   0.6832563
  -0.3458541  -0.1092599  -0.4072935   0.5938077  -0.0942450   0.2004065
   0.4181343  -1.3629704   0.2632674   0.6206602   0.5550917  -0.0374344
   0.0581429   0.0382067  -0.1632722  -0.6276392   0.3443025   0.0960861
  -0.1408941   0.2978876  -0.6647745  -0.2028953  -0.1297046  -0.0195006
  -0.8710352   0.0842360   1.1295513   0.0203786  -0.0231098   0.9195895
  -0.1301729  -0.2223680  -0.3716978  -0.4176894   0.6442389   0.7341600
  -0.2114253  -0.3216655   0.2449995   0.0016676   0.1263488  -0.0142507
   0.9765945   1.1945673   0.2205419   0.6130075  -0.6549298   0.2670775
   0.1757831  -0.0887266   0.0387169  -0.9037647  -0.8760675   1.3765076
   0.0359931  -0.7508019  -0.7825397   0.2009102  -0.4611142  -0.3612878
   0.1249515   0.4685482  -0.3792171  -0.5674042   0.4786587  -0.1082526
  -0.2092163   0.0326506  -0.2111603  -1.0148218   1.6663800  -0.1624222
   0.2102123   0.8022562   0.1112803   0.0672927   0.2912520  -0.1057026
  -0.9465120   0.9038214   0.1029790   0.1458944   0.7126339   0.3465244
  -0.2837564  -0.0469076   0.3044267   1.5398063  -1.4730291  -0.2444331
  -1.4122416   0.7027515  -0.9045950  -0.2324449   0.0013782  -0.0382769
   0.2262069  -0.4733880   0.1363673  -0.9003913  -1.9225443   0.4621273
   0.0606093   0.2053032  -0.2906782   0.1236554  -0.0998261  -0.2937104
  -0.6556252  -0.8471064  -0.5947726   0.1338593  -0.0748567  -0.2829466
  -1.9929069  -0.2921694   0.1876163   1.4259981  -0.2185232   0.7964612
  -0.1903257  -0.1728381  -0.1807977  -0.2193626   0.9784640  -0.0871456
   1.4600646   0.5968049  -0.5316091  -0.2481342   0.1041840   0.0900213
   0.3101959  -0.3310089  -0.3608798   0.7024246  -0.6422896  -0.9604736
  -0.3226710  -0.5864615   0.4779182   0.0362384  -0.1855370  -0.0051677
   1.5043406  -0.6922616   0.2896687  -0.3715466   0.1641570  -0.2080385
  -0.5545175  -0.7716738   0.3173194   0.6338468   0.1074614   0.4629265
   0.2338140  -0.1604391   0.2251356  -1.5092377   0.2876128  -0.5311367
  -0.2717882   0.7949747  -0.0245303   0.2305867  -0.0428936  -0.0686010
   1.2212561   0.5468747   0.6204046  -1.4032231   0.8067761  -0.4392552
  -0.4492092  -0.2536763  -0.0232758  -0.2194746  -3.4705587   1.1172808
   0.1084601  -0.2347556   0.0439747  -0.0352418  -0.0230390  -0.0238308
  -1.6937820  -0.0171012   0.8554137  -1.1113031   0.6888376  -0.6352018
  -0.0355703  -0.1963824   0.0879188  -0.2134312  -0.3874995  -0.9075031
   0.8101300   1.5237456   1.0579932   0.0949758  -0.0481893  -0.0405117
   1.9651502   0.9912152  -1.0582794  -0.5187173   0.6356515   1.2684962
   0.2195348   0.1742221   0.2041675  -0.5689268  -0.7780907   0.4477418
  -0.1043844   0.5950647   1.3105815   0.1716143   0.1720360  -0.0894180
   0.7784535   0.4459913   0.1769563   0.9148609   0.9683735  -0.1372127
   0.0107877  -0.1550114   0.0340982  -0.0621917   1.2248767   0.0680049
   0.9099088   0.1521442  -0.6039155  -0.2974919   0.0224180   0.0508130
  -0.2121530  -0.7534151   1.4452631  -0.2657498   0.7609399  -0.6672092
  -0.1174619   0.2870985  -0.0807540  -0.5658778  -0.7000371   0.9314751
   0.4628715   0.1901923  -0.6602070   0.0686545  -0.2266553   0.0322272
   1.1905207  -0.1045601  -0.2255761  -1.3522623   0.8333216  -0.6367311
  -0.0117651   0.0891570  -0.2910738  -0.4395963  -0.7709597   0.1832400
   0.1527331  -1.0010573  -0.3869901  -0.0275224  -0.0104230  -0.0980364
  -1.2138127   0.6617612  -0.6350989   1.5707002  -0.7179645   0.6867840
   0.1189367   0.1013010  -0.1539908  -0.7367175   1.7808804  -0.2133786
   0.1462240  -0.4219362  -0.5943334  -0.1587713  -0.0065474   0.0982280
   1.4147134  -0.8391602  -1.3720376  -0.5655054  -0.1397465   0.6152400
   0.0095503   0.0376175   0.1675865  -0.8866687  -0.7867676   0.7933183
   0.0084453  -0.3832314  -0.1498943  -0.0389613   0.0486839  -0.1186401
   0.1113743  -0.1448300   0.8115915   0.2414557   0.6716974  -1.5698711
  -0.1776578   0.0005986  -0.2380915   0.2916580  -1.1515714  -1.2090078
   0.6557445  -0.2233278  -0.2101998   0.3200982   0.1955871   0.1839221
   0.6297504  -0.8782119  -0.5663660  -1.3780628  -0.4505656   0.5196768
  -0.0348125  -0.1293899   0.0869550  -0.1726620   0.6096192  -0.0811631
   0.3374292  -0.2632414   0.1223866   0.3144292  -0.1177150   0.1967868
   0.2529406   0.4771404  -0.6537064   1.5180150  -1.3803490  -0.4128023
   0.1043417  -0.1123764   0.3916791   0.0201178  -0.8358385   0.1883764
  -1.0730089  -0.0038356  -0.9639886  -0.2658173  -0.1684215   0.0293465
   0.3641760   0.2911323   0.1087290   0.0005398   0.4810986   0.5778286
  -0.1284825  -0.1266191  -0.0375269  -0.4325319   1.9750485  -1.0848951
  -0.8196051  -0.2060871   1.7796745   0.0622246  -0.1974473  -0.0619159
   0.0668989  -0.3524967   0.2308670  -0.2257600  -0.0413871   0.2539135
  -0.0983687  -0.2065597  -0.0606781   0.0439145  -0.7376293  -0.2798149
  -1.0380788  -1.6686459   0.5560903  -0.0818891   0.1716439   0.0226376
  -0.3844423  -0.1522846   1.1816062  -0.0849298   0.7204137  -0.3625698
   0.0766187  -0.2115397   0.0554052  -0.8703011  -0.4590351   0.8990142
   0.6122545  -1.1323639  -0.0167120   0.0842051  -0.1893311  -0.0697556
  -1.0971271  -0.8410974  -0.0106909  -0.5654352   1.2231628   0.8734133
   0.0197055  -0.2703032   0.0292294   0.9183301  -0.2887429  -1.2145763
  -1.3777100  -0.1502022  -0.0727321   0.3055063   0.3439666   0.1681323
  -0.3258335  -0.1158856   0.2060791  -0.7966863  -0.2666950   1.4335159
   0.2238308  -0.3571669  -0.3518839   0.5932083  -0.9998273   0.5179062
  -0.0295787   1.3333818   0.0367319   0.0289561  -0.1350793   0.2733246
  -0.5724427   0.8157587  -0.3744719  -0.8546315  -0.4717226   0.2408402
   0.0941859  -0.1354608  -0.2788917  -0.8073757  -0.1343823  -0.1923019
   1.3084757   0.3741213  -0.0465732  -0.0084909   0.1976908  -0.0571229
  -0.0854628   0.7257578   0.2542317   1.1562522  -0.4149845  -0.3485188
  -0.1115456   0.0521123   0.0709386   0.4790651  -0.3215918   1.0339083
   0.1172481   0.1174352   0.1129776  -0.1117283  -0.0227559  -0.0930021
  -1.6043925  -1.8655340  -0.0034854  -1.5101036   1.1649024   0.8891596
  -0.1997878   0.5855305  -0.0417419   0.5867197  -0.0614695  -0.0736730
   0.0885421   1.3302682   0.7761204  -0.3615934  -0.2869565  -0.1737579
  -1.1337361  -1.4262186  -0.6427534   0.0834547  -0.5387888   0.7333404
  -0.0653380  -0.0840974   0.1767785   0.2040292  -2.0505835  -1.9992099
  -0.2294817  -0.8690569   0.6518586  -0.1141765   0.0522198  -0.2328141
  -1.0082540   0.1043361   1.3308308   0.8052457   0.3350674  -0.6098961
  -0.1986446  -0.0003127   0.1671957  -0.6919417  -0.4780437   0.2340087
   0.0439007   0.8855307  -0.5664796   0.2342338   0.1452901  -0.0087590
  -0.9233719   0.9689737  -0.1710827   0.6467910   0.9069183  -0.4705901
  -0.3432873   0.2831523   0.0166381   0.6217701  -0.6184241  -0.7783257
  -0.5059908   0.0027273   0.8795299  -0.1694575  -0.0525498   0.1825261
   0.4078496   0.1787232   0.5906811   0.2549231   0.2828524   0.2023581
  -0.0263151   0.0200599  -0.3388606   0.5710030  -0.8767125   0.2336980
  -1.0939930  -1.8335831  -0.2917857   0.2231271   0.0384682  -0.2369679
  -0.0012966   0.5986414  -0.1568880   0.3793795   1.1150095  -0.6293984
   0.3026942   0.2038477  -0.1760116   0.3420512   0.9732771  -0.3560393
   0.0344168  -0.1467890   0.5488298   0.0547452   0.0926268  -0.0572904
   0.1425958  -0.3182684   0.1927098  -0.5784566  -0.0430457   0.1861656
   0.2605475   0.2598460   0.1108601   0.6754244   0.3926547   0.2592616
  -1.3098361  -0.5295684   0.6885240   0.1726033  -0.0327021  -0.0986516
   1.4204057   0.8660340   0.2296420   2.2594300  -0.3944849   1.4034135
   0.0215629   0.0186235  -0.1291066  -0.0274766  -0.2550099   0.6618158
  -0.7488650   0.6022607  -0.5864884  -0.2801728   0.1164105   0.0722944
  -0.7794041  -0.6645341   0.2709995   0.1949700  -0.4264846  -0.4681439
  -0.0726925   0.0524425  -0.0716622   0.4110869  -0.4015036  -0.8860390
  -0.5639936   0.4470852   1.0239946  -0.0554045   0.0877193   0.2136664
   0.4065590  -1.1807878   0.5353520   0.5109994   1.4139731  -0.6432048
   0.0407243   0.1630674  -0.0741577  -0.6791285   0.1785161  -0.6365959
  -1.1308956   1.1566424  -1.5412729  -0.0539112  -0.0148365   0.5023330
   0.0475446   0.3296098   0.4700137   0.0411790   0.5890592  -0.3174382
  -0.0229546   0.0285252  -0.1405100   0.7104786  -0.2237871  -0.1954776
  -0.8728315  -1.1007690   1.2832622  -0.0809563   0.1196738  -0.3144907
  -0.0171205  -0.7791521   0.2318814  -1.5682078  -0.2906893   1.1040840
   0.1544305  -0.4548114  -0.1746137  -0.8161130   0.4216190   1.2655813
  -0.7370496   0.5850809   0.3476231   0.1175083  -0.2537742  -0.0353264
  -0.5721165  -0.0532022   0.3138988  -0.8284965   0.7372367   0.3931383
   0.0165263   0.0708919  -0.3924188  -0.8251252   1.4341545  -0.8540097
   0.0945787   0.4123679   0.4175115  -0.0777082  -0.2656577   0.0019228
  -0.8227648   0.5476973   0.1889409   0.1574456   0.3964013   0.5821651
   0.2876689   0.0605142  -0.2215375   0.7423557  -0.7139986   0.2879288
   0.3672345   0.1325794  -0.3717975   0.2060979  -0.1792062   0.0006506
  -1.5590406  -0.6179667   0.6777821   0.7365145   0.8119769  -2.7901668
   0.1244239   0.0792483   0.1817537   1.3316472  -0.5472584  -0.7229322
   2.3234030   0.6202341   0.3757718   0.0658731  -0.1839651  -0.1707875
   0.6432827  -0.7327423  -0.2112339   0.1122616   0.1090066   0.8708408
  -0.0472091  -0.0626338  -0.3050131   0.3922133  -0.1571693  -0.8341042
  -0.1771603   1.1384925   0.7730647   0.1866391  -0.0752616  -0.0981689
  -0.1026283   0.5965030  -0.8286361  -0.5011606  -0.7753031   0.3700044
   0.0366318   0.0832791  -0.0735684  -0.0392638  -0.4224359  -0.6356438
   0.9788864   0.2024533  -0.3116219   0.0912449   0.0739360   0.0821445
   0.1416728  -1.5355475  -0.3554492  -0.3721568  -0.1779474  -0.7268453
  -0.0229861  -0.0366021  -0.0050820   0.2062887   0.0829302  -0.6650471
  -0.9787864  -1.3786237  -0.1493660   0.3033246  -0.2536979  -0.1489209
   1.0313603   0.1110161  -0.7588305  -0.8652173   1.1387906  -0.0714835
   0.0708128  -0.1602413   0.0248989  -0.3531884  -0.3251542  -1.6448685
   1.4558672  -0.5184132  -0.0316773  -0.0020596  -0.1271870   0.1930163
   0.0418828  -0.1213046   0.1887808  -0.5408413   0.7552647  -0.6878493
   0.0991565   0.0646817  -0.0664182  -0.6524071   0.2663689  -1.3712157
  -0.6483792  -0.1015296   0.6788127  -0.0294937  -0.2069320  -0.2546002
   0.5560841  -0.0254197   1.8101794   1.0348664   0.7585402   0.2000187
   0.0891921  -0.2755824   0.1926771  -0.7688262  -0.4827100  -0.8354748
   0.6748519  -2.0720998   0.4167900  -0.0373188   0.0083183  -0.0845871
  -0.0019783  -0.0725346   0.2396049   0.2496617  -1.5240022  -0.8401281
   0.1587437  -0.0275869   0.1023323  -0.3564101   0.9572117   1.0647047
   1.3124669  -0.2967099   1.2227523   0.0126369   0.1852298  -0.3434948
  -0.1823722   0.9495557  -0.2760511   1.1968119  -0.4022391  -0.5406279
  -0.3488654   0.0578521  -0.0952918  -1.3174922   0.2616586  -0.8264051
  -0.0190340   0.4452225  -0.4604285  -0.0208990   0.1005896   0.0271897
  -0.1022660   0.4489713  -0.7852957   0.2175023   0.3804510   0.6906725
  -0.1640684  -0.1800437  -0.0089075   0.0629262  -0.6060026   1.9726797
   0.0157695  -0.5616134   0.9333802   0.3432068  -0.1789513  -0.1947713
   0.1973621   0.0511399   1.3219583   0.3500575   0.2280178  -0.0103584
   0.3514709  -0.4441696   0.0310819  -0.6570076   0.2873870  -0.2522399
  -0.6952052   0.2821543  -0.0974151   0.1060018   0.1380775  -0.0048075
   0.3709836   0.8143744   1.3689581  -0.1744877  -0.3969451  -0.1506898
   0.0373124  -0.5150648   0.0555876   0.7931979  -1.3817549   0.4420569
   0.2722577  -1.0500353   0.8383444  -0.0149593   0.1494146   0.2267283
   0.0798402  -1.2886716   0.4802180  -1.7221035  -0.4321497   0.4182490
  -0.1115280  -0.2019361   0.0011205   0.0351515   1.4035331   0.8703039
   0.3920949   0.0999411   0.0519280   0.0562243   0.2402146   0.1560903
   0.9184342   0.4211756   0.3074471  -0.5966344  -0.2681945   0.4485352
  -0.3427438   0.1321341  -0.2857313  -0.4344036  -2.2850208  -0.7812954
  -0.6867566  -0.5702459   1.2265487   0.1891754  -0.2286471   0.1250471
   0.6088633   0.0533242   1.0838468  -1.3887860   0.3251205  -0.2163074
   0.1046660  -0.1583731  -0.0661495   0.5338472  -0.0580433   0.7140585
   0.1076511  -0.2158370   0.2360448   0.2014594  -0.2738772  -0.0037683
  -1.4449314  -1.8450395   0.1267047   0.7425627  -0.3582044   0.6546673
  -0.3377019  -0.0279227  -0.0921822  -0.7741177  -0.9362917   1.8339295
   0.2961825   1.7465943  -0.7651115   0.0112525   0.2159785  -0.1414388
  -0.9854857  -0.4994452   0.4996118   0.3265634  -1.1455297  -1.8472099
   0.1869221   0.0955306   0.2132944   0.2031750   0.2860441  -0.9189301
   0.0043805  -0.9627941  -0.2067233   0.1844571   0.2271572   0.0286799
   1.2810761  -0.9916971   0.4411334   1.8718538   1.1649461  -1.0692334
   0.3709392   0.0010381   0.1181302   0.2588600   0.7817912  -0.3117456
  -0.1268590  -0.7075936   0.5276761  -0.1559704   0.3986973   0.3236885
  -2.1683494  -0.6282411   0.5803366  -0.9767727  -1.0694300  -1.0057971
  -0.0174900   0.2212327   0.1034093  -0.5569351   0.7695867  -0.0421965
  -0.3727098  -0.9814309  -0.0247955   0.1156802  -0.0645397  -0.1249691
  -0.2402869   1.3180662  -0.9351218  -0.5717499  -0.8725395  -1.2578476
  -0.0045723   0.0033861   0.0621277  -0.7517512   1.2758187   0.0799367
  -1.9020352  -0.7444334  -1.3774408   0.2848226  -0.0412412  -0.0335370
  -0.8193302  -0.8345970  -0.2186455  -0.6253713   0.4659445   0.3403661
   0.1734612   0.3477700  -0.1067452  -0.2542545  -0.9806768  -0.7409779
  -0.6890812   0.6807862   0.4426209   0.0129410   0.0899837  -0.2722348
  -1.5921470   0.7428414   0.8235419   0.1234775   1.1309208  -1.0035047
   0.0398989  -0.1638749  -0.1025613  -0.0360827   0.4357750   0.3203607
   1.2898583   0.8770234  -0.4231080  -0.1581541  -0.2379429  -0.2910287
  -0.7360629  -0.3710294   0.0298239  -0.8197447  -0.4086538   0.7188862
  -0.1703355   0.0292366   0.2449815  -1.9418080   0.1572704   1.3020600
  -1.6901703   0.2573641  -1.4664703  -0.2346220   0.2273409   0.2169569
  -0.9089785  -0.9058728   1.6375435   0.6001852   0.8313858   0.1711763
   0.0147966   0.0565677  -0.2798656   0.0569963  -0.5295698  -1.0455056
   0.5502095   0.0292803   0.9653548  -0.1671935  -0.2083730  -0.0435263
  -0.5475520  -0.0143648  -0.0163558  -1.5877087  -0.8760276   0.8428159
  -0.1375949  -0.2498318  -0.1700249  -1.8012468   1.0580554  -1.2042350
  -1.0987108   0.8427553  -0.6925446  -0.4456180  -0.1404591   0.0309712
  -0.5904697  -1.3458121  -0.0877997   0.3850913  -0.9036347   0.2272506
  -0.0840965   0.0575342  -0.2178506  -0.0704857   0.1173889   0.3900380
   0.9678231  -0.9929223   0.6998181  -0.3428414   0.1418349   0.0471861
   0.1191799   0.4233046  -0.8277060  -0.5332145  -1.1757978  -0.0145674
  -0.1203104  -0.0647512   0.0058798   0.3136018   1.4504705   0.4199727
   1.4689942   0.5770582  -1.4418147   0.3154192  -0.1244994   0.1183223
   0.9868725   1.0409113   0.5258366   0.7388051   0.1855629   0.1341180
   0.2237116   0.1809595  -0.2350240  -0.8502000  -0.0753793  -1.5359457
  -1.1650624   0.3427856  -0.9378158   0.0999210  -0.3106640  -0.1710271
  -0.8607363  -0.1633307   0.5229878  -0.2937638   1.4219102  -0.6813887
  -0.2979877   0.0253229   0.0704265   0.2180661   0.2680700   0.2103640
  -0.0797444  -1.7343447   0.2661159  -0.1964245  -0.0932546   0.0675351
   0.5515453  -0.1372433  -1.1641195  -0.4331903  -0.6422270  -0.0842389
   0.0004687  -0.0940316   0.0073219   0.5896799  -0.7548947   0.6187380
   0.5446322   0.5344446   0.0829879  -0.0503613   0.0106599   0.1866675
  -0.3940220   0.2794486  -0.6102538   1.2106165  -0.3992066  -0.1870408
  -0.1570304   0.0395434   0.2111151   0.1948576  -0.0254106  -0.3799526
   0.3777348  -0.5371505  -0.4636431   0.0798478  -0.2270459   0.0838585
   0.4171406   0.4188683  -0.2743841  -0.3973876   0.9490801  -0.1693342
  -0.1782268   0.0362122   0.1567232   0.9475057   0.3676538   0.1709161
  -0.0105624   1.3828915   0.5140920  -0.1129505   0.0056265  -0.4344558
  -1.0600461  -0.4636430  -0.0728906  -0.8976366  -0.0234790  -1.2506897
   0.2026258  -0.0379827  -0.2125372  -1.3445109   0.9135670   0.5057120
  -0.4295735  -0.1368343   0.0228167  -0.2433060  -0.1711183   0.0306477
   0.1056568  -0.7457043  -0.4727963  -0.6609335  -0.1975215  -1.6862303
  -0.0244085   0.0811614   0.1500371   1.2662869   0.7859036   0.1303027
   0.6855618   0.0574363  -0.3786382  -0.0237239  -0.2517434   0.1534398
  -0.0226353  -1.8169358   0.3746468   0.7592006  -1.0544930   0.5896081
  -0.0547774  -0.0932986  -0.1392384  -0.5002761  -0.8856006   0.7769991
   0.5278644  -0.3363933  -0.4340674  -0.0603906   0.2076471   0.0411655
  -0.1140336   1.5878838  -0.0740595   1.2735061   1.5168152  -0.4293319
   0.0057039  -0.0400934   0.0109170  -0.7529778  -0.4290895   1.9576724
   0.2875158   0.3866664   1.6723488  -0.1041240   0.1685370  -0.1853339
  -0.0868543  -0.4248379   0.1535637   0.9055641  -0.9722194   0.9356444
  -0.0550253   0.2101789   0.0448655   0.0683556  -0.8606060  -0.6117733
   2.3317369  -0.3120153   0.4447513  -0.2096187  -0.0948635   0.0473337
  -0.4600635   1.4641425  -0.3856076   0.5958443   1.0292223  -0.4936218
   0.1486778  -0.1407099   0.0307812  -1.7878919  -0.7433700  -1.5396167
  -0.2367211   0.9579233  -0.8993459   0.0653822   0.2796430  -0.1586958
  -1.0084602   0.8123412  -0.5632440   1.0046382  -0.1195692   1.2623690
   0.1755622   0.1036988  -0.0524831  -0.1553689   0.4066793  -1.6942131
  -0.0394885  -0.2961986   1.1795003   0.2666598   0.1733675  -0.0810457
   0.2641657  -0.2954509  -0.1363154  -0.9003061  -0.7210760   0.7651072
   0.0723189  -0.1505153  -0.0398637  -0.1331914   0.5309909   1.0827613
  -0.1184705  -0.9604169  -0.0164334  -0.0452431   0.0029111  -0.0897157
  -0.3985448  -0.7264294   0.4365781   0.4119594  -0.1816822  -0.2304375
  -0.1667928   0.0933643   0.0279644   0.3292994   0.4881476   0.8709803
  -0.9481176   1.3617198   0.0227120  -0.0791750  -0.4341996   0.1446648
  -0.0271181   0.1692410  -1.4340791   1.7836820   0.2666661  -0.2428848
   0.3076108   0.1435160  -0.2108254  -0.5420701   0.4212120  -1.2423319
   1.1741044  -1.0057813  -0.5053626   0.2007159  -0.0423948  -0.2615192
  -0.7049181   0.5006747   0.4798605   0.8036499  -1.0706338  -0.4203876
  -0.1993202  -0.0173128   0.1588024  -0.8953149   1.4540788   0.1728160
  -0.8338122  -1.1727616   0.0457906   0.0584792   0.2648493  -0.2499809
  -0.3236729   0.0792645  -0.9783589  -0.2316576  -0.5749156  -0.2004498
   0.1656347  -0.3706593  -0.2353937   0.6337049  -1.0561021   0.3277644
  -0.2208120   1.2900685  -0.5932526   0.0094977  -0.1659086   0.0571007
  -0.7269904  -0.5557093  -0.9192425   0.8319747   0.0034893   0.5717990
   0.1180708   0.2250195  -0.0438521  -0.7324310  -0.9168985  -0.1852457
   0.7827202  -0.8568106  -0.6879587  -0.2377152   0.3725005  -0.2132484
   0.1013597  -1.0595615   0.7093705  -0.0633234   0.4416972   1.3972538
   0.1843171   0.4286846   0.0731224  -1.5757388  -0.1722991   0.2331404
   0.4253486   0.7688313  -0.1947444  -0.0324911   0.4624798   0.2156405
   0.0602198  -0.2493718   0.4346132  -0.2405355   0.1221302   0.5098010
  -0.1882000   0.0443105   0.0691928  -0.6558716   0.3657190  -0.5073176
   1.9272908  -0.9336713  -1.4837430  -0.0145551  -0.1173301  -0.1701770
  -0.7555667   2.3690794  -1.9658071  -0.8327895   0.4396423  -0.5918761
  -0.1235543  -0.1916561  -0.0530292  -0.3529044   0.3929596  -0.8961739
   0.0711422   0.5031841  -0.9283368  -0.2665931  -0.2655947  -0.0279658
   0.1081571   1.3766096  -0.3337336   0.4427690   0.1169738  -0.2159560
  -0.0937072  -0.1581526   0.1909910  -0.7528323  -0.3129099  -0.5911240
  -0.0688150  -1.3627936  -1.4631391  -0.0783358   0.0708043   0.1123409
  -0.5922798   0.0560429   0.7660964   0.0539985   0.2727994   0.4572768
  -0.2097706   0.0691735  -0.1393026  -0.4313275  -0.1694074   0.0840896
   0.5026752   0.6318630  -0.3314252   0.1066088  -0.2233674   0.0845407
  -0.7132381   1.4926710  -0.1787455   0.4528594  -1.5661155   0.0698929
  -0.0246785  -0.1194296  -0.1951786   1.0669937   0.1791610  -2.2869026
   0.7416414   0.3508024  -0.0833951   0.1785081   0.1723112  -0.1227776
  -0.0673438   0.5608250  -0.4569767   0.2291535   0.3527813  -0.7374879
   0.2000863   0.1806005  -0.0617323   0.4774620   0.5827001  -0.6766907
   0.3756528  -0.0934544  -0.1446630  -0.0551280   0.0366105   0.1247100
   0.2242440   0.1015845   0.3113156  -0.8828090   0.4780505   0.5788966
   0.0247914   0.1132149  -0.1968984   0.0015112  -2.2567033  -0.5483046
  -0.1956290   0.6675846  -0.0057900   0.1173524   0.0870824  -0.0215099
  -0.0811917  -0.2060304  -0.7478920   0.8129007  -0.6781752   0.4788653
   0.0808802   0.0100193   0.1608679  -0.0869300  -0.6375593   0.7796077
  -1.3926862   0.5249999  -1.2980283   0.0717250  -0.2518480  -0.2567575
   1.3430013   0.4184229   0.1368681   0.6019318   0.1136072   0.9407332
   0.2032276   0.1276699  -0.2916028  -1.2288832  -0.2775929   0.5966777
  -0.9131106   0.3244176   0.1747434   0.2732965   0.0710497  -0.1942427
  -0.2596409   0.4975829   0.2511422  -1.5898052   0.9602639   0.5616178
   0.0044609   0.2766977  -0.1738627   0.2572272  -0.9224414   0.3681464
  -0.0891172   2.4324775  -0.9016048   0.3183718   0.1302969  -0.0691961
  -0.3548818   0.1569362  -0.2676322   0.2251729  -0.0392480  -0.9492125
  -0.1936909  -0.0104044   0.0183850   0.8599158  -0.6772316  -0.8485448
  -0.2845056  -2.2409705  -0.2637055  -0.0561947  -0.0689622  -0.0232708
   0.7315086  -1.0207307   0.2225022   0.3580934   0.3131265   0.5097137
  -0.3092921   0.2637219   0.3550990  -0.2078001   0.0746503   0.0218851
  -0.2882997  -0.5642580  -1.0982210  -0.1571353  -0.0959769  -0.2244075
  -1.2825638   0.2524778   0.2263450  -0.0937566   2.0920050  -0.0771925
  -0.3779018   0.2243229   0.0672971  -1.4312416  -0.4168916   0.1937944
   0.1480792   0.7804237  -1.4367437  -0.0701503  -0.1256295  -0.0696834
   0.8168342  -0.2328747   0.4725173   0.4249235  -1.2819507  -0.6662253
   0.2617578  -0.0308891  -0.0183022  -0.1476609  -0.4022074   1.0226323
   0.1684674  -0.3030355  -0.7624682  -0.1126665  -0.2997377  -0.1810280
   0.2259852  -0.2578752   0.5750266  -0.5232771   0.4268469  -0.7255089
  -0.0208295  -0.0490725   0.1867577  -1.1832696  -1.4393006   0.0520122
  -0.7531079  -0.9455265   0.0220398   0.1967616   0.3725357  -0.0474103
  -0.3252839   0.3830650  -0.7099719  -0.1793891   0.7646416  -0.4184050
  -0.0088819   0.0780826  -0.2290756  -0.1291926  -0.6670893  -1.4909100
   0.8146605  -0.3123963   0.0392673  -0.1716352  -0.2268684  -0.1027774
   1.1339190   1.6317420  -1.8871112  -0.9980585  -0.0733132  -0.5106049
  -0.2212227   0.0848725   0.1699436   1.4169138  -0.9679824  -0.4872689
   1.7586976  -0.2017994  -0.1005715   0.0393604   0.4432471   0.0646679
   1.0386877   0.7103472  -0.2249446   0.4535259  -0.9474870   0.4009032
  -0.3141340  -0.3119837   0.1960454   2.0494884  -1.9858624   0.5657820
   1.1671776  -0.9491128   1.8384636   0.4036380  -0.1616838  -0.1867756
  -0.4200241   0.4419672   0.5958796  -0.0144334   0.1706859  -0.6683620
   0.2739038   0.2470982  -0.0137512   0.1239507  -1.2238850   0.4065393
   0.3118664   0.8618252  -1.2038370   0.0700181  -0.2578435  -0.1925489
  -0.8791387  -0.1035568   0.9385538   0.0056473   0.2911946  -1.9107433
   0.1070140  -0.1096670   0.0770355  -0.0795659   1.7035426  -0.1501405
   0.6596538  -0.5508180  -0.5481329  -0.4472830  -0.1877897   0.1006925
   0.9681051   0.4993615   0.0595897   0.3400923  -0.2909390   1.1961310
  -0.0096363  -0.1207672  -0.0170160  -1.7559155   0.5559982  -0.7869807
  -1.2260735  -0.1491821  -0.0926006   0.0601408  -0.1459369   0.0407541
  -0.4819140  -0.7781132   0.4479319  -0.7692346  -0.5993655   0.9882550
  -0.2645392  -0.3642699  -0.0581751  -0.0683403   0.6657344  -0.1453483
  -0.7435215  -0.3032075  -1.1370385   0.1618592   0.0104364   0.1218012
  -0.5980045   0.0029347  -0.3401446   0.4208489  -0.5604001  -0.0833022
   0.1211727  -0.0990854  -0.0755374   0.9704873  -0.6672193   0.4487727
   0.2199407  -1.3422608  -1.5342673  -0.0218703   0.0211488  -0.0925916
   2.0935416  -0.3758377  -0.1963607   0.6398793  -0.7208115   0.4561370
  -0.1319109   0.0739946   0.2923110   0.1572413  -0.3977739   0.5675908
   1.7393257   0.5575732   0.0352992  -0.0345828  -0.1662033   0.2592906
   0.5612109   0.0077366  -0.7500392  -1.2675469  -0.8045595   0.8058942
  -0.0995651   0.7170156   0.0052839  -0.5597038   0.8082256  -0.3618197
   0.9957126  -0.6367967   0.3923994   0.3762188  -0.1847611   0.1800542
   0.6494270   0.4303014   0.5725829  -0.0476859  -0.1261440  -0.5394644
  -0.0225716  -0.5208653  -0.1289880   0.0693868  -0.4956492  -0.1138476
  -1.0724205  -0.2831412   0.2375854  -0.4480079   0.0786183  -0.2186957
  -0.5860337   0.1757810   0.7196414   0.7651297   0.2248198  -0.3345919
  -0.0075652   0.4919000  -0.0157908  -0.9840303   0.7163750  -1.0091092
  -0.2806628  -2.6062608   0.6551144  -0.1563906  -0.2218297  -0.2193541
  -0.7107157  -0.0591387   0.6590189   0.1012406  -0.5558804  -0.3223536
   0.0740723  -0.5207391   0.0048878   0.1685140   0.7408430   0.6304593
   0.1102554   0.4290031   0.4067918  -0.0946805  -0.1612324  -0.2458425
  -1.7229079   0.5128931  -1.5513720   0.2147050  -0.3504078   0.5847963
  -0.1186006  -0.1725340  -0.2319697  -0.0449131   0.5978546  -0.0829941
   0.5839637   0.1841194  -0.4257176  -0.3237326  -0.2811428   0.2095400
   0.4541078  -0.2372604   0.1019944  -0.3210080  -0.3168330  -0.6103613
  -0.3284669  -0.1026012   0.2164804  -0.4291019   0.6678873  -0.2282134
   0.4340935  -1.0900133  -0.2845641   0.1603688   0.3796507  -0.5921151
   1.3375364   0.7609336   0.4838732  -0.1776359  -1.0140287  -0.9798228
  -0.1032548   0.1259262  -0.1335916   0.5116359  -1.7483764   1.5603197
   0.4988648  -0.0698723  -0.7346550   0.1488412   0.1518129  -0.1897233
   0.3643309  -0.8435683  -0.7776334  -0.2217640   1.4287839   1.1463152
   0.1334971   0.0046514  -0.1018489  -1.1016436  -1.2021927   0.7195050
   0.8863925  -0.0656359  -1.2486809  -0.0120327  -0.1035122   0.3145708
   0.6460757  -0.3231908   1.2623068  -0.4556372   0.3926598  -0.7763465
   0.0052295   0.0642337  -0.1429992  -1.2543927   0.4862122  -0.8586240
  -0.7033300   0.1839003   0.1545540  -0.0791353  -0.0729361   0.1208509
   1.8180175  -0.6327678   0.5028252   0.0395813   1.3862140  -0.4118303
  -0.1209560  -0.0555146  -0.0706721   0.5296914  -0.4282772   1.3039519
  -0.4131048   0.4326153   1.3121520  -0.3023319   0.4104281  -0.0757286
  -1.2953198   1.0284682  -0.5650917   0.3138187   0.7586570   1.2119639
  -0.0042473   0.2031377   0.1936676  -0.9331054   0.3236898   0.0612650
   0.1309369   0.6783969   1.6345387  -0.0033044  -0.2600470  -0.0704737
  -1.2027180   1.7377215   0.2037880   1.3416212   0.2582902  -0.0436306
   0.3339302   0.2234451  -0.0246728  -0.7918230  -0.7976868   0.0740347
   2.1709909  -0.0175194  -0.0029531  -0.1684129  -0.0355939  -0.0044755
  -0.2646445   1.2645983   0.9436697  -1.0228278   0.1328076   0.6249325
   0.0941870   0.0231754   0.2086948  -0.9673739   0.5704681   1.3160533
  -0.7206576  -0.1026783  -0.3182824  -0.0095659  -0.2091329  -0.3690450
   0.4870198  -0.2764783   0.5353483  -0.0021246  -0.5059962  -0.7613890
  -0.0927661  -0.1148623  -0.1233917  -0.6124610   0.3798812  -0.3608178
  -1.4202452  -1.9341649   0.0151462   0.1932107  -0.1369167  -0.1041239
   0.4463962  -0.3445430  -1.0771129  -0.5416052   0.3221938  -0.2061571
  -0.4610715   0.0037043  -0.4572378  -0.2806454   0.0403282   0.6292243
  -0.1376862  -0.3188517  -1.2631639  -0.1085428  -0.0518964   0.2428822
   0.2162946   1.0220511   0.2533092   0.8339346  -0.1632199  -0.9820161
  -0.1975672   0.0601406   0.1555135   0.6407538  -0.5874474   0.5027439
   0.5676400  -1.1410145   1.4020132   0.1275355  -0.0281818  -0.2639025
   1.4229182  -0.5087505   1.3439190  -0.3764789  -1.5868875  -0.5125243
   0.1316840  -0.0753824  -0.2956050   1.3388463   0.5200830  -1.0970207
  -0.7958475  -0.0061571   0.1187578   0.0541945   0.1095540  -0.1933809
   0.2771699  -0.0505559  -0.3000249  -0.3927791  -0.2414795  -1.2195992
  -0.1672868   0.1217486   0.1997400   1.3801238  -1.1379663  -0.1505149
   0.3627182   0.1941482   0.2750827  -0.2676754   0.0229099   0.0083847
   1.2015204   0.0146144   1.7318319  -0.9005441   0.1231993  -0.0727997
  -0.3731334   0.3061812  -0.0414926   0.5422939   1.0645963   0.8102139
  -1.0011882  -0.2727860   0.4461754   0.1839035   0.1027362  -0.0471579
  -1.1857751  -0.8071130  -0.0750233   1.7636522  -0.3540381  -0.8699205
  -0.0534420  -0.0378452  -0.1521175   0.3926783   1.1877869   0.4608030
  -0.6075912   0.1189123  -0.2982571   0.0015441  -0.1322079   0.0115758
  -0.9777412  -1.4860376  -0.1638480  -0.5107836  -0.1505231  -1.1826073
  -0.1887112  -0.0438239   0.4924021  -0.2879796   1.0054109  -0.0353634
  -0.6595462   0.8009666  -0.2875567   0.0069363   0.2054423  -0.2762137
   0.1663327   0.6282192   0.7402054   0.6154254   0.5873818  -0.1174861
  -0.0032769   0.1300431  -0.2083192   0.2134041   0.7722963  -0.3249179
   1.2150084  -0.1002345   1.3124983   0.0783372   0.2606517   0.1900678
   0.0909910  -0.2577687   0.7912068   2.3329556  -0.4278052   0.4751837
  -0.2829946   0.0211641  -0.1307753  -1.1076220  -0.6693238  -0.8754951
   1.1744695   1.1514694  -0.4887856  -0.0117301  -0.4848920  -0.1408945
   0.7788010   0.7898928   0.6275192  -0.8523181   0.6015771  -0.3274204
   0.1076382  -0.1214564  -0.1850014  -0.0360816   0.4658863  -0.3651474
  -0.8195528  -0.9792168  -1.1666143  -0.1782617  -0.3899481  -0.1894011
   0.8339705   0.3898365   0.6197758  -1.1965019  -0.8481640   1.5524340
   0.1426495   0.0752821   0.1576352   0.5020208  -1.0839995  -0.6047518
  -1.0480077   0.2107093   0.3624727   0.4498512  -0.0488204  -0.2424750
  -0.1867970  -1.0862674   0.2352177   1.6492220  -0.0326752   1.2608504
   0.0015038   0.1373074  -0.2712930   0.2037710   2.1571349  -0.3193351
  -0.4587028  -0.3466604  -1.2363085   0.1791554  -0.2434407  -0.1233676
  -0.2435517  -0.2971223   0.4362965  -0.3312450  -0.3524793  -0.5032818
   0.0434723   0.1995761  -0.1812126  -0.2441463  -0.7028295   0.3315470
   0.4573390  -0.2898050  -0.3491201  -0.3843968   0.1265234   0.1574439
  -0.1231447   0.0494431  -0.4646204  -0.7025936   0.4481285   0.5096439
   0.1679993   0.0916554   0.0750527  -1.2054020   1.4999271  -1.3514063
  -0.7938981  -1.3070644  -0.0444360   0.0669746  -0.1635573   0.1136854
   0.7369234  -0.4622119  -1.0675950   0.6483868  -0.6561236   0.8158816
  -0.0084563  -0.2038968  -0.0764275  -0.3316183   0.0100059  -1.4649408
  -1.1085782  -0.4342774  -0.6102608   0.2954702  -0.1914229   0.1822770
  -0.0811125  -0.5620738   0.3275191  -0.5638007  -1.1540615   0.1724957
  -0.0951745   0.0238246  -0.1338737  -0.2071964   0.7619082  -0.3360842
   0.5573718   0.8942898  -0.7159831   0.0127660   0.0170542   0.0551437
  -0.1847681  -0.2935373   1.2546534  -0.1378376  -0.5055678  -0.0495492
  -0.3843081  -0.4053239   0.5508288  -1.1637752   0.4603032   1.2593535
   0.4550267   0.8774614  -0.0076027   0.0743576   0.2167032  -0.2266837
   0.8173516   0.2564773  -0.0100430  -1.1813600  -0.0059738  -0.3171159
   0.0058633  -0.0902811   0.1539888   0.5492898   0.6134144  -0.8649778
   0.2296628   0.2523332   0.3469420  -0.0348810  -0.2450760   0.0542069
   0.0796800   0.1771907  -0.8427421  -1.0257147  -1.0535247   1.1077826
  -0.0174599  -0.4137380   0.1503046   0.5954156  -0.3921533   2.1854450
   0.2661333   0.0138594  -0.8049270   0.2103235   0.0880422  -0.1501864
  -0.2849867   1.8213210   0.6390415   1.3948924  -0.0114446  -0.3320910
  -0.3009427  -0.0993095   0.3429114  -0.3042507  -0.3743246  -0.6900321
   1.7557725  -0.7562078  -0.1522700  -0.0650329   0.1121815   0.0671366
  -0.5586798   0.1196265  -0.8986524  -0.1092559  -0.5957913  -0.3627362
  -0.2558847  -0.5071397   0.2067073  -1.0933083  -0.6001477   0.1531245
  -0.6136510  -0.3977729   0.7688471  -0.0086031   0.1319812  -0.0994330
   0.0014495   0.2018691  -0.8905899   0.2075888  -0.3715662  -0.6744192
   0.2550860  -0.2074999  -0.1989769  -0.9511682  -1.8641428  -0.3989842
   1.1091373  -0.5240628  -0.8349834  -0.3350107   0.1659151  -0.1190819
   0.1553046   0.5134667  -0.5914893  -0.0623470  -1.4981602  -0.3222540
  -0.1932807  -0.4303413  -0.4445194  -0.2993090  -0.1935334   0.2141842
  -1.1543137   0.0030311   1.0140532  -0.0574739  -0.1387158  -0.5064103
   0.1739522   0.2995298   1.0074132  -0.9552424  -0.3447255  -0.0402232
  -0.0401234  -0.0402876   0.0307529  -0.0780810  -0.2938826   0.5107083
   0.6751281  -0.4642655   0.6226539  -0.0450081   0.3380964  -0.1571240
  -0.4785229  -0.5131711   1.0415968   1.0614170   0.2894268  -0.8642874
  -0.0863049  -0.2259104   0.2569848  -1.0990503  -0.0967511  -0.0375139
   0.3553945   0.6385085   0.8331581   0.1089267  -0.0926113   0.2454526
  -1.4379115   0.6075951   0.7430217   0.1473178   0.9682152   0.1878720
   0.2312262   0.2334438  -0.2505374   0.5658057  -0.4023219  -0.0690290
   0.8221596   0.0068365   0.9123471   0.2468916  -0.0916926  -0.0351290
   0.0205500   0.7958354   0.6491751   0.2082226  -0.2617402   0.7104989
  -0.1772034   0.0142250   0.1402304  -1.2178803  -0.6268471  -0.4906584
   0.9086725   0.6213565   0.7293086  -0.2086163   0.2080451  -0.0536517
   0.0353983   0.1660530   1.0038590  -1.2586053   0.0134130  -0.4798430
   0.4031145   0.0523999   0.0340453   1.0934354  -0.8747015   0.8276199
  -2.4533813   0.2990812   0.4981535   0.1694925   0.0068793  -0.3704228
  -0.1035525   0.2760122   1.0099752  -1.1566664  -1.4585729  -0.9990758
  -0.3336002   0.0492925   0.1286792   0.7048625  -0.2152842   0.0505059
   0.0999455  -1.2282754   0.5608823  -0.1800773  -0.1176396   0.0047052
  -0.9704918  -1.8596141   1.1172962  -1.1756178  -0.9088896  -1.8814302
   0.0545948  -0.0469420  -0.2390506   0.8611195  -1.1524685   0.7164631
  -0.4632220  -1.9632455  -0.9329646   0.1737052  -0.1643180   0.1578537
   0.2474345  -1.6020716   0.3562343   0.7861497   1.7653465  -0.7916924
  -0.5544577  -0.1222225   0.3860791   0.5419066   0.8058214   0.4206402
   0.1549990   0.0827368  -0.6918245   0.3239463   0.2045267  -0.1719409
  -0.1294599  -1.1562755   0.4000364  -0.0369423   1.7606266  -0.1669165
  -0.1112627   0.1145933   0.0207802   0.3778837  -0.0173100  -0.6346974
  -0.2501532  -0.1160083  -0.1975312   0.0716263   0.0613043   0.3048586
   0.0990530  -1.1146444   0.6141998   0.1185014  -0.8534518  -1.4555399
   0.2760910   0.0236768  -0.0180258  -0.6262615  -0.2362251   0.6263002
   1.1445522  -0.9830386   1.2792431   0.1518266  -0.2101614   0.0971375
  -0.5119545   0.3470329  -1.1672663   1.0557666  -0.4455122  -0.4147832
   0.0764284  -0.0850039   0.1192584  -0.3498068  -0.9994820  -0.6516793
   0.3855771  -0.3016318   0.6482423   0.1150368  -0.1352819  -0.1545184
   0.8699070  -1.2178405   1.4641091  -0.4485258   0.0992933   0.2316824
   0.0044125   0.2840548  -0.2428154  -0.6598167   0.1375325   0.1509640
  -1.1223940   0.1724624  -0.7179148   0.0468747   0.2243599   0.0736446
   0.2396965   0.1879467  -0.5813269  -0.2513617  -1.5750818   0.0756556
   0.0320985  -0.0436312   0.2459376  -0.2829713  -0.5291318   0.9363885
   0.2496365   0.0970409  -0.1700400   0.2130057   0.1037580   0.2176292
   1.2686465   0.8924300  -0.0998831  -0.2901739  -1.0340619   0.9582220
   0.0556098  -0.1043212  -0.1277759   0.5295205  -0.0696050  -1.1971358
   0.8989504  -0.3300892  -1.1040923  -0.2289508  -0.2377753  -0.0548102
   0.9844405  -1.1752876  -2.2869236  -0.0840089  -0.2000447  -0.5696293
  -0.3172722   0.0846867   0.1483587  -0.2488618   0.4262966  -1.1018109
  -0.0307275  -0.9464391  -1.5391245  -0.2039094  -0.0050695   0.0970674
  -0.5431391   1.0255856   0.0566912   0.2696867  -0.1252402   0.8894934
  -0.0960953   0.2682714   0.1489069  -0.0546780   0.9615665  -0.2470510
   0.4230215  -0.6880816  -0.4079667  -0.0769649   0.0983402  -0.2309096
   0.3054664  -1.2498964  -0.2880672  -0.8231115  -0.1515771  -0.8564635
  -0.0720879  -0.0269252  -0.1552349  -1.0637797   1.9086433   0.0750001
  -0.0378640  -1.4088768   1.1430872  -0.2747393   0.0654127  -0.0452543
  -0.3888047  -0.1165861  -1.0083119  -0.2032328  -0.4526093   0.9147831
   0.1749505   0.1766527  -0.3027104  -1.4629904  -1.0374865   1.0757644
  -0.3569662   1.0277342   0.7588851   0.4875247  -0.0322470   0.0790241
   1.1747351  -0.7681694   0.3665808   2.1909437  -0.4829539   0.2975222
  -0.0360425   0.2111628   0.0723710   0.2523084   0.0941908  -1.0911771
  -0.9922968   0.1366167   1.3957246  -0.0962703  -0.2189871  -0.4515959
  -0.8576729  -0.5694734  -0.9481813  -0.1900871   0.4116474   0.1663490
   0.0264972  -0.2660762   0.0531598   0.1799767   0.4481487   0.2991970
  -0.9101811  -0.6117539  -0.3433048   0.3295862   0.1230167   0.1307602
  -1.0133185  -0.1055981  -0.5862874  -0.4060608   0.4529439  -0.6660565
   0.1288456   0.1088822   0.1220135  -1.1142630  -1.2191558  -0.6037779
   0.4417010  -1.0785237   1.0688601  -0.2558779  -0.0144918   0.0276855
   0.0222129  -0.5412665   0.4352075   0.3812657  -0.1645676   1.1110854
  -0.4584448   0.0615987   0.2437879   0.7073582  -0.4016526  -0.6343208
  -0.9169816   1.1310495   0.5308685  -0.1457867  -0.1661904   0.2402144
   0.3922799  -0.6869874  -0.1829123  -1.0531869   0.0059714  -0.1414895
   0.1456880   0.0466049   0.1868219  -0.0061860   0.5729866  -0.8264960
  -1.3785267   0.4217069   1.1800482  -0.2022954  -0.0131514  -0.2280864
   1.0881037  -0.2738987   0.0366926   0.9610587  -0.2577570   0.5231639
   0.1065912   0.1529916   0.1507660   0.6808101  -0.9945597  -0.2049169
  -1.1815433   0.8827626  -0.2101580   0.0451629   0.0276936   0.1095441
  -0.6697876  -0.5247486   1.3598016  -0.0900397   0.0629681   0.6767212
   0.1236091  -0.2001724  -0.1073081  -0.9653489  -0.2323888  -0.4975371
   0.6473929  -0.1819740   0.7777463  -0.1559580  -0.1949216   0.1415883
   0.2979724   1.0891805   0.0141269  -0.3811007   0.3023096   1.2436572
   0.2144912  -0.0080515   0.1795220  -2.0334341  -0.6325215   1.7094617
   0.4325667   0.2224009   1.0464368  -0.1794118   0.3797652   0.2011239
  -0.1765356   0.7372151   1.2446457  -1.2781352   0.0950087   0.9647512
   0.0313642   0.0419794   0.1786523  -0.7029238  -0.0500953  -0.3688197
   1.2407537  -0.3498144   1.1411678  -0.7005654   0.2022231   0.3410197
   0.2712752   1.2190911  -0.3877199   0.4295089  -1.5806432   0.0306524
  -0.3545174   0.1100284  -0.0674686   0.8669160   0.9235287  -0.4316985
  -0.7876141  -0.6327950  -0.6521675   0.1385342   0.1536664   0.1186020
   0.1472965  -0.2763473   1.1269434   0.2441737  -1.1106876   1.5405278
  -0.1450177   0.1055965  -0.1906231  -0.6998004   1.1499415   0.2569231
   1.3200499   0.0837841  -0.3862429   0.0246507   0.0224474  -0.0359952
  -1.0506814   0.6314554   0.4235670  -1.2855460  -1.7155369   1.0957637
  -0.0946811   0.0515375  -0.0160624   0.6794481  -0.5829997   1.1541365
   0.4156754  -0.8106530   0.7570214  -0.3223873   0.2808294  -0.0972795
  -0.5557874  -0.1209736   1.5865685   0.7398253   0.1784019  -0.3725335
   0.0467181   0.2234933  -0.2338884   0.3865679   1.6218184   1.7798451
  -0.2261889  -0.4933121   0.7064490   0.2285832  -0.2360703   0.0581007
   0.5902664   0.7153510  -0.4041910   0.1029220   0.0298314  -0.0740517
  -0.1837169  -0.0650758   0.3613464  -0.5561835   0.4363056   0.5448174
   0.2448942   1.7249270   0.6598970  -0.0238403   0.0587331  -0.1572710
   0.1586314   1.5615402   0.9211887   0.0596413   0.0594117   0.2659321
   0.0904450  -0.4391270  -0.0436559   0.0825509   0.7344624  -0.4521149
  -0.1944352  -0.4787390  -0.4683911  -0.1631842  -0.2007647   0.1925040
   0.5086856  -0.9939015  -0.0513342  -1.0504141  -0.8043479  -0.1982905
  -0.0823736   0.2225129   0.0528191  -0.1510689   0.6379331   0.2726516
  -1.1995929  -0.3329132  -0.4015151   0.1532189   0.1656421  -0.1975782
   0.0929031  -0.0432499   0.2877156   0.1291291   0.3135977  -0.2623675
   0.2108325  -0.0561474   0.0977025  -0.1630016  -1.1748389  -0.1239074
  -0.6554801  -2.2497342   0.2836872   0.1976305   0.1695670   0.0781442
   0.8895302  -1.4458977   1.5615005   0.7904342   0.4155297  -0.1506210
   0.3564645   0.5278111  -0.1094849   0.1950083  -0.5506681   0.8758301
   0.3110905  -0.1328547  -0.0039006  -0.0068468  -0.1886449  -0.1345559
  -1.0757241   1.3924693   0.1008714   1.0748476  -0.3304968   0.0109153
  -0.0582839  -0.1635328  -0.2000982   0.4020047  -0.1488044   0.3798400
  -0.4267719  -0.6851916  -0.9377004  -0.1013268  -0.2438544   0.0028264
  -0.5471994  -0.5323577  -0.5266046   0.0254367   0.1890313   1.0110267
   0.0472007  -0.0385208  -0.0610598  -0.0621957   1.0321603   0.0063692
   0.1552004  -0.3997761   0.4036063   0.2201052  -0.1784192   0.0001248
  -1.6717791  -0.5776655  -1.4420311   0.0250614   0.1879565   1.5989515
   0.1027963   0.0037696   0.0635918  -0.9534488  -0.3982508  -1.2556341
   0.2264394  -1.4601079  -0.8778505  -0.3684000  -0.0438015   0.2348957
  -0.9419298   0.2452279  -0.4075207   1.1527551  -0.6260186  -0.1053556
   0.1504784   0.0422933   0.0971283  -1.0379149   0.1883508  -0.3181703
   0.0952407   0.8060873   0.7714962   0.1890109   0.3087342  -0.1254822
   0.8292620   0.6878792   1.1749523   0.5007859   0.2432177   0.2930821
  -0.2983321   0.0504797   0.0041047   0.7829075  -0.1823492   1.7524566
   0.2763386  -0.4447176   0.0917598  -0.4146134   0.1367625  -0.1462232
   0.0666829  -0.2474135  -0.2890446   1.9722791  -0.2060024   1.4808799
  -0.0612588  -0.1833791  -0.2877460   0.2737275   0.3905116   1.0329922
  -0.7840881   0.1525596   1.1984892  -0.0918186   0.1939328   0.1534214
  -0.2566433  -0.3659826  -0.9756334   0.2703801  -0.0364188  -0.5968955
  -0.0408150   0.0635256   0.1518979  -0.0164393   0.4242099  -0.6113840
  -0.0063556   0.6945887  -0.2986090  -0.1123450   0.1074705  -0.0349613
  -0.0097677  -0.2302080   0.5899942   0.9986820   0.6157174   1.7476503
   0.1653000   0.1310551   0.3670166  -0.7791252  -1.2270092   0.0989077
  -0.6307705  -0.5786350   0.3599898   0.0352333   0.0587114  -0.2498708
   0.0327239   0.4495882   0.1906340  -0.2234738  -0.9325373  -1.0172190
  -0.1250986   0.1644231  -0.0256283   0.5805747  -0.1501516  -0.7105672
   0.1678964   0.6376525  -0.2482397   0.1507007  -0.0095988   0.0811643
   2.0808750   0.9873028  -1.1178906   0.1842497   0.5647808   0.5931959
   0.1207561   0.3457897  -0.1404161  -0.5442993   0.3783404  -0.2861440
   0.0828844   0.2202120  -0.6270354   0.0604557   0.0224536  -0.1779694
   0.1890516  -0.0744148   0.0418240  -0.0166960  -0.4164461  -0.1843874
  -0.0470704  -0.0318096   0.2100593   0.0436746   1.0955664  -0.8985824
   0.4754255   0.0920971  -0.3738694   0.1820782  -0.0886137   0.1376722
   1.3350545  -1.3449259   0.7518243   0.5136736  -1.7634549  -1.2574722
   0.2918869  -0.3491523   0.0366628  -0.5002417  -0.2882546   0.5729540
   0.7969380  -1.9011735   0.8752971  -0.0788363   0.0033424   0.1800901
   0.2509353  -1.4188260   0.0993364  -0.2920701  -0.2864719   0.9634002
   0.1430707   0.1345907  -0.0257787  -0.9953238   0.4745399   0.0786831
  -0.2286188  -0.6192734   0.5208717   0.0621315   0.1331551   0.1711233
   1.5977902  -2.4708930   1.4340273  -0.0691340   1.1564722  -0.3709761
  -0.0355035  -0.2521047   0.1636825   0.4875700   0.1144933  -0.5508894
  -0.7242586  -0.0580585  -0.1061881  -0.2478266   0.0257976   0.3035213
   0.9052093  -0.4785195   0.5386161  -0.5434603   0.1173196   0.5185531
  -0.1029003   0.2496393   0.1079748  -0.2531724   1.0557564  -1.2536019
   0.5918419  -0.8151574   0.6456357   0.4403910   0.1800160  -0.0735260
  -1.0823233   0.3577626   1.1250739   0.8662404  -0.2885203  -0.3876377
  -0.5311567  -0.1021511   0.5012061  -0.3608646  -1.7861335   1.1132516
  -0.9798920  -0.4163992  -0.4079102   0.1524622  -0.1630019   0.0512562
  -0.1719388  -0.4118474  -0.0794029   0.8588513   0.1163173  -0.3979408
  -0.2043828  -0.1165590   0.0970901   0.2291699   0.1397085   0.7538113
  -1.3686291   0.4698374   0.0598638   0.1322270   0.2267299  -0.2825479
  -0.7643237  -0.4528596   0.5005057   1.0326511   0.7035070  -0.0643197
   0.0454156  -0.0671411   0.0267008   0.8079512   1.0292627  -1.3039797
  -2.0606009  -0.2949202  -0.1690333   0.3710910   0.1533433  -0.1874562
  -0.3689696   0.9005992   0.1838027  -1.1043218   0.7912643   0.1631064
  -0.0716914   0.2371349  -0.0329510   1.0127698  -0.3266302   1.4540692
   0.1197109  -0.0584897   1.2025845   0.4236194  -0.0665217  -0.0607227
   0.5316400   0.6468473  -0.2593242   0.3348718   0.3492228  -0.6909281
  -0.1037181   0.1410808  -0.1218270  -0.7594295  -0.9988764  -0.6113720
  -0.3935092   0.8256611  -2.7122426   0.0326408  -0.3175127   0.2055948
   0.0179273  -0.3119879  -0.1817699   0.1177831   0.2832701  -0.7028135
  -0.0715467   0.2126465   0.2310281   0.2786817   0.6420296  -0.1099855
   0.3343866   0.1671350  -1.4667502   0.4831883  -0.2518512  -0.0036000
   0.8063466   0.5039240  -0.3826477   0.1697231   0.7431502  -0.1365543
  -0.1611044   0.1542070  -0.0814830  -1.5816196   0.3477773   0.6726472
  -0.0803347   1.3042667  -1.3990121   0.1636519   0.3649811   0.0873697
   0.7579018   0.2367929  -0.0012881   0.2331239  -0.4603954   1.4588527
  -0.1097726  -0.4362730  -0.0857033  -0.1055022   0.3483860  -0.2430643
  -1.4480296   0.1752452  -0.5391199  -0.2528772  -0.2257765  -0.0651537
  -0.7546939  -0.4779607   0.8980100  -0.9224857  -0.5939626  -0.0990291
   0.1641991  -0.1493744   0.1406112   0.6377401  -0.0263569  -0.8145862
  -0.2043560   1.2571027   0.6014993   0.1476777   0.1813005  -0.1709789
   0.6927603  -0.0750732  -0.0359581   0.3786412   0.0020728   0.4484928
   0.1886811   0.2291951   0.0485224  -0.7385364   1.2356370   0.0307351
  -0.2543361   0.4475065   0.5546551  -0.1921967   0.0762607  -0.1073763
   0.1899695   0.6375246   0.2278046  -0.0305240   0.6040901   0.1286890
   0.3690139   0.4615336  -0.0104033   0.7993073  -0.6269632  -1.1922104
  -0.2185855   0.9717978  -0.7200064  -0.2719564  -0.2387598   0.2872077
   1.0347013  -0.6979976  -0.6666248   0.8725422  -0.0389905  -0.4288761
   0.2204996  -0.1110529   0.1884532   0.2238951  -1.0539244   0.5043437
  -0.3799038   0.8516813  -1.1415424  -0.0134045  -0.2183214   0.1152761
   0.0224187   0.7533821  -0.0031631  -0.0936608   0.8830441   0.1131266
  -0.0114228   0.2553035   0.1504580   0.7896452   0.4076216   0.6945264
   0.3723163   0.6892755  -0.0330032   0.3345215  -0.0816992  -0.3503367
   0.9433537   1.1363907   0.6367608  -0.0158152   0.2751197   0.7058048
  -0.3248998  -0.2734112  -0.1811113  -0.4209406   0.2973348  -0.3317430
  -0.0438594  -0.2409609   0.8521523   0.2394395   0.1195796  -0.2506427
  -0.7036218  -0.2895543   0.2739193   1.7072968  -0.0688292  -0.4401781
  -0.4251033   0.2276591  -0.1208013   0.6972261  -0.3154292  -0.4262513
   1.9088033   1.3689210   0.2233089  -0.0888473   0.3087827   0.2441694
   0.2815695  -0.6705262   0.3927454  -0.0305759  -0.5125907  -0.5462535
   0.2933567   0.0510468   0.0636348  -0.5018426   0.2150611  -0.6572496
  -0.0728112   0.0115788   0.0803454   0.1964076  -0.0303410   0.0569676
  -0.5956272  -0.2933433   0.6501782  -0.5992504   0.3613701   0.2321241
  -0.2669437  -0.2252809   0.0041975   0.9294598  -0.0534123  -0.7434323
  -0.0905249   0.2289190  -0.4454360   0.2092546   0.3428468   0.0888376
   0.5029570  -1.0646406  -0.6074108   0.4954315  -0.7468897  -0.0354168
  -0.1768844   0.1539584   0.0559139   1.0432980   0.8025688  -0.6842023
   0.5673575   1.7328462   1.3724452   0.3778742  -0.3410098   0.1098274
   0.6299515  -0.6229117  -0.3059897  -0.2883223  -0.2667880   0.2590799
   0.2984795  -0.2567319   0.2288398   0.1706613  -1.1077069   0.2683606
   0.0947709  -0.2495227  -0.1409068   0.2437061   0.3057087  -0.0330901
   0.6928115  -0.7310932   0.0734661   0.1716283   0.0422800  -0.4078516
   0.0173642   0.3157802   0.4188506   0.2526537  -0.3679313  -0.3291544
   0.1246552   0.1095778   1.2210531   0.0316107   0.1107105  -0.0530401
   0.8068277   1.0619904   0.4366014  -1.2015291  -0.3699311  -0.0490894
  -0.2021994  -0.0718493   0.1389051   0.7217918   1.4520955  -0.4581030
   0.5239332   1.4562930   0.1043105   0.2175386  -0.3224030  -0.1797593
  -0.9321572  -0.5179524   0.1242409   0.5198858  -1.5229164   0.4414934
  -0.2024908  -0.1760234  -0.0874316  -0.0895915   0.6276567  -0.2498648
  -0.6980991   0.7234162   0.4152900   0.0693854  -0.0978247  -0.1680350
   1.1128113   0.5185239  -0.2031181  -0.2244573  -0.2851786  -0.6280906
  -0.1770408   0.3984977  -0.1444898   1.2257097  -1.1439202   1.8442995
   0.4588558  -0.2250802  -0.7154054   0.2099443  -0.0594001  -0.2713649
  -0.3073781  -0.0280676  -0.1301434  -0.0420023  -0.0617412   0.7750338
   0.0578539   0.0116549  -0.2527576   0.4341412   0.0785326   0.8509558
  -0.1279610  -0.4142039  -0.2951989   0.0411482   0.0536919  -0.1949829
  -0.6025994  -0.5320139   0.6781711   0.3761467   0.0502313   0.2671359
  -0.0690463  -0.2942362   0.3147088  -3.1346299  -0.4224775  -0.1094734
   0.5209913   1.7766610  -1.0549727   0.2078495   0.0973150  -0.0529856
   0.4452712   0.4846980   1.1667873  -0.2389832   0.6402289   0.0854208
  -0.1198473   0.1931580  -0.4208895   1.4574042  -0.6856382  -0.2143067
  -0.7751891  -0.6088348  -0.5357677  -0.2308393  -0.0331594   0.0946080
   0.9999333   0.3775645  -0.2842936   0.9793019   0.0746227   0.3428807
   0.1011921  -0.2070710  -0.1903282  -0.2384490  -1.1189972   0.0915993
   0.3575616   0.5914013  -0.4663280   0.0447307   0.1505895  -0.0194212
   0.5197257  -1.6992128  -1.0049116   1.0431432  -0.3291148   0.2521104
  -0.1126631   0.0593644   0.0889420  -1.2369258   0.0436462  -0.5414692
   0.3261671  -1.8479052  -0.5474165  -0.2776464   0.1898217  -0.2604785
   1.7629849   0.6235435  -0.1693255  -1.6029858   1.4567352  -1.4785565
   0.0592114   0.0522366   0.2704693   0.1284544   0.3078991   0.7229415
  -0.2564793  -0.2550128   0.5462086   0.1193009   0.1233991   0.0846238
   0.3874720  -0.1660279   0.1563441  -0.6640306  -1.9805826   0.6866978
   0.2523687  -0.3291669   0.0021148   0.3772993   0.4601840   0.3398251
  -0.2440436  -0.2448280  -0.2491808   0.0678513  -0.0912184   0.0146044
   0.1129068  -0.6567576   1.6035039   1.4676341   0.4675725  -0.1385230
  -0.2087014   0.2994373   0.3525645  -0.9339354  -0.1537557  -0.4650893
   1.7230050  -0.0642514  -0.2326849   0.3454757   0.1467522   0.1601170
   1.0079080   0.3246513   1.2207493  -0.0483074  -0.2550629   0.1890244
   0.2899667  -0.4090668  -0.1101053   0.5492896   0.8319509  -1.0946018
  -0.7574204   0.8130233   0.7131403   0.4096447   0.0291490   0.0742919
  -1.1293384  -0.2496419   0.0456985  -0.5732652   0.9355029  -0.3251451
   0.2671593   0.1125664  -0.1184981  -0.3047211  -0.5887147  -1.4042192
  -0.5941865  -0.3035451   0.5768425   0.1392480   0.1785209  -0.0466336
   0.2494241   0.8317737  -1.1327970   1.0440571   0.5765561  -0.5693017
  -0.1116577   0.0875485  -0.0659358  -0.5600809   1.3969260   0.2324064
  -0.0165204   0.2728356   0.4188890  -0.0160297  -0.0997625  -0.1724897
   0.8105741  -0.0958918  -0.3782853   1.4580370   0.0411255  -0.3169880
   0.0535996  -0.1092309  -0.0011470   0.6865841   1.1041526  -0.3966431
  -0.5713468  -0.1940802  -0.3152126  -0.0720662  -0.1585771   0.2602986
   0.5223133   0.3986032  -0.5875670  -0.6820661  -0.2406936  -0.7368234
   0.1566467  -0.0515454   0.0588851  -0.2154549  -0.3696455   0.3775559
  -0.4430803   0.3865847   0.0514503  -0.0272718  -0.1620877  -0.2698541
  -0.3338673   0.8573254  -0.0515011   1.3647222   0.4968484   1.4413914
  -0.1740890  -0.2292789   0.0627083   1.3417964  -0.4882200  -0.1964838
  -0.1551443  -1.0047287   0.7904409  -0.1401598   0.5388097  -0.2001210
   0.1594508   0.8036707  -1.0125304   1.0209070  -1.0013717   0.9262998
   0.1650829  -0.0784601   0.1077849   0.1558219  -2.0234164  -0.0376894
  -0.7817890   0.3132456   0.1081267  -0.1434694   0.1241971  -0.2858227
  -0.2515984  -0.8031341   0.3806537   0.3878598   0.2800430   0.2644352
  -0.0287583   0.4088696  -0.0864644   0.0970481   0.5741891  -0.5290402
  -0.3219194  -0.5376583   0.3486712   0.0529927  -0.1442401   0.0102786
  -0.5851561  -0.6834839  -0.1015647  -0.1382175   0.6302711  -0.1026660
   0.1192421   0.2560078  -0.0258583  -0.2728285  -1.1335627   1.2714376
  -0.7895791   1.3270894  -0.3642699   0.1506493   0.0254429   0.0391997
   0.3950254  -0.4623399  -1.5782630   0.2805709   0.3504562   0.5051155
  -0.0448876  -0.0770249  -0.0460618  -0.6737774  -0.4633090   0.1302785
  -0.5201646   0.5240387  -2.1254408  -0.0791565   0.0038372  -0.0016532
   0.6738344  -0.0076512   0.8682360   0.3432495   0.5584816   0.4104937
   0.1031953   0.0424334   0.1604349  -1.1082865  -0.4864298   0.4384923
   0.9258610  -1.5415137  -1.0717577   0.0824040   0.3475630  -0.0658177
  -0.7399259   0.5132303  -0.9046043   0.3607109  -0.9438046   1.1935188
   0.1586464  -0.4813879  -0.3436834   0.9638304   0.5767612  -1.5530613
  -0.4881827  -0.2865543   0.0002107   0.3171444   0.3302744  -0.3464024
   0.3976563   0.8202441   0.2886074   0.0545801   0.5474101  -0.0980899
   0.2655781  -0.0345186  -0.2838140  -0.5392465   0.4489915   0.4915702
   1.0644825   0.0786169   1.2647373  -0.3670467   0.1641342   0.0777470
   0.3976977   0.7596449  -0.9166294  -0.6883958  -0.6603170   0.9826091
  -0.1621241   0.0212953   0.1077405   0.3824065   0.0367999   0.3102963
  -0.9263037   1.0164553  -0.2903619  -0.1063951  -0.2307050  -0.1879042
  -0.3012647  -0.0207685   0.7293710  -0.8425809   1.5316001  -0.6103407
   0.1185478  -0.0736610   0.1369053   0.5552278   0.8473412  -0.3694197
  -0.3751622  -0.6282110   0.1216690   0.5668793   0.2851702   0.2299438
  -0.1186552  -0.0601212  -0.4571770  -0.0705363  -0.9460823  -0.0001274
   0.1624331  -0.2558224   0.2268727  -0.0786309  -0.1780480   0.2824965
   0.6107365   1.1353145   0.2796182   0.0213693   0.2057151  -0.0859631
   0.7451306  -1.1747860   0.1495973   0.7626974   0.3632883  -0.7138164
  -0.0273998  -0.1279784   0.0187051   0.3514256  -0.1950527  -1.0979424
   0.1010216   0.1871420   1.6827283  -0.2341068   0.0691895   0.1633021
  -0.1502891  -0.3814091  -0.8449450  -0.3607888  -0.2296891  -0.1110417
  -0.0080952  -0.1757289   0.2763919   1.4469313   0.1359327  -0.3185749
  -0.2694881   0.2303519   0.0081972   0.3515568   0.1246264   0.0258591
   0.4566982  -0.5253098   0.3447107   1.3069409  -1.1381526  -1.2087725
  -0.2800310  -0.1557776  -0.0424574  -1.2175412   1.1987474  -1.0244796
  -0.4162039  -0.8180849  -0.1939174  -0.0561555  -0.0760309  -0.4800516
   0.0340166  -0.9533154   2.2086904  -0.0419411  -0.5127357   0.2894327
  -0.2398288  -0.0657799  -0.2655626   0.3918629   0.8278008   0.5467705
  -0.0955756  -0.1230172  -0.2650680  -0.3196976   0.0101097   0.3075323
   0.9815716  -0.6628150  -0.3587360  -0.1172429  -0.1528061  -0.0509267
   0.0740603  -0.0935006  -0.0594767   0.4327116  -0.2990748   0.5389086
  -0.7140108   0.9452731  -0.1572264  -0.2351802   0.1197710   0.1486117
  -0.6572752  -0.9642748   0.8440884   0.9892203   0.8007412  -0.3222955
  -0.3248808  -0.0112826   0.3870619   0.2848032   1.3250256   1.1398148
   0.3986848  -0.8988107  -1.2013019   0.0721684   0.0713465   0.1173617
  -0.4813136  -0.0076293   0.3129057  -0.1913194  -0.1984285  -2.2665929
   0.0967453   0.1108088  -0.1696397  -0.8531435  -1.4081974  -1.0186613
   1.3631503   1.9626275   1.0397957  -0.1790979  -0.2099034   0.1641702
   0.7555223   0.1681601   1.2891578  -0.6519554  -1.7823975   0.6901237
  -0.0287695  -0.0030641  -0.1893848   0.3045722  -0.1430198  -0.4618898
   1.1453404   0.0346672   1.9867507   0.0336559   0.3308206  -0.1684047
   0.6079782   0.4423914  -0.6764709   0.5817119  -0.6351487  -0.1037353
   0.1437754  -0.2146062  -0.0762762  -0.0723011   0.1976066  -0.0722399
   0.4082783   0.1662823   0.9795173  -0.2762282   0.1562029   0.3042397
   0.4688784  -0.3431940  -0.1789140  -0.7808162   0.7452522   0.4140581
  -0.1937753  -0.2338808  -0.1551946   0.3779913  -0.5745125  -0.3020686
  -1.2874707   0.5565909   0.6617332   0.1786806   0.0770827   0.0117261
   0.5074585   1.3171380   0.3566543  -1.6390092   0.6986841  -0.9263902
  -0.2503435   0.2299823   0.0852742   0.3658631  -2.0858014  -0.3231537
   1.2765075   1.2131397   0.2684587   0.1549562  -0.0416290  -0.2459812
   0.2048251  -1.1665946   0.2601476   0.4548738   0.5942995   0.0265689
  -0.0253916  -0.1209980  -0.1900288   0.6579615   0.3007692  -0.0152092
  -0.1264723  -0.1859236  -0.4583815   0.1327570   0.0649445  -0.1524570
   0.9455543  -0.4228374   0.5474256   0.6013066  -0.4650903   0.1460791
   0.1174423  -0.1634224  -0.1488802   0.4637586   1.2653353  -0.4305268
   0.8639438  -0.3405694  -0.5265526  -0.0429123  -0.2945979  -0.1776636
  -1.1184121  -1.7193727  -0.1677814   0.0901990  -0.6369628   1.1954895
   0.1807580   0.1290701   0.1978863  -0.6082504  -1.0696157  -0.3149770
   0.7590885  -0.0460931   0.6110470  -0.2420214  -0.2347850   0.0803906
  -0.0662662  -0.3123264  -1.1579803  -0.9213417  -0.8436663   1.0795063
  -0.1973105   0.0056810  -0.0980222  -0.0994480   0.0230102  -0.3166190
  -1.5311468   0.3945925   1.1099542  -0.2745468  -0.3119853  -0.0590235
  -0.6024320   1.1818967   0.2718448  -0.7663848   0.6526160  -0.0682095
  -0.1279090  -0.0533819  -0.1693792  -0.5098410   0.7690925   0.0778206
   0.4334360  -0.5687256  -0.3034265   0.2041206   0.0023591  -0.0726265
   0.8612414  -1.3934199  -0.6255173  -0.0949655   0.0374778   0.5655535
   0.0406258  -0.1720970  -0.1589110  -0.5542010   0.3861445   0.7473194
  -0.1258940  -0.0959091  -1.8842434   0.1527486  -0.1800039   0.0617633
   0.4848720  -0.7693647  -0.1237650   0.1110201   0.4024507  -0.5249764
   0.0350230   0.0153578   0.2495429  -1.3921576   0.4160055   1.9523421
  -0.1181174  -0.7519083  -0.5135266   0.1792218   0.1441884  -0.1204983
  -1.0592977  -0.1529757  -0.9365160   0.0651955   0.0335297   0.1001784
  -0.2953261  -0.0055639   0.1050526  -0.0256288   0.0652352   0.1884452
   0.5705713   0.3503809   1.2550843   0.2168504   0.0051746  -0.1735313
  -1.8100595   0.3114954   0.0036931   0.4353555  -0.1102646  -0.1105033
  -0.0950301  -0.3791683  -0.0595494   0.7021536  -0.7257743   1.0390299
  -1.5103481  -0.2254405   0.8062141   0.0982491   0.0569991  -0.2205411
  -0.0024097  -0.1350612  -0.0141413  -1.2148472  -0.2929477  -0.7947243
  -0.0359644  -0.4239737   0.3316437  -0.8234864   1.1726285  -0.7084935
  -0.5849534  -0.6572835   1.1699089   0.1501084   0.0854931   0.1196864
   1.0711398   0.3584210   0.8147351   0.0376710  -0.5787375  -0.2004144
  -0.2087216   0.0672475   0.3576471  -0.9982853  -1.2590497  -0.5522042
  -0.3997077   1.3874306   0.3239481   0.1244350   0.0799457   0.0602834
  -0.8810834   0.4343303   0.1718102   0.4572156   1.0178597  -1.1325683
  -0.1478854  -0.0247823   0.2029261   1.6000031  -0.1130487  -0.2724353
   0.2752368  -0.1982455  -1.2851683   0.1100986   0.1205327   0.2034854
  -1.1013404  -0.1047628  -1.0864116   0.4985318  -0.2370618   0.8529425
   0.0793308   0.0578495   0.0627408  -0.5131654   1.1274943   0.7795867
  -0.8077270  -1.6376047   0.5002820   0.2876233  -0.3216728  -0.1546553
  -0.0589303  -0.4435709  -0.1610846  -0.3573877  -1.0842639  -0.4759024
  -0.0571930   0.0918575   0.2740251   0.4525521  -1.2914751  -0.8930551
   2.1399494  -0.6630056  -0.3424714   0.1654726  -0.2737774  -0.1001545
  -0.7555354   0.0036148  -1.1106496   1.2027073  -1.2716851  -0.4326018
  -0.3962988   0.1553110  -0.2794271   0.8345610  -0.9278303   1.6320207
  -0.3531662   0.0536836   0.5693681   0.1236882  -0.0671474   0.5067654
   0.1269410   0.5262582   0.1623443   0.2502394  -0.6793689   0.5791659
  -0.1203974   0.1002346  -0.1543723  -0.4119832  -0.3073521   1.0338141
  -0.3060364  -0.2885434   0.0039033  -0.0528689   0.3352365   0.1235716
   1.2839883   1.8676822  -0.3382465   0.9860790   0.2409075  -1.4518518
   0.2543597   0.0185803   0.1463560   0.1464249  -0.9839696   1.0781586
   0.5610014  -0.2554111   0.1571076  -0.0344190  -0.1966829  -0.0067746
   0.4205130   0.5205986  -0.1200165  -0.1004805  -0.5261855  -0.6513940
   0.3458735   0.0674445   0.1055813   0.0498541  -0.3585680  -0.1589312
   0.7350078   1.0157105  -0.1576402  -0.4364433   0.3313904   0.2339109
   0.9071177  -0.6691915  -0.0292877   0.3461577  -0.9844681  -0.5485635
   0.0529278   0.5120452   0.2265907  -0.1856238  -0.9349907   1.3763935
   0.2971876  -0.3193200   0.5428088  -0.1761089  -0.1371969   0.0829281
  -0.8478964  -2.2977071  -0.0331901  -0.3852703  -0.1398659  -1.0075224
  -0.0976768  -0.2763491   0.4626213  -1.1133336  -0.9490772   0.2235109
   0.2916645  -0.3008341   0.3299670   0.1320334  -0.1058366  -0.0273903
  -0.6000931  -0.6592850  -0.3475459  -1.2949583  -0.0365442   1.4199789
   0.1024372   0.2800765  -0.2680589   0.8521146  -1.1612666   0.9040913
   1.6459955  -0.2453283   1.2172002   0.0090009  -0.4342135   0.0989001
  -0.1390621   0.3757272  -0.2282874   0.1337029  -0.5452944   0.1831526
   0.0143443  -0.1473370   0.0224718   0.7530286   0.2577338   0.1246806
   0.7199650  -0.0890143  -1.4213999  -0.1772585  -0.0569628   0.1990991
  -0.5738634   1.6110590  -0.0289176   0.0811184  -0.1179086  -0.9413957
  -0.1175156   0.1720653  -0.0715708   1.6612563  -0.3423671  -0.6969387
   0.5689666   1.4523021   1.0626207   0.1864383   0.0509511   0.2828350
   1.2280767  -0.4607402  -0.0018375  -0.6534988   0.7898352   0.2008904
   0.3314431   0.1646126  -0.0842787  -0.7243363   0.2086667   0.5388973
   0.3475751  -1.4852223  -0.2436072  -0.0209390  -0.0938540  -0.0199035
   0.0035879  -0.1615586   1.1211162  -0.4633511   1.3120066   0.2092712
   0.2368801  -0.1790309   0.1634496  -0.1715423   1.2625386   0.1448172
   1.4062243  -0.0786841   0.9366431  -0.4355857  -0.2090168  -0.1407022
   0.5629896   0.6820270   0.7730903   0.1284952   1.2470003  -0.1835865
  -0.1120403   0.0552325   0.1529667   0.6642158  -1.1203773   0.3256306
  -0.2153987   0.6723368   0.4028658   0.3237744   0.0257881   0.1228599
   0.4889328  -0.5425134   0.2679771  -0.0418385  -0.7613155   0.6203072
   0.3525822   0.0161433  -0.0397671   0.4549357   0.1158339   0.2501740
   1.2820483  -0.4267211  -0.2745022  -0.0853279  -0.1045900  -0.0309041
  -1.2263391  -0.1868573   1.3854621  -0.1376417   0.0416940  -1.5914193
   0.4083973   0.1959310   0.1837646  -0.1161114   0.5504681  -0.6188519
  -0.5402820  -0.9138061   0.1165085   0.0100005  -0.0980236  -0.1276292
  -2.1675761  -0.4292668  -1.9586750  -1.7722673   0.4761706   0.5897641
   0.1586028  -0.1612711   0.0799849  -0.1029801  -0.3470932   0.5912381
  -0.9113236  -0.0837070  -0.2091215  -0.1519351   0.3006615   0.0189522
   0.6185962   0.6449574   0.3891451  -0.0786451   0.0805129  -0.1347602
  -0.1519615   0.0970345   0.0436548   0.3125461  -0.5269150  -0.0838177
   0.5784564  -1.8799321   0.9727466  -0.3169398   0.3979783   0.0620195
   0.6829740  -0.4153302   0.7210891  -0.6940192  -0.0582417  -0.0926215
   0.1942734  -0.0172503  -0.0172352   0.4257457   0.4121878   0.1701242
   0.4495398   0.7025432   0.7779925  -0.2197007  -0.2078965   0.2111734
  -1.1722551   1.0480632  -0.3974060  -0.2230030   0.8102298  -0.8134207
   0.1022387   0.0969844  -0.0992227   0.2664538  -0.1085343  -0.1178690
  -1.0900652  -0.8592495  -0.3836970  -0.3007288  -0.1751389  -0.0693933
  -0.1566858   0.9075775  -0.6078680   0.1040083   0.5583211  -0.3929841
   0.0937682   0.0966158  -0.2988884  -0.6720100  -0.5293055  -0.7944936
   0.8781515  -1.2075832  -1.1462474   0.2448222   0.0820663   0.2377736
  -0.8085321   1.7482299  -0.0643171   0.0172816  -0.8247711   1.0095434
   0.3555856   0.0772663  -0.1912720  -0.3430987   0.6822859   1.0604852
  -0.0199159  -0.3664314   0.7377665  -0.1634213  -0.3301197   0.0690325
  -0.9665749  -0.3930450  -1.4509540   1.1380659   1.1689356  -0.6862216
  -0.0179536   0.0312571   0.1280069  -0.4539362  -0.4090257   1.5321486
  -1.3654576  -0.1072003  -0.4442128   0.1334174  -0.0160372   0.3052940
   0.5291117   0.3820187  -0.8491867   0.5013930   0.0034082   0.9103544
   0.0848974   0.0018077  -0.1130153   0.6233007   0.8962351  -0.6183296
   1.6188396   0.5066992  -0.4732639  -0.1384941   0.3096061  -0.1320432
   1.6334363   0.9260257   0.5367854   0.2420867  -0.2884240  -0.5503998
   0.2648598   0.2633801  -0.0388689   1.0879034  -0.5281464   0.7136237
  -0.3793859  -0.0551447  -0.3788725  -0.5750785   0.1124723  -0.3147551
  -0.8034276   1.0406434  -0.0008348   1.2218668  -0.0604463   0.0453925
  -0.3488575  -0.3092646  -0.0291586   0.7942619  -0.2213561  -0.6004251
   0.7081343   0.5704629  -1.3325990  -0.1429786  -0.1089351  -0.0706470
   0.3411022  -0.5428881   0.0251473  -0.9814299   1.2898147  -0.4676457
  -0.1790984   0.2151199  -0.1205304   0.6907620  -0.5116595   0.1953770
  -1.0288737  -1.2787442  -0.1415425  -0.0043100   0.0789955   0.1935023
   0.1323708  -0.1631592  -0.1943503   0.8313654  -1.0069119  -0.4091279
   0.0276945  -0.2513513  -0.0931301   0.6070801   0.5001482  -0.4649222
  -0.2961819   1.0318998  -0.2274016  -0.2037145  -0.2962307   0.0861903
   0.6385780  -1.1171411   0.3896475   0.7534836  -1.3620457  -1.6494748
   0.1252041   0.0561743  -0.0196456  -0.0000544  -0.1038366   0.4008487
   0.0987815  -0.6114973   0.4012627  -0.1662007  -0.2858521  -0.3034065
  -2.2507622  -2.5902461  -0.1138323   0.8442086   1.0521209   0.2853961
  -0.2142250   0.2844132   0.2054046  -1.5733273   0.3397794   0.7103587
   0.8656595   0.9774422  -0.1336555   0.4156385   0.4912999  -0.0712495
   1.1015626   1.0361614  -0.8055912   0.0894043  -0.3542138  -0.6142410
  -0.0539285   0.2642843   0.2313670  -0.6398968  -0.6275517   0.6361491
   1.4354100  -0.9980644   0.6819379   0.2198844  -0.0982313  -0.0855844
  -1.0074107   0.3315553   0.2139443  -1.8587529  -0.4330964  -0.4195677
   0.0346383   0.0560611  -0.2912586   0.8648422   0.2097516  -0.4691690
   0.7915408   0.2389677  -0.2504531   0.4626437  -0.0828414  -0.3213434
  -0.6033459   0.3722242  -0.4624454   1.5650035   0.8276873   0.3696244
  -0.0062779   0.1884424  -0.0864577   0.2673294   0.0716913  -0.5012277
   0.9505485   0.3294604  -0.3111624  -0.0677840   0.2794654  -0.1563545
   1.0638664  -1.2037869   0.0067825  -0.4630192   0.8092329  -1.1489949
   0.0044254  -0.0101576   0.2890098  -0.5637545   0.0081378  -1.4342908
  -0.8994682  -0.5495268  -0.3277562  -0.1926932   0.1109613  -0.1534047
  -0.3344238   0.3426342  -0.0973294   0.3271529   0.8364989  -0.5349718
  -0.0439093  -0.2549700  -0.2255167  -0.5920518   1.4002278  -0.0629681
   0.8599056  -0.2728365   0.1459666   0.3549421  -0.0357007  -0.1226097
   1.3311257   0.4286456   2.1764468  -1.5378298  -0.0829394  -0.1080818
  -0.1909429  -0.1036460   0.0311849  -0.3577338  -0.2457657  -0.3234110
  -0.5632115  -0.4809418  -1.2356793   0.3475761   0.3032476   0.1208045
   0.7798464  -0.9395154  -0.4537817  -0.1456650   0.0583218  -0.7192942
  -0.5206629   0.0943518   0.1001328  -0.5538209   0.0952414   0.5715093
  -0.7060444   0.6097445  -0.5438484   0.0461802  -0.0987221   0.0165287
   0.5401500  -1.4243072  -0.7043614  -0.0387371  -0.6207313  -0.1787141
  -0.3421336   0.2348564   0.2673197  -0.1409177   0.1035296  -0.9346264
  -0.7307721  -1.0168726   0.0776911   0.0238426   0.2651930   0.0620311
   0.6192941  -1.3675917  -0.7904581   0.4095644  -0.3934238  -1.5862334
  -0.1855816  -0.0356742   0.1153418  -0.1011068  -0.2750494   0.5684494
  -0.7760705  -0.6073462   0.7387309   0.0378707   0.0202052  -0.0453793
  -0.3490052   1.1645538   0.7153532  -0.0714365   0.0996142   0.3314474
  -0.0303765   0.2589299   0.2301452  -1.2777868  -0.1414817   0.0382847
  -0.7844921  -0.8444034   0.9767878   0.0686643  -0.0071647  -0.0450480
   0.7733928  -0.4537017   1.2596110  -1.2971365  -0.6671942   0.6117032
   0.0410617  -0.4065127   0.3656203  -0.8179099  -0.7794502  -0.0892250
   0.1345841   0.4638964   0.0285132   0.0979819  -0.2133910  -0.4447941
   0.2876780  -0.6386692  -0.7647400  -0.2623739   0.3416140  -0.1274047
   0.1304974  -0.0780947  -0.5235613   0.1748636   0.1907576  -0.1263422
  -0.2123793  -0.7369810   0.2042875  -0.1168272  -0.1394139   0.0211124
   0.2380937  -0.8984255   0.2662580   1.1132116   0.1086786   0.5191573
  -0.1385871   0.2562628  -0.1937092  -1.2895900  -0.1651246  -0.1564993
   0.2754365   0.6287794  -0.1014322   0.1626844   0.0295059  -0.1999632
   0.1936479  -1.1778697  -0.2745566  -0.0775383  -0.2500964   1.2608268
  -0.0651191  -0.0993309   0.4305867  -0.7365628  -0.8256971   1.0113667
  -1.0148095   0.6074439   0.2293321  -0.1720816  -0.2405394   0.2545162
  -1.2977810  -0.8668095  -0.5000863   0.8546987   0.5093113   0.5032891
  -0.1118951   0.0814501  -0.0393928  -0.3257070  -0.3766626  -0.6575082
   0.7853520   0.2721718  -0.8245759   0.2204044   0.1345693   0.3898796
  -1.0575273  -0.4340690  -0.1449125  -0.8637883   0.2909665   0.6842174
   0.0301701   0.0311015   0.0817819   0.9393187   0.1036918  -1.0422945
  -1.1668184  -0.3608866   0.4916646  -0.0521381  -0.1178065  -0.2972835
  -0.9343678  -1.4500153  -0.1415498  -0.7547344   0.4496359   0.9753692
   0.1224013  -0.2523487   0.1965670   0.9943053  -0.0653959  -0.3417865
  -0.1383245  -0.9102871  -0.6741340  -0.0370035  -0.0774459  -0.1521313
   0.6848657   1.9417193   1.2231952  -0.0249726  -0.0505160   0.3819132
  -0.0990892   0.1549843   0.1247990  -1.2552473  -0.2986458   0.4479513
   0.3422358   0.4893585   0.9429570   0.0096768   0.1955260  -0.1752876
  -0.7872119   0.1093580   0.0485828  -0.0548338   0.3738816   0.9554950
   0.1197450  -0.0599636   0.0937597  -0.8774430   0.6227139  -1.0465941
   0.4267947   0.1029033  -0.8067126   0.1246049  -0.2624500   0.1436061
  -0.3334509  -0.0219087   0.4514574   0.3604853  -0.3078093   0.4741785
   0.2178922  -0.0656004  -0.1683200  -0.7945495   0.3595917   0.3167970
   0.5275569   0.3317271  -0.2574683  -0.1848342   0.1607404  -0.3996158
   0.2419838   1.0642777   1.3092910  -0.5033668  -1.1463230   0.3302094
   0.1356257   0.2128654   0.1517620   0.0948508   0.5449461   0.9760047
   0.8856004   0.1566982   0.2371834  -0.2129783   0.2868391  -0.1354675
   0.2015401   0.0968408   0.2767624   1.0834766   0.5122083   0.1073858
  -0.2270442   0.0905464   0.0012091  -1.0186415   0.1489833  -0.3744331
   0.3489862  -0.1633078  -0.3756295  -0.1616995   0.2802997  -0.1256275
  -0.1948471  -0.2122423   0.0861621  -0.0241618  -0.0807607  -0.0169766
   0.1984130   0.4407159   0.2579320  -0.8549106   1.0175347   1.2026194
  -0.3797930   0.7807566  -0.2432726  -0.0262166   0.4306909   0.4115717
  -0.1170778  -0.1580497  -0.4067213  -0.6643742   1.0831452  -0.4367268
  -0.4017870   0.0269060   0.0682099   0.2519002   0.9000299  -0.2154470
   0.9218304   0.1588601  -0.2088122   0.3303952   0.2711463  -0.1185135
  -0.2440854  -0.0481054  -0.0619313  -0.2212975  -1.2430326   1.3468870
  -0.3061461  -0.0042592  -0.0206495   0.3537006   0.9311275  -0.5648090
  -0.3454085  -0.5784078   0.7470088  -0.4054400  -0.1373128  -0.1092204
   1.0352789   1.1815615  -0.3287010  -1.4803763  -0.4322942   0.6847945
   0.0249356   0.1164586   0.2314246   0.8094143  -0.0472585  -0.3423825
  -0.2446005  -0.9056756  -0.1804509   0.1764487   0.1253295  -0.0062613
   0.3504795   0.1090512  -0.0378591   0.1452646   1.9770117  -0.2268804
  -0.1569020   0.1057455  -0.1845055   0.3913854  -0.1734179  -1.0281112
   2.4777071   1.4265271  -0.4579250   0.0026893  -0.0633430   0.4438994
  -0.0347773   0.7220358   1.4880082   1.2605484  -1.2217802  -0.0482917
  -0.0549420   0.3000778   0.1660830   0.7994832  -1.0322030   0.5487859
  -0.0583198  -0.7713627   0.2758641  -0.1415775   0.1094689   0.0158005
   0.7975760   0.3403982  -0.6261430  -0.5164364  -0.7261535   2.2802682
   0.2285017  -0.2100307   0.1760965   0.6283125   0.6413081  -0.5111004
   0.7039293  -0.9439146  -0.3251637   0.1087779  -0.1705083   0.2557753
   1.4810538   1.5785562   0.2808167  -0.4454585   0.2530718   1.1313031
   0.0429229   0.3692496   0.0068326   0.1518041   0.6788798  -0.1700071
   0.3193698   0.6789206   0.5900943  -0.1305653   0.0623821  -0.0819460
   0.1715611   0.5494119  -0.0882502  -1.1109178   0.7112334   0.3200160
  -0.2516512  -0.2106218   0.0486888   1.0892674   1.2036625   0.3640994
   0.2820093   1.0526860   0.9590597  -0.0640064  -0.0678001  -0.2704394
   0.4606418   0.5487958   1.3447117  -2.0012272   0.1888090   0.2864957
  -0.0138519   0.2832409   0.1657303   0.1041128  -0.6861463   0.0430008
   0.3958161   0.4460889   1.0732121  -0.3354992   0.1142134   0.0358947
  -0.3918303  -0.0836044   0.9260746  -1.3214638  -0.6284467  -1.0553673
  -0.2605211  -0.0993468   0.0635483  -0.8434966  -1.5544445  -0.0252054
  -0.4851018   0.6709674   0.4578897  -0.1858594  -0.2814941   0.1122404
   0.1585091  -0.1153017  -1.0458118   0.6171770   0.9436993   0.7774345
   0.3037829  -0.1420887  -0.3408170   0.5611169   0.2206483  -0.1696674
  -1.9246175  -1.2389586   0.0126599  -0.2697814   0.1517338  -0.2009081
   0.6380506  -0.4281990   1.3231104   0.4250611   0.9953648   0.0554023
  -0.6962264   0.1877280  -0.1134781   0.5983722  -0.0215549  -0.2668807
  -0.6652437   1.0095821   0.5014642   0.0709502  -0.2155245  -0.3922566
  -0.3933856  -0.1311482  -0.2291131  -0.6566947   0.2181773   0.4020076
   0.2462350  -0.0659761  -0.2421858  -0.3339959  -1.8306011   1.8049491
   0.2184860   0.0098169   0.7430941  -0.1687627   0.3301951  -0.4482451
   0.6741741   0.4028883  -0.8267213   1.5042875   0.2904397  -0.4711604
  -0.0508238   0.0793808   0.0188668   0.1190692  -0.2042871  -0.1208054
  -0.4019259  -0.9743691  -0.4602334  -0.0466665   0.3031521   0.0402301
   0.3904301   0.4619983  -1.5024429   0.3148179   0.6623299  -0.3228050
  -0.2494317   0.0720050  -0.0035628   1.2650329  -0.3218705   0.8034986
  -0.2198973   1.4474900   1.0252173  -0.2838682   0.1469700   0.0823436
   1.4528835  -0.8799361  -0.7259494  -0.0260478   0.0708001   0.3294511
   0.0264342  -0.0300728  -0.0796467  -0.0765270   1.5299473  -1.1592399
  -0.6978971  -0.7113904  -0.2549083   0.1588384   0.1694136  -0.0069241
  -0.2929882  -1.1615927  -1.2104632  -0.0488275  -0.6009731  -0.9657655
   0.2747900  -0.4026524   0.2040837   1.7438687   0.5086457  -0.9875151
  -1.2750619  -0.1978116  -0.2339987  -0.1316019  -0.1881280   0.3348469
   0.8210241   0.6322068   0.1947847   0.4991632   1.9092415   1.6407876
   0.0459986   0.1605350  -0.0319958   1.0448371   1.1347454  -0.0898285
  -0.5580195  -0.6429552  -0.4899996   0.0811606  -0.0656662   0.1025597
  -0.9827278  -0.0282257  -1.0333482  -0.6760082  -1.0263909  -0.0974100
   0.2605513  -0.2178312  -0.2344479  -0.0436567  -0.0219706   0.1012988
  -0.7778477   0.9416520  -0.8080491  -0.0828167  -0.3191112   0.0929905
  -0.3931035   0.2560744   0.2457172  -0.0705129   0.2438560  -0.1318674
  -0.1793082   0.0368017  -0.0290207   2.0129192   0.3264346  -0.1284412
   1.2248859   0.8015644   1.2997820   0.0237312  -0.2730154   0.0200851
  -1.2401553   0.0474645   1.3346944  -0.3715236   2.1981044  -1.2840688
  -0.4527737   0.2566448   0.0307150   0.8011627  -0.6000887   0.0367715
  -0.5163928   0.0214262   1.2305838   0.1847864   0.3887034  -0.0023961
   0.3064374  -0.2241516  -0.5555030   0.0413574   0.3218598   0.9324299
   0.0632633   0.3858236   0.3452627   0.8548048  -0.7103684  -0.0004691
  -0.3684932  -0.0862318  -0.1820468   0.0374787   0.5820303   0.0356641
   0.4330160  -0.5740978  -0.1103829  -0.1964123  -0.7883591   0.0102187
  -0.2829069  -0.1430442  -0.1630415  -0.9812138  -0.1526056  -0.8318223
   0.6894861   0.3895228  -0.1705418  -0.1585128  -0.2420243  -0.0534566
   0.7230800  -0.8843396  -0.2704324  -0.2874079   0.8327641  -0.7053281
   0.3008793  -0.3045442   0.1690848  -0.2415811  -1.3378690   0.4747195
   0.0984614  -0.9109970  -0.6127492  -0.0710209   0.5933327  -0.1450293
  -0.8626269   0.7865732  -0.1055103   0.6381508   0.6953958   0.4805961
   0.1661112   0.1723296   0.4296363  -0.8387579   0.2513081   0.6459648
  -0.2210810   0.2420264   0.0628560   0.2232428  -0.1855866  -0.0099317
   0.5435313  -1.4499638   1.5826265   0.3568103  -1.5755788  -0.2035484
   0.2819708   0.1148994  -0.2207994  -0.5827937   0.3013085   0.7791331
  -0.0888254   0.6504537  -0.5009480   0.1495654  -0.2436205  -0.0091719
  -0.8079633   0.2467364  -0.0786486   0.6915449  -0.2911463   0.2725396
  -0.0517509  -0.0581371   0.0924234  -0.0162350  -0.0245729  -0.3317947
   0.2746014   0.3318578   1.2038900   0.2301460  -0.2238009   0.3759446
   1.4473446  -0.7164540  -0.7503533  -0.5858675   0.2567524  -0.2217775
  -0.2297990   0.0089742   0.4103048   0.3348295   1.1180565  -1.1696664
   0.6734247  -0.2543167   0.0807868  -0.0530900   0.0354042   0.1161534
   0.0487915   0.5637885  -1.0407851  -0.5343458   0.1747471   0.0105993
  -0.1732795   0.1046946   0.3586785  -0.4866553   0.2710644  -0.1740982
   0.5627974  -0.4942292   0.3543444   0.2146881   0.0077031   0.0461748
  -0.3438739   0.1162007   0.0407282  -0.7190072  -1.4020008  -0.2579388
  -0.2814528  -0.3877816   0.2620718   1.0738881  -1.2294938  -0.5788253
  -0.5257656   1.1146362   0.8389234   0.2854079  -0.1741133   0.0084446
  -0.4378077   1.5433920  -1.1068843   0.3530644   0.7028609  -0.2698556
   0.5461655   0.1802721   0.0673900   0.6305315  -0.3029115   0.2467906
  -0.9242831   1.0270139   0.8828446  -0.2732071  -0.0113652   0.0442540
  -0.6252580  -1.3462748  -0.3057725  -0.1833212   1.3600692  -0.4154997
   0.1048376  -0.0930694   0.1279573  -0.7905357   0.6858937  -0.6698698
   0.1279590  -1.8635808   0.3484419  -0.1255006  -0.0795289  -0.3220427
   0.3701140   0.2919790  -0.6293612   0.1715304  -1.0504666  -0.6566338
   0.0157612   0.0595805  -0.3660399  -0.2109169   0.5045969   0.2371643
  -0.9911941   0.3807335  -1.4030604  -0.0788316   0.0497542  -0.0460102
   1.0896966  -0.6177099  -1.1009541   0.7232698   0.9254115  -0.3986457
  -0.0226228  -0.0110608   0.1669097   1.5312879   0.7756075   1.2503130
   0.2943545   0.1778592   0.0067684  -0.0313899  -0.2011387   0.3803078
  -0.2806728   0.0448164  -0.4278494   0.3553407   0.5592382  -0.8627318
   0.0412918  -0.0692569   0.1631343  -0.7531127  -0.3279343   0.8790410
   0.1344701   1.3288888   0.4248877   0.1686180   0.0994358   0.0553766
   1.7362364  -0.0621019   0.5701082   0.8254001   1.1560446  -1.1457480
  -0.0972463  -0.1515388   0.0714728   0.9729289   0.5985139  -0.0143269
  -0.1672327  -1.5845561   0.6896552  -0.1903223   0.6461839  -0.2717641
  -0.8906951   1.4939018  -1.4504234   1.4718626   0.6109333   0.6628095
  -0.0428142  -0.2522358   0.2360504  -0.6303686  -0.3066758  -0.6214104
   0.6901231  -1.2910157  -0.3920689  -0.1207881   0.1137371  -0.5037085
   0.7736167  -0.0391775  -0.8082508   1.5235868   0.8714988  -0.4031690
   0.2809596  -0.1585757  -0.1613575   1.0028127   1.4166811   0.2842229
  -0.7956677   0.1673164   0.2475168   0.2545418  -0.2073161  -0.0533182
  -1.3770453   1.2770057  -0.6723564   0.7048621   0.6426299   0.2698785
  -0.4161151  -0.1213187   0.1803065  -0.9133442  -0.8493509   0.0543929
   0.4656821   0.2970471  -0.2268788  -0.2826701  -0.0651820  -0.0492503
  -0.3313180   0.0753176  -0.4354093   0.3385706  -0.1603257   0.3351301
  -0.0023247   0.2032846   0.0544710  -0.6399342   1.0228313  -0.0280041
  -0.1511936   1.1500537   0.6816456  -0.4054271   0.2471283   0.1453940
   0.7083485   0.0234780   0.7652682  -0.0520578  -1.1754059  -0.4822061
  -0.0674486  -0.0827026  -0.0924546   0.1049179  -0.7271134   1.4863145
  -0.2180402   0.6526409   1.7571518  -0.2535798   0.0173312  -0.3658536
   1.1821409  -0.4260844   0.1870557  -0.1243096   1.0360692   0.7229014
  -0.0583485   0.2121999  -0.1362263  -0.1681518   0.5718469   0.2200235
   0.5144287  -0.9646319  -0.3559408  -0.1170350   0.0810831   0.2198117
  -0.5234527  -0.6952473  -1.4254157  -0.2554917  -0.8316679  -1.4596719
   0.1131743  -0.2131304  -0.2789598  -0.2771139   1.4305076   0.3619599
  -0.2741816  -0.1489580   0.5009432   0.1042770  -0.0221279  -0.0878692
   0.0269254   0.7089796   0.5527413  -1.4235667  -0.3785454  -0.1290455
  -0.1271437  -0.0985227  -0.1762843   0.0954843   0.7836649  -0.0765740
   0.1489891  -0.1374321  -0.2345872   0.1668658  -0.2733248   0.1538670
  -0.6358684  -1.6429358  -0.9827234   1.0898264   0.3443369  -0.3364012
  -0.0437761  -0.1076331   0.1818631   0.2833969   0.7217921   0.3818550
   0.4283435   0.5018354  -0.7635835  -0.0126638  -0.0128289   0.3842096
  -0.3537773   0.2207751   0.6932564   0.0573403  -0.4531420   0.2098877
   0.2583684   0.0534933  -0.2135624   0.0793367   0.2429109   1.7284804
  -0.2231397  -0.2440314   0.4889300  -0.2375648   0.4227593   0.3117914
  -0.4662608  -0.6102420   0.6907186  -0.5815576   0.3187875  -0.6251817
   0.4022582  -0.0018301   0.0429824   0.8977629   0.6741578   1.1970909
   0.9112066  -0.0072183   0.8112039   0.0136357  -0.0542717  -0.0279604
   1.1029485  -0.0669125   0.2444129   0.2931084   0.1730392  -0.5211247
  -0.2788316   0.3221494  -0.2579635  -0.0431558  -1.5197685   0.1899846
  -1.2637013  -1.5505026   1.5124938  -0.1131079  -0.0814535   0.0843204
   0.8496059   0.5067058  -0.3442418   0.9280870   1.8292313   0.1757639
   0.2680925  -0.0606328   0.0859125  -0.5082772  -0.9858227   0.2130447
   0.8274084   0.4233339   0.4649279   0.0059596   0.0778642   0.0207447
   0.5407400   0.1347245  -0.7074049  -0.1718208   0.3812109   0.2080026
  -0.0628252  -0.1439002   0.1753921   0.3630838   1.1683414   1.6340198
  -0.5857757  -0.6242728   0.6970291   0.0764377  -0.0373417  -0.1170012
   0.7543136   0.0603557   0.7529896  -0.2589662  -0.6805302  -1.4777422
   0.2704629  -0.1690819  -0.2177939   0.2710307  -1.0704913  -0.0456725
   0.0054853   0.5525535  -0.4788226   0.1501894   0.1483191   0.1572238
   0.6528617   0.4303048   0.5143485   1.3095151   0.3692951   0.9361759
  -0.1101659   0.1144916  -0.0500973  -0.5348499  -1.3509106  -1.1671214
  -2.6266744   0.0743305  -0.0089119   0.1080807   0.0803206   0.1215301
  -0.5881995  -0.6270935   0.8508114   0.1087503  -1.7355080   1.6424045
  -0.1252918   0.1759102   0.3103057  -0.4279846   0.8714176  -0.4053100
  -0.1170131  -0.9303598   1.4332718  -0.2046041   0.1649804   0.2445166
  -0.0075008   0.5937919  -0.0639657  -0.0343674  -0.4534872   1.3382996
   0.2587132  -0.0429826   0.0477023   0.3529123   1.9941991  -0.8817554
   0.3272949   0.9265914   0.7594019   0.3073533   0.3194046  -0.0781812
  -1.1336342   0.3686642  -0.0307275  -0.0834487   0.8513079  -0.6112691
   0.0181399   0.3205858   0.0704095   0.1984058  -0.8930705   0.5685395
   2.1690441   0.5725913   0.0104144   0.1282292  -0.1891272   0.1017102
   1.1993959   0.4985141   1.0079107   0.7833975   0.8515187   0.4296145
  -0.1881048   0.1120276   0.0798654  -0.8971477  -0.2314012   0.7356382
  -0.5040575  -0.4585913   0.4085453  -0.2278223   0.0583281  -0.0227453
   0.6980848  -0.5480511  -0.4494447  -0.0849003  -0.6376085  -0.2810861
   0.0147488  -0.1343932   0.3223230   0.0920066   0.1037136   1.3345902
  -0.3678449  -1.4769028   1.0595380  -0.1468064   0.0288067  -0.0027741
   0.9482799   0.7923384  -1.3093875  -0.3150365   0.2257795  -1.1446283
   0.0652346  -0.1532732  -0.0968244  -0.3487383   0.0792790  -0.1781329
  -0.0966059   1.3745151   0.7545803  -0.0527278  -0.0435920  -0.0074450
  -0.6933921   0.8248803  -0.7902356  -0.1841934  -0.2400717  -0.3774893
   0.0886620   0.0229294   0.0680740  -0.7687600  -0.9621978   1.4219826
   0.3931860   0.0026224   0.5415168  -0.1958031  -0.1550405   0.0761530
  -0.0569674   0.0176521   0.5878659  -0.9236940   0.2528409   0.5326598
  -0.0895886  -0.3897084  -0.3917209  -0.4804765   0.9502762   0.1274058
   0.8535647   0.7334400   0.2679214  -0.1032296  -0.1304733  -0.0004896
  -0.2870678  -0.4682185   1.0951443   1.2564792   0.9175820   0.7250845
  -0.1403834   0.0359578  -0.1960304   0.7445274   1.2029114   0.3182482
   1.0759883   0.7866151   0.9163614  -0.3821073   0.0703052   0.0799253
   0.3787343   0.6124132   0.7375086  -1.7021364  -0.3185134   0.7624595
  -0.0364048  -0.2512150   0.0663938   1.1332465   1.0539878   0.2225595
   0.0047527  -0.2359359  -0.8925543   0.1417690  -0.1862326  -0.1420296
  -0.3792338   0.1768489  -0.6586258   0.4567507  -0.6476123  -1.2997666
   0.4148192  -0.1019450   0.1520934  -0.6556594  -1.2616627   0.6312251
  -0.5584461  -0.9551825  -0.7305923  -0.2027459   0.3871568  -0.1924205
   0.2156216   0.0589885   0.7873102  -0.9276835   0.1719649   0.8505234
  -0.1234609  -0.2603706   0.0599720   0.3643960  -0.7628849   0.4628598
  -0.3049669   0.2042460  -0.1424595   0.4492677   0.3238413  -0.1382719
   0.6543600  -0.9929874  -0.1928596   0.4219255   1.1715950   1.3634111
   0.3793655  -0.1448914   0.2746648  -0.0469219  -0.5911023  -0.4880647
  -1.1738115   0.8071709   1.1540077   0.0182526  -0.1001411   0.1536909
   0.9002778   0.2315424  -1.1753809   0.6137772  -1.4131600  -1.6205698
  -0.1270129  -0.1922813   0.2025220   0.6777317   0.4165226  -0.7644880
  -0.2552957   0.3871765   0.2892399   0.1896147  -0.0157533   0.1340436
  -0.1702164  -1.7292545  -0.2046714  -1.0374850  -0.3820760   1.1315173
   0.2107547  -0.3888110  -0.2929616   0.2190117  -0.6470243   0.4228950
  -0.4896126   1.5288317   0.6949799   0.0008029   0.2098358  -0.2310572
   0.8120571  -1.2703704   0.2788358   0.8986291   0.2548223  -0.6805498
   0.0873779   0.5964504  -0.3473739  -0.3820213  -0.3290438   0.4505829
  -1.5417446  -0.3192171   1.4746056   0.0920488  -0.3082182   0.2117487
   0.2747347   0.7618233   0.0823300  -0.1671424   1.6077742   0.3732074
  -0.2366433  -0.0362976  -0.2122301  -0.2722014   0.0879131   1.5591554
   1.0075457   0.0641221   0.9090754   0.2003977   0.0140918   0.1768296
   0.3629213  -0.2648267   0.0920594  -0.9223656  -0.5825535  -0.4785125
   0.0289927  -0.2259422  -0.1216268  -0.9882141   0.0614929   0.0778061
  -0.0216353   0.6209868  -0.6554387   0.0390209   0.2272447   0.0573013
   0.1317268  -0.3945059   0.6936716  -1.1022592  -0.9246003  -0.8900731
   0.1465361   0.0473228   0.2701771   0.8905028   0.6056066  -0.2346897
  -0.7569004   0.0403012  -0.5441700   0.0090367   0.1123999   0.1833340
   0.1705196   0.6299497   1.4281560   0.6483275   0.3028034   0.9354794
   0.1267436   0.1097823  -0.1316895   0.5034224  -0.1823401  -0.5509456
   1.2197158   0.3818779   0.2842020  -0.0765166  -0.3874838   0.1975938
  -0.5677237  -1.1419888   0.1658935  -1.4763469  -0.3347410   1.0320981
  -0.3497425  -0.2544573   0.0960007   0.0037132   0.3215172  -0.7653582
  -0.7650356  -0.5491412   0.8979930   0.0688987  -0.0715552  -0.1139039
  -1.9657423   0.5789529   1.0070602   0.2617772   0.5810429   0.3454823
   0.2704500  -0.0076210   0.0712366  -0.3521073  -0.7675513  -0.5741567
   0.8246183   2.2536163  -1.4625547  -0.0809694  -0.0919394  -0.2517700
  -0.0090004   0.8085510  -1.1768128   0.2905065   0.0087511  -1.0596989
   0.0781347   0.1451585   0.1566806   2.0149571   0.0973307  -0.2952497
   0.8267322   0.5425517   0.5009081   0.2645471   0.2097397   0.2023760
   0.2863955   0.3788866   0.0808219   0.8427537   0.0792557   0.2145669
   0.1138305   0.2572198   0.1686740  -0.1633522  -0.4629960   0.1876000
   0.1195355   0.5658129  -0.2274083  -0.1324779  -0.2011221  -0.2217789
  -0.6226742   2.2490544  -0.2785200   0.4776662   0.2195835   0.7204786
  -0.0523898  -0.4465315   0.0349001  -0.4614915   0.1307728   0.2664616
   0.1610020   1.5625376   0.8796865  -0.1239760   0.2543748   0.0357458
   0.2568144  -0.1799320  -0.0348214   1.1764940   1.1303505   0.4925083
  -0.0771626  -0.0325515   0.0031718   1.3005937  -0.3774472  -0.1163143
   0.8066437   0.7178733  -0.9703109  -0.0163981  -0.0127429   0.1287862
   0.3869543   1.3327704  -0.0648415   0.0536171  -0.0586200   0.1879761
  -0.1390805   0.2441132   0.3214072  -1.2076271   0.3457598   0.6278142
   0.3266736  -0.6363085   1.1981546   0.2444721  -0.1590068  -0.1076928
  -1.0808755  -0.6994797  -0.6770300  -0.7308411   0.5023483   1.4307198
  -0.3038412   0.0905545  -0.0473926   1.0806295  -0.8028438   0.4696132
   0.6182704   1.0002562   0.2294640   0.0432357  -0.0032996   0.0063564
  -0.2928128  -0.1274782   1.2990793   0.4971606  -0.1702698  -1.5488745
  -0.1209530   0.0186096  -0.0810839   1.1551301   1.2224723  -0.3701744
   0.5131392  -0.6616203   0.5521761   0.0209548  -0.4134004   0.1791410
  -0.6564388  -0.8896337   0.3919197   2.1266972   0.6652133   0.1955166
   0.2309957   0.0646290  -0.0819183  -0.7697606   0.5758831  -0.4985832
  -0.6373580   1.0177412  -1.3259548  -0.1043798   0.4789140  -0.0801850
  -0.8067281   0.1488471  -0.2210216   0.8495082  -0.7040947  -0.5528587
  -0.0498198  -0.0881219  -0.1466353   0.9474849   0.7391114  -0.3884012
   0.4645645  -0.1452372  -1.1245274   0.0487175  -0.3233084  -0.1959820
  -0.6612229  -1.0657799   0.1971488   0.3412232   0.3933516  -1.1764951
   0.2473838   0.1069596   0.0834533  -1.0712693  -0.3966818  -0.2929996
  -0.9935370  -0.3056486   1.3281956  -0.3461281  -0.0198414  -0.2022885
  -0.1038719   0.4923019   0.1833584  -0.0438296   1.2447834   0.8722400
   0.0689385  -0.1257330   0.3606497   0.0163652   0.5170366   0.6231057
  -1.1340886  -0.3170280  -0.9067584   0.0088740  -0.0870657   0.0626398
   1.1061436  -0.5318379   0.6376940  -1.1502247  -0.2047590  -1.2683060
  -0.1368907  -0.0847731  -0.0329465  -0.1275987   0.4523260   0.4362468
  -0.3052521  -0.2209943  -0.1910858   0.0667334  -0.3984077  -0.0211194
   1.1844431  -1.1184709   1.7837077  -1.5119931  -0.0839889   0.6608091
  -0.1401499   0.0162220   0.0647225   1.5945309  -0.8241566  -0.7711789
  -0.4766079  -1.2814240   0.4275810   0.1863851  -0.0421835   0.1390847
   1.0379486  -0.2834100   1.4345959   0.2132979   0.4560238  -0.1059768
  -0.2069527   0.0984209  -0.1028355  -0.8730991  -0.1230062  -0.6119225
  -1.7998899   0.4838269  -0.8930190  -0.0117888  -0.0674225   0.2089586
  -1.9625463   0.6345607  -0.8929237  -0.7577792  -0.8141994  -1.5063879
   0.0539794  -0.1677105  -0.2034505   0.4294964   0.4772468   0.4388714
  -0.9892667   0.0001209  -0.6388842   0.2771580   0.0143622  -0.1435454
   0.9736266   0.0645953   0.2536467   1.4362916  -0.1483756  -0.4245747
  -0.2725149  -0.1814500  -0.0926704   0.4176231   0.5723754   0.7021133
  -2.3168615  -0.5890120  -0.0818188   0.1243441   0.0654324  -0.0691746
  -1.4606179   0.2205135  -1.1654856  -0.7053963  -0.0012372   0.3864726
   0.0535181  -0.0063691  -0.1422696  -1.2228469   0.6422220  -0.1932912
  -0.7096187  -0.5007388   0.7387694   0.1883563  -0.1354595   0.3044744
  -0.6506637  -0.6671672   0.1885511   0.5865189   0.4567718   1.3842807
   0.1545549   0.0749184  -0.3033955  -0.0096168   0.4939714  -0.0757322
   0.1394373   0.1725317  -0.6277378   0.0842411  -0.3240682  -0.1919448
   0.7680988   1.2178592  -0.2588016   0.1529992  -0.3619815  -0.3801014
   0.2276340  -0.1560927   0.5063477  -0.9912759   1.2306736   0.6882647
   0.8863219  -0.6765506   1.0098891   0.0710181   0.0404775  -0.0390380
  -1.0894033  -0.6993502   1.8900071   0.9489757   0.2756525  -1.8705751
  -0.0549379   0.0412672   0.0146306  -0.8977598  -0.2113434   0.1557499
  -0.7510194   0.6609529  -0.3524503   0.1507052   0.1265862   0.1494518
  -0.8160462  -0.0636672  -1.2192704  -0.8494632   0.3951557   0.6834824
   0.0607356  -0.0134149  -0.1718609  -0.4525693  -0.7114581  -0.6491689
  -1.2873829  -0.4452319  -0.5779881   0.1170619   0.0474922   0.1087278
   0.0054842   0.7629804   0.8660768   0.8766204  -0.3354066   0.8742204
   0.0034881  -0.0555749  -0.3008962   0.0063678   0.4684476  -0.4948941
   0.2259550   0.2665337   0.1087708   0.2457167   0.1388879  -0.1892994
   0.5702043   0.3525559   0.7798014  -1.5290099  -0.0049795   1.7685450
  -0.5241325   0.1696172   0.0672529   0.7802942   0.6453198  -0.4021205
  -0.2459279   0.2799001  -0.2431473   0.1201894   0.0833775   0.0583078
  -0.3434547   0.1334750   0.2036520  -0.1471369   0.9196419   0.8570234
  -0.0974551   0.2094554   0.0116647  -0.3778320  -0.0199969  -1.4445405
   1.2319241  -1.1224311   0.1728847  -0.0780135  -0.1016180   0.0927990
  -0.0586359   1.1226064  -0.2436409   0.2574384   0.5733796  -0.0892760
   0.1628071  -0.5200602   0.1375622  -0.7560401   0.6436712  -0.9045307
  -0.0069592  -0.0224437   2.4178570  -0.0937762  -0.1820438  -0.0511276
   0.3922053  -0.4825649  -0.8296249   0.5656770   0.0172730  -1.2367157
  -0.1641559   0.1693275   0.0658620  -0.8048560  -0.2510290   0.0021447
   0.3308711   0.6697491   0.1727989   0.0531365   0.0486862   0.1602424
   1.0914000   0.4291616   0.8266774   0.0138976   0.3270600   0.2608470
  -0.0097839  -0.0260853   0.0561808  -1.7130299  -0.9280620  -0.8617408
   0.5275493  -0.7803841  -0.3016730   0.1382811   0.2440140   0.2403582
   0.1638857   0.1728318  -0.9178539  -1.3762375  -0.0246486  -0.3002995
  -0.1628821   0.0154780  -0.1919457  -0.8233839  -0.0983877  -0.5377979
   0.7786994  -1.1561472   0.5721396  -0.2939568  -0.1929696  -0.1230613
  -0.2598061   0.4168686   0.3603747  -0.3897794   0.6636628   1.3003807
  -0.1975678   0.0459618   0.1506616   0.3661926  -2.0946656   0.1784546
   0.2815443   0.0666033   1.7614830  -0.3283804  -0.2379784   0.1585501
  -0.3700144   0.5455518   0.1481598  -0.3479699   0.3117328   0.4515671
   0.3544933   0.0036342   0.6002339   0.5551771  -0.1243393  -0.7623223
  -1.0385956   0.7234503   0.4038417  -0.0645968  -0.1611749   0.1821827
  -0.4542561  -0.6808046   1.4737303   1.2751414   0.7729409  -0.3551259
   0.0876025   0.1779863  -0.2582763   0.4124879  -0.2852505   1.4554235
   0.7203317   0.0579915   0.3106126   0.2404705  -0.1775828   0.0197743
  -1.0823138   0.0030383  -0.0195124   1.1744346  -0.0838445  -0.8132306
  -0.0371298  -0.1034553   0.1242127   0.6177828   0.6289970   1.2664172
  -0.0973926   1.0389762  -0.8692267  -0.0718813  -0.0114711  -0.0871416
   1.3892182  -1.3881177  -0.4769058   0.5080923  -0.1056351   0.0639757
  -0.0941879   0.1639621  -0.0773004   0.0594847  -1.2193138  -0.1079595
   0.6150775   0.3423844   0.4018128   0.3807248   0.0168448   0.1917087
   0.5026509  -0.1529488  -1.3220747  -0.6238608  -0.3353710  -0.0432748
   0.2919444  -0.1327403  -0.1240553   0.0513574  -0.7018552  -1.0820064
  -0.2518223   0.1286995  -0.5556580   0.1176118   0.0163061   0.0565876
   0.0920135   0.1367903  -1.2166230  -0.2520062  -0.2636612  -0.2360124
   0.0065264  -0.0716340  -0.1879029  -0.6315876   0.8786585  -0.1046879
  -0.0745865  -0.8477429  -0.4844876   0.0516983   0.1126877   0.1448033
  -1.0458505  -0.3033444   0.5474721   0.3583017  -0.6615972   0.1450062
  -0.4444352   0.0750532  -0.0193048   1.5486203  -0.2290843   0.5324763
  -0.3353501  -0.2176227  -0.6420668  -0.4356815  -0.5231329  -0.3199402
   0.8031674   0.4697969   1.2028361  -2.2245546   1.7487457  -0.3327903
  -0.0252643  -0.1393289  -0.2615825  -0.3254865  -0.2429681   0.0434152
   0.0384134   0.4652573   0.2892005  -0.0033156  -0.0715588   0.0603205
  -0.5771198  -0.2107227  -2.3171942   0.6941200   0.3200233  -1.2422658
   0.0777815   0.3975581   0.1187254  -0.4633804  -2.0113264  -1.1279157
   0.1956250   0.4262413  -0.3632559   0.0633827  -0.0851401  -0.2264279
  -1.1017382  -0.2751911  -0.0701279   0.0074282  -0.5703252  -1.9158697
  -0.2679887   0.1769931  -0.1254284   0.1525590   0.1312421   0.7445840
  -0.4465207   0.1162525   0.7354942   0.1253959  -0.1219129  -0.0851180
   0.3825697  -0.3191642  -0.0698724  -0.4547261  -0.0191212  -0.1453804
  -0.0797688   0.2965126  -0.0223054  -0.0853322  -0.8366391   0.3669104
  -0.6078653  -0.1727285  -1.7243831   0.0079304   0.2629946  -0.0508701
   0.2293564  -0.9949381   0.7987076  -1.2250698  -0.4746173  -0.3099399
   0.1164510   0.1563190  -0.2717814  -0.2139292   0.3082322  -0.4389880
   0.3882406  -0.1008662   0.0748732  -0.1363908   0.0624577  -0.1879107
   1.4092404  -0.4530612  -0.4984636   1.2802415   0.8536174  -0.0647426
   0.0289290   0.3353582   0.1656723   0.2030990  -0.7218873   0.3514971
  -0.1938867   0.6315161  -0.0491139   0.1917088  -0.1828398   0.2878602
   1.0320419   0.6112375  -0.6666237  -0.6856355  -1.7656677  -2.1840771
  -0.3769848   0.5085463  -0.1469583   0.2207135   1.3274561   0.3369098
  -0.9824771  -0.6951439  -0.1154866   0.1663450   0.2124810   0.0113677
   0.0681211  -0.3968063  -0.0689600   1.8670354  -0.6016346  -0.3147592
  -0.0976217   0.1372433   0.1495520   0.0159845  -0.3878852   0.4364204
   0.0169247  -0.6067223   1.4195475   0.0482775  -0.5436492   0.2240028
  -0.2960692   0.3322039  -0.6647733  -0.9497731  -0.4700777   0.3133505
   0.1097496  -0.1591072   0.1033325   1.2579253   0.2519271  -0.2461397
  -0.8280234  -0.3864679  -0.1098904   0.2989268   0.1903803   0.2623479
  -0.1946662   0.0280165   0.6890903  -0.0774846   0.4549457   0.8094647
   0.4755365  -0.0989533   0.0227885  -1.1260758  -1.0358850   1.1163165
  -0.5631794  -0.9511881   0.5731211  -0.0328804  -0.1405591  -0.2229751
   0.8033408  -1.3797405   0.7121545  -0.5169926  -0.4453795   0.0411588
   0.1525687   0.2598069  -0.5719742  -0.9272384  -0.0701701   0.4364281
  -0.8174830   0.6199658  -0.5540175   0.0002325   0.2163321   0.2037505
   1.6596728  -0.8896278  -0.5337881   0.3564113   0.5603658   0.2709847
   0.0960022   0.2932638   0.0500922  -0.4965315  -0.3746863   0.8894663
   0.3968412  -0.2941512  -1.6951920  -0.0740014  -0.2230667  -0.0536332
   0.2272945  -0.4873357  -0.7037646   0.3726805  -0.0674804  -0.5825544
  -0.1757568   0.1044240  -0.2994675   0.6092043   0.4875146   0.1665361
  -0.5933539  -0.7292152  -1.6065490  -0.0167408  -0.1722011  -0.3624884
   0.9078614  -0.5653626   1.7897995  -0.2364892  -0.3847090  -1.0392711
   0.1213398  -0.1666584  -0.2069650  -0.1361827   0.1877782  -0.3294183
   0.6428517  -0.0467483  -0.3252433  -0.2545902  -0.1075169   0.1724707
  -0.0024022  -0.3600546  -0.7611999   0.7014353  -0.6302612  -0.3955946
  -0.0183922   0.3563246  -0.1881706   0.4288022  -0.3548176   1.2111413
   0.7038598  -0.2480553  -0.1898083   0.1687303  -0.4228927  -0.0559233
  -0.8877543   0.5072534  -1.5841341  -0.8988809   0.0971551   0.7533004
   0.1563069  -0.2940317   0.2697912  -0.8921160   1.6250506  -0.4121998
   0.4804796  -2.2363126   0.6551199  -0.0071254   0.2402257  -0.0739912
  -0.8388090  -0.7630321   0.4247134  -0.4067207  -0.0403233   0.0938484
   0.1867283   0.2054332   0.0001384  -1.1939393   0.3125697   0.6406988
  -0.4367945   0.7433461  -0.8093964  -0.1187932   0.2801684  -0.1144205
   0.2077593   1.4262523  -0.6698350  -0.5604981  -0.1534544   0.9111899
  -0.0281113  -0.0112224   0.0727125   0.5476676   1.2444973  -0.1003326
  -1.1793337  -0.6269646   0.4643013  -0.0594279   0.1922319  -0.1209765
  -0.0725795  -1.6663186  -0.1031126   0.7589879  -0.0957160  -0.1761484
  -0.0472305  -0.0555292  -0.0450571  -1.5184469  -1.6710257  -0.3494295
  -0.0428501  -1.2880078  -0.2055602  -0.1086665  -0.4244510  -0.0848322
   1.3466550  -1.3046541   0.3401904  -0.3092946  -1.3195369  -1.1724376
   0.2820261  -0.0274133  -0.0006625  -1.7397439  -0.4464559   0.3226089
  -1.0417574  -1.5008304  -1.2119550   0.1396712   0.1808049  -0.0007982
  -0.7856748   0.4728163   0.0988479   1.5223809  -0.1646045   0.6045183
  -0.0093626   0.0406545  -0.1603402  -0.2256742  -0.0843514   0.1151057
  -0.1508045  -0.5094226  -1.0895298   0.1292857  -0.0693241  -0.4356130
  -0.4384075  -0.5981559   0.1925055  -1.4247217   0.8383761   1.5690187
   0.3723429  -0.2542313   0.0284139   0.5056030   1.1753406   0.8568231
   0.2303927   0.6171367  -1.0283174   0.1230098   0.1293662  -0.1340174
   0.2079346   1.2540204  -0.3954708  -0.1262599   0.0957150  -0.4657035
  -0.0840966   0.1339501  -0.0773658  -0.3627681   0.9076905   0.2905954
   1.0037661  -0.4570480  -1.0116094   0.0713797  -0.0023379  -0.2009493
  -1.2491698  -0.1685784   0.6441711  -1.0806145   1.5863290  -1.6146886
  -0.2790440  -0.1129658  -0.1725940   1.4068279  -0.1291175  -0.4472529
  -0.8325292  -2.0130202   0.1678056   0.3893415   0.1353235  -0.1259662
  -0.3798991   0.2530943   1.1583130  -0.1061728  -0.8378347  -0.1298240
  -0.0352396  -0.0385533  -0.1810478   2.3280500  -0.1558888  -0.3398477
  -0.4638837  -0.7379455   0.2617412  -0.0172004  -0.3476265  -0.0448328
   0.5788501   0.2414357   0.3652697  -0.1943600   0.1186277  -0.2050120
   0.2513098  -0.0460873   0.0792591  -1.4366871   0.8590345   1.3431175
  -0.8707580  -0.2301571  -0.2122863   0.0114340   0.1645851  -0.0106056
  -0.3228575  -0.7907231  -0.3800260  -0.1440206  -0.3104837  -1.1408984
  -0.1369685  -0.1929767   0.1781308  -0.2326159   1.0238884  -1.2554097
  -0.5649987  -0.4033887  -0.2252743  -0.2014512  -0.1345210  -0.5015465
  -0.5323356   0.8852937   0.0272950  -1.0381735   1.7154764  -1.6105759
   0.2473374  -0.2368061  -0.0350282   1.5996582   1.2802973   0.1219514
  -0.0109177   0.2996642  -1.5413950  -0.0029211  -0.0766293  -0.1435667
  -0.5633911   0.0875427  -0.4849778   0.9943729   0.6632292  -0.4255241
   0.1992179  -0.3990601  -0.1581704  -0.8377047   0.5385889   0.6561214
  -0.1875526  -1.0532234  -0.0303043   0.3384647  -0.1393950   0.0240158
   0.2508455   0.5894294   0.1643706   0.7564304  -0.2264193   1.0484619
   0.0416398  -0.0495884   0.3429473   0.5433566  -1.5180828   0.9798907
  -0.2744575  -0.5949378   0.0758021   0.1001867  -0.0589811   0.1095361
   0.0646658  -0.2353116   0.3659221   0.6702668   0.3266344   0.8513595
   0.3683841   0.0246944  -0.1855510   1.3006233   1.3512863  -0.3509483
  -0.6745695  -0.4891960  -0.0662682  -0.1200935   0.2415683  -0.2424961
   0.2889167  -0.7094987  -0.2680705   0.1034411  -0.6477662   0.0387006
  -0.3639298   0.0602065  -0.1130979  -0.0784221   0.8907770   0.4157991
   0.2727141   0.7558618  -0.0026447  -0.1539077   0.1554718   0.2235322
   0.1580550  -0.2994835  -0.0912141   0.4558299   0.0056005  -0.4680054
   0.4481448  -0.2321964   0.0874813  -0.0205992   0.1660854  -0.8905234
   1.1167288   0.0157708   0.2663937   0.0167040  -0.0822347   0.2369334
   0.4920618  -0.9718040   1.0032549  -0.4430046  -0.3249414  -0.0189430
  -0.0883725  -0.2123012  -0.0746686  -0.6270441  -1.3393787  -0.4922042
  -1.0343863  -0.1234950   0.2400084  -0.2137453  -0.0497793  -0.3884712
  -0.0710105   0.6162955   0.6645017   0.0485567  -0.9763731   1.4112161
  -0.2750334   0.1754768   0.0268284  -0.2275099  -0.6061877  -0.8047647
   0.7560505   0.7517131  -0.4834173   0.1776385  -0.0483988   0.2720910
   0.7780966  -0.1422114  -1.0821214   1.8229631  -1.1917112   0.8371271
   0.2130507  -0.0457943   0.3036385  -0.0761954  -0.3157649  -0.4383781
  -0.0570669   0.2059028  -0.5739741   0.3082349  -0.1155365  -0.3631183
   0.3381184   1.2484974  -0.8853854   0.6857787  -0.0673121   0.3938375
  -0.0634559   0.1496599  -0.0747859  -0.7330662   0.2310696  -0.4055170
  -0.0584665   0.0947187  -0.9491282  -0.0203102   0.1085038   0.3565955
  -0.0858809  -0.5010000   0.1361357   0.0412889  -0.0439864   0.1336105
   0.0505015   0.4359102   0.0565710   1.1486426   0.1495416   0.0568064
   0.2677936   0.7518260   0.3222173  -0.0873713   0.0935164  -0.0668396
  -0.3637253   0.8504192   1.0666589  -0.2515955   0.6480451   0.4879112
  -0.1538720   0.4224829   0.4550960  -0.2682916   0.1531947  -0.0535172
   1.1902483  -1.1490203   0.5704378  -0.2346186   0.0020911  -0.0858237
   1.0665768  -0.1619314   0.0785633  -0.4626511  -0.5920358   0.9713703
   0.0836017   0.0515387   0.0178736   1.6739068   0.6595151  -0.3698023
   1.4523276   0.3471775  -1.1312925  -0.1577890   0.2487371  -0.0970250
  -0.3995094   0.6521380  -0.8367237  -1.6113559   0.3364173  -0.2677859
  -0.0801704  -0.2104762   0.0539669   0.0907712   0.8846396  -0.6881986
  -0.9021958   0.0567178   1.2867119   0.1290992   0.0022182   0.4978707
   0.6657007   0.2466363  -0.0196512   0.8870389   0.9717562  -0.7200072
  -0.2516989  -0.0854097   0.0274474   0.1694188  -0.0876428  -0.0654822
  -0.7330178   0.2650372   0.1505788   0.4135190   0.0050060   0.1730298
   1.1042287   0.4623708  -0.1109006  -1.0111537  -0.2855210   0.7826504
  -0.1381753   0.0522197  -0.2075384  -0.2815001   0.3902579  -0.7040597
  -0.1832775   0.3513487  -0.0646416  -0.0970767  -0.1194971   0.0564386
  -0.2907864   0.3326107   0.2524463   0.3503561  -0.1328150  -0.7429933
   0.0205871  -0.1098224  -0.2048377   0.3938330   0.3372160   0.1736339
  -0.2311334   0.8739170   0.9966383   0.0644240  -0.1493931   0.0060881
  -0.1082586  -0.4543591   0.7620258   0.6105261  -0.9797877  -0.3395434
  -0.0112176  -0.0688250  -0.0853059  -1.7357807   0.7732044   0.6233520
  -0.1203480   1.0677856   0.3409531   0.1866114   0.2866936   0.1597767
   0.5139601   0.8856135  -0.7234541  -0.6933628  -0.0539605  -0.0586305
  -0.1785929   0.2943961  -0.1980975   0.3051584  -0.0583131  -0.1032677
  -1.1791855  -1.3748357   0.6819205  -0.0617696   0.1295848  -0.0448079
   1.6337698  -0.3088403  -0.3504203   0.3082225   0.8274069  -0.7499978
  -0.0112965  -0.0284240   0.0632351   0.2517195   0.3364128   1.1825379
   1.6790485   0.7644496  -0.3636484   0.0607846   0.0947094   0.0839555
   1.5342138  -2.3219271   1.2628010  -0.3711899   0.0013162  -1.7738557
   0.0034484   0.3123740   0.3800287   0.6506881  -0.4947822   0.6899388
  -0.0771334  -0.6796024   0.1518105  -0.0177912  -0.3249180   0.4941522
  -1.8192637  -0.9516795   1.3923612  -0.3019303  -0.4352748  -1.0795590
   0.0005323  -0.2974492  -0.2363867   0.1909316  -0.3623195  -0.0759889
   1.3966257  -0.6040567  -0.4194460  -0.3670673  -0.0954506  -0.1104558
   1.3983665  -1.8734803   0.0245775  -0.2393510  -1.0311050   0.4537539
   0.0434775   0.0264061  -0.2257225  -1.4959791   0.5620391  -0.0729402
  -0.5356943   0.0168024  -0.1349676  -0.2229695   0.2184555  -0.0732331
   0.1425466   0.5132722   0.8432818   0.1126630   0.6306624   0.5827633
  -0.2436522   0.2586525   0.0594732   1.1924047  -1.1343501   0.3498221
  -0.6059690  -0.2481108  -0.0858398   0.1439886   0.2190342   0.3630769
   2.1412220   1.1131395   0.7987331  -0.0888868  -0.6916181  -1.4219385
  -0.2931906  -0.1528735   0.1475265  -0.1822041   0.0055170  -1.4192247
  -1.3444626  -0.0370498   0.5219036   0.0531599   0.0257829  -0.1185148
   1.3810689  -0.0708498   1.1431616  -1.1924806  -0.3308884  -0.4285682
  -0.0658345  -0.2576868  -0.5210968  -0.3894212   0.0497335  -0.0288621
   0.0959199  -0.5089776   1.1487680  -0.0851233   0.0095783   0.0441045
   1.5143967  -0.3236326  -0.5779641   0.4673403   0.9143419   0.7279671
  -0.2315273  -0.0831659   0.1219992   0.7675722   0.5466701   0.1830669
   0.2656857  -0.1558819  -1.2994658  -0.3570190  -0.1065423   0.0492183
  -0.7733602   1.1633638   0.3431488  -0.2440396   0.9609733   1.1341188
   0.0389613   0.1360188  -0.2332663  -0.6647902  -0.0228169  -0.6751054
  -1.2956710   0.4311000  -1.0391329  -0.1433936  -0.3526130   0.0833992
  -0.9405716  -1.2909079   1.1938444   0.2176030  -0.6508294  -0.2691514
  -0.2418685   0.0447207  -0.0827806   1.3178097   1.2336060   0.5980428
  -0.4283315  -0.1998412   0.4263519   0.0465051   0.0708247   0.1092163
   0.6628762  -0.0868765   0.7996164   0.2109753   0.3587004   0.5302412
  -0.0852984   0.0332042  -0.1111828  -0.0921121   0.1723370   0.1167450
  -0.6266437  -0.0378860  -1.0113191   0.0202713  -0.2888060   0.2309859
  -0.6125900  -1.4558338  -1.0782211   0.0513586   0.6554125   0.0958320
  -0.0018948   0.1427662  -0.0329704  -0.4878600   0.5984754   0.1645317
   0.5356157   0.4396856   0.6553260  -0.1389335  -0.1114217  -0.2943619
   1.4758016  -0.1077427   0.4239876   0.9572000   0.3829413   0.9419037
  -0.2067108  -0.1267951  -0.2732885  -1.0852377   0.5889330   0.6235162
  -0.1562972   1.5158933  -1.0852871  -0.0618945   0.0092822  -0.3179858
  -0.3560498   2.4584545  -1.3825313   0.0046761   0.2671047   0.5558890
  -0.1385504  -0.0566017   0.2083010   0.3754578   0.8737347   0.6459887
  -0.4604334   0.1853367   0.3396707  -0.1925266   0.3655692   0.1276834
   0.4953044  -0.4328171   0.8913505  -0.9157876   0.6408150  -0.3963878
   0.1649739   0.1612658  -0.0088061  -1.1899427   0.8295971  -0.2569003
  -0.0435284   0.0121032  -0.3817727  -0.3854448  -0.1426818   0.0385629
   1.2025872  -0.1205934   0.5647100  -0.3692891   1.1745685  -0.4944268
  -0.1173958  -0.0446271   0.3215961  -0.5546299  -0.2797283  -0.1520944
  -1.5612214   0.2158905   0.1165336   0.0465824  -0.1186445  -0.2509443
   0.4588789   1.4365728   0.8371228   0.7600366  -1.3172571   0.6442250
  -0.1360773  -0.1022912   0.0133112  -0.3836512  -0.0547830  -0.6489771
  -0.4095373   0.2395816  -0.0188807   0.1376269  -0.1458711   0.2597777
  -0.7378099  -0.2277442  -0.5478029   0.4599078  -0.4321125   0.1424476
   0.1320040  -0.1439261   0.1322534  -0.5597611   0.2204456   0.4704607
  -0.4461025   0.0336090   0.9430893  -0.3458326   0.2464003   0.0058241
  -0.4745980   0.2219636   0.1699369   0.4461080   0.5204236   0.6287449
  -0.1219909  -0.4050603  -0.2482171   0.8665730   0.5879612   1.5589925
  -0.2641109  -0.7174544  -0.2815515   0.0887192   0.1316251  -0.1998440
  -0.7524038   0.1864960   0.3524580   1.0942744   1.0655356  -1.0226734
  -0.2091388   0.3019211  -0.0099845   0.3796597   0.2940369   0.9759386
   0.7148391  -1.0992310  -0.7849786  -0.0545727   0.0711410  -0.1062249
   0.7081576  -1.0676597  -1.0784577   0.4386673   0.6494272   1.5357897
   0.0081969  -0.2986677  -0.4189223  -0.1601153  -0.0447989   0.7323281
   0.3297475   0.5415592   0.0092302  -0.3853875  -0.0645939   0.1179689
  -0.1690007  -1.3892843   0.0934596   0.1968885  -0.1038979   0.5527462
  -0.0853216   0.3352582  -0.2826563   0.2483352  -0.3277064   0.1002146
   0.1027342   0.8747859  -2.1586231   0.0235910   0.1227726  -0.0298988
  -0.2070005   0.8382147  -0.1729977   0.7762925   0.7678178  -1.4442977
  -0.2090208   0.2666060   0.0795731   0.7735816  -0.0210222   1.3940464
   0.1721923  -1.5395616   0.3954121  -0.1450263  -0.0475005  -0.4213658
  -0.6405918  -1.1820153  -1.5556896   0.2470441  -1.2848323   1.0453448
   0.0591246  -0.0991662  -0.1169073   1.0705526  -1.0839860  -1.0090706
  -0.0680662   0.7439613  -1.3934575  -0.0775068  -0.0429150   0.3562405
  -1.2398491  -0.0542255   0.2768948  -0.8636542   0.9850928  -0.6715167
   0.5990982  -0.1361612   0.0664887  -0.0765465   0.1095393   0.6590186
  -0.3104712   0.0534680  -0.7246001   0.3220057   0.0406127  -0.0057515
   0.8185510  -0.5182326   0.6070128   0.0323311   1.1309943  -0.1048431
   0.3003139   0.1215575   0.1534907   0.4910966   2.0307994  -1.2839997
   0.4582429  -0.4161272   0.2643601  -0.1530319  -0.0826713   0.3846637
   0.3026404   1.2387964  -0.8233870   0.4671987  -0.2630878   1.3223497
  -0.1598402   0.0195736   0.0229673   0.7455557  -0.3471416   0.2894869
  -0.5594690  -0.7896660   0.5712201   0.1201408   0.0437675   0.0280481
  -0.3320536  -0.3191999   1.1247791  -0.0426481  -0.8829276  -2.5200263
   0.1919325   0.0945151   0.2068879  -0.1808478  -0.5779656   0.1815074
   0.4581852  -0.2528346  -0.2447163  -0.0136146  -0.2819145   0.1116935
   0.9163762  -0.8756160  -1.6648979  -0.9663788  -0.0684689   0.1125215
   0.1643780  -0.1430164  -0.1328191   0.4008990   1.2637444  -0.3903799
   0.2259805  -0.2281195   0.7748911  -0.2701599   0.1835387   0.0757038
  -1.4271389   1.7757884   0.6356955   0.6067591   0.4933006   0.9123345
  -0.0861637   0.0466094  -0.3719172   0.6689561   0.0398752  -0.9226624
  -1.4269207  -0.8660523   0.1603433  -0.0363900  -0.0823431  -0.0898571
   0.8668442   0.1389744   0.8505141   0.3178231  -0.7554290   1.6279981
  -0.0166019  -0.0766364  -0.3676164  -0.1204213  -0.8741031   1.2361295
   0.5856664   0.2766616   0.1848051  -0.0577520  -0.0241589   0.1158396
   1.1983007  -0.0965839   0.7188654  -0.4107634   0.8256878  -0.4184158
  -0.0293229  -0.3259894  -0.1825448  -0.9215026  -0.4170414   0.4062255
   0.6365489   0.8485218   1.3830702  -0.1330075  -0.2129878  -0.0453542
   0.4638162  -1.0176109  -0.4433967  -0.5950269   0.0974983   0.2625199
   0.2187848   0.1124973   0.0486457   1.2579192   0.6961754   0.0107909
   0.4011506  -0.1363373  -0.0819089   0.3262673  -0.1937943   0.0315550
  -1.3737774   0.2643588   0.4794698   0.4258609   0.4785798  -0.7225066
   0.1427891   0.0486897   0.0281707  -0.5621821   0.2460998  -0.4570603
  -0.0915980  -0.6128949   0.1550671   0.1282806   0.1092221   0.2598427
  -0.0337312  -0.4166311   0.0629144  -0.8454370  -0.3816715   0.7323414
   0.0573455   0.1639125   0.3246697   1.7401634   0.8653787  -0.7043948
  -0.6572739   0.7461208  -0.0982592   0.0460420  -0.0558908  -0.0891181
  -0.1844365   0.0068099  -0.0235428   0.9645602   0.4443871  -1.1379436
   0.2107886   0.2138423   0.2976886   0.1527527  -0.0518086   0.0831191
  -0.6542450  -0.2413993  -0.9275368   0.3187437   0.0324381   0.0266848
  -0.0716328  -0.4584737  -0.4186157   0.3007989  -0.5608905  -0.1710716
  -0.0733383   0.2220844   0.0414598  -0.1796263  -1.1700692   1.2374772
   0.3137737   0.5058756   0.6249261   0.0374442  -0.1018142  -0.0818333
  -0.1840443   0.0467220  -0.9792855  -0.7591498   0.9511296   0.0262375
   0.2745896  -0.1288297  -0.0902082  -0.3290593   0.1370701   0.3228654
  -0.0800531   0.2004927  -0.9935876   0.1673063  -0.0382737   0.1573942
  -1.6385040   1.3900773  -0.7105966   1.2776174  -0.0526837   0.4882792
  -0.1778140   0.1419568   0.1391614  -0.4850510   0.7826211  -0.6343326
   0.5262167  -0.6865887   0.8149845  -0.1304373   0.1633934   0.2546291
  -0.3448379   0.0562973   1.1735323  -0.0676768  -0.2445357  -0.6069639
   0.1181219   0.5770182   0.0597718  -0.0421924   0.2002947   0.3848469
  -1.3921795  -0.3770049  -0.8222286   0.2964267   0.4848395  -0.2751406
   0.7406581   1.0126960  -2.9715438  -1.3609072   0.8349795  -1.1757277
   0.2092542   0.3605435  -0.2118424   0.7224515  -0.3972464   0.8695367
  -0.6108237   0.3515754   1.3312614  -0.3860949  -0.1144221   0.1315908
   0.1751441   1.4558204  -0.3773092  -0.3345681   0.2369621  -0.2912039
  -0.4199344  -0.2581463  -0.2136648  -0.2997424   0.9980697   0.2989315
  -0.5029844  -0.9392815  -1.2443545   0.3079015   0.0320265  -0.2763384
   0.8274849  -0.1715979   0.1067954   0.5293440  -0.1752665   0.6078570
   0.1057487   0.1378660  -0.2921201   0.1913405   0.3824486   0.1243046
   0.5798637  -0.2123951  -0.4702509  -0.2294859   0.2302458  -0.2042210
   0.3056987   1.0093267  -1.4039637  -0.1230115   0.2326629  -0.4138089
  -0.3023871  -0.2840284   0.0255043  -0.0164267  -0.3119390  -0.1984393
   0.1689798   0.3691791   0.0368130  -0.0439204   0.0931187   0.0268148
  -0.8968958  -0.3646093   0.3529969   0.4451775  -0.8912189   0.3421168
  -0.0124253  -0.4111192  -0.2237708   0.4707193   0.4051181   0.9529513
   0.0467101  -0.3980654   2.3951022   0.0955405   0.1268524   0.3263036
  -0.3016720  -0.4649022   0.0693267  -0.4013424   0.5237161  -0.3246980
   0.0478987  -0.1230880   0.0624009  -0.2866553  -0.1889209  -0.1750999
  -0.5066961   0.2564690  -0.6571372  -0.0087926  -0.0189156  -0.0597259
   0.7290373   1.0584261  -0.7932350  -0.2503453  -0.9408079   0.6982101
  -0.1919869  -0.1532979   0.0580915   0.1688575  -1.7882503  -0.0422713
   0.8257368   0.8736685   0.0253546  -0.0268567   0.2843952   0.0664546
  -0.2863059   0.1737925   0.2352569   0.7053492   0.1210630  -0.3206321
   0.1337715  -0.0512598   0.3468244   1.5828195  -0.1909201  -0.9960787
  -1.2394913   1.1166392  -0.4054055   0.1709138  -0.0057422   0.2749294
   0.1748589   0.0021663   1.0673117  -0.6367795   0.3442967  -0.5190452
  -0.5398071  -0.1350363   0.2975384  -1.4799918   0.6789780  -0.0865909
  -0.4948680  -0.2251126   0.8433507   0.1114910  -0.1956204  -0.2027804
   0.2848381  -0.0434785  -0.9576108  -0.2245635   1.0491288   0.1692871
  -0.0238058   0.4715483  -0.0144485   0.9918651   0.3594198   0.6202829
  -0.8249405  -1.3970865   0.4452966  -0.1875932   0.0796208   0.5025031
  -0.5662120   0.5521007  -0.2000296  -0.1958410   0.7554940   0.6914659
  -0.1860767  -0.0651539  -0.1959542  -0.2063629  -0.6180124  -0.3255300
   0.3955818  -0.2071799  -0.5226409  -0.0086225   0.1435533  -0.1708252
   0.7832962   0.3674472  -0.8886570   0.2582181  -1.4824668  -0.4717493
  -0.0620183   0.2463182   0.1685272  -0.4076496  -0.2360937  -0.4501359
   0.1119236  -0.3852989   0.8456905  -0.1035932   0.1961030  -0.2158790
  -0.6577321  -0.4646876   0.1836741  -0.7489058  -1.2294070  -0.1346195
   0.0415752   0.3530962   0.0233014  -0.2064852  -0.0211795   0.1919636
  -0.6356299  -0.7621075  -0.8324763   0.0365085  -0.0062263  -0.1107197
  -0.6894443  -0.3541413  -0.8144087  -0.0434018   0.4918717   0.6180326
   0.1807850  -0.0518431   0.1201309   0.8278640   1.3906751   0.2125608
   0.4802629  -0.9046669  -0.5867112   0.1716888  -0.0775939  -0.0016334
   0.5161262   0.7790832   1.0681637   1.0832005  -0.2181856   0.8371624
  -0.0311016  -0.0751786  -0.0816475  -0.2667349   0.4240290   0.5131874
  -0.2663306  -1.0137923  -0.5916641   0.4512090  -0.0984619  -0.0147901
  -0.9410147  -0.4005936   0.2166063   0.7711932  -0.9495461   0.3791586
   0.0061293   0.2543655  -0.0888453   0.3285830   0.5415057   0.8290879
   0.6470413   0.4898850   1.0688440   0.1379428   0.1769791  -0.0992717
  -0.6404629  -0.9759709   0.4644523  -0.1709957  -0.1607625  -0.0510177
  -0.2071213   0.0383545  -0.1293296  -1.4316461   0.5517897   0.3684707
   0.8387420   0.1827624   1.2730294   0.1796178   0.1812920   0.0254974
  -0.0951855   0.0839767  -0.1443181  -2.0036459  -0.0898243  -2.3258508
   0.0908379   0.1563839  -0.0881988   0.9704915  -0.9162006   0.6825182
   0.7482187  -0.1758963   0.0243033  -0.0108088   0.2569816  -0.0355968
   0.7210637   0.4748712   0.2552580  -0.3957517  -0.6223686   1.2120444
   0.0310612  -0.0677512   0.1694053  -0.9498735   0.0313431   0.3730666
   1.0813724   1.4945004  -0.2214403   0.3442804  -0.0697534   0.0754692
  -0.6713154   0.4681826   0.3529707   0.1029341  -0.2187700  -1.1943692
  -0.0870982  -0.1540823   0.0551535  -0.6088749  -0.7144296   0.5757189
   0.0002883  -1.0725518  -0.0215100  -0.3174735   0.5465216   0.1532518
   1.0572379  -0.3225178   1.4911678  -0.4185009   1.7538822  -0.8467498
   0.1735095  -0.1302712   0.1778292  -0.8014146   0.2297718   0.5443739
  -0.1580150   0.4158872   0.2661211  -0.3199718   0.3782955  -0.3140151
   0.5361512  -0.6645902  -0.3559386   0.3303158   0.3555630   0.1649459
   0.2111852  -0.2055008  -0.1402440   0.0559953  -0.6438274   0.4112614
  -0.0117633   1.3446463  -0.0446741  -0.3219712  -0.1927500   0.1026629
  -1.9866361  -0.3864699   1.9352061   0.1523998   2.0389807  -0.3002278
  -0.0438418  -0.0506534  -0.2498038  -1.5672533  -0.6119555  -0.6920683
  -0.6837068  -0.2907632   0.7139005  -0.0175155   0.2907182  -0.1971327
  -0.8053376  -0.6055648   0.9424574   0.7304628   0.8939307  -1.3758960
  -0.3133451   0.0137551  -0.1554918  -0.8370399   0.5218986  -0.4526183
  -0.0443123   1.0969695  -0.1863114   0.0965623   0.1691995   0.1369933
  -0.3069055  -0.7220698   0.7173968  -0.9515393   0.2883267  -0.5777016
   0.2713546  -0.0062502   0.2389250  -0.7196847  -0.6674031   0.9889605
   0.5983067  -0.8824044  -1.5563693   0.1352176  -0.1380856  -0.0669798
  -0.3560477  -0.9008732   0.5861689   0.2245544  -0.2050987   0.0640041
   0.0293075   0.0509063  -0.0307772   0.1994108  -1.1419392  -0.2683136
  -0.1403148  -0.7505123  -1.0322737   0.1642151   0.0404058   0.1429297
   1.5975280   0.0704020   0.8677380  -1.0708361   0.3696134  -0.0184771
   0.2126918  -0.1900243  -0.0759526  -1.0201200  -0.8131410   0.5659467
   0.3872509  -0.0839768   0.1156467   0.1615107   0.0747310   0.1909561
   0.9669572   0.1327532   0.7306969  -0.6463569   1.4453761   0.4214184
   0.0561935   0.1728691   0.3025209   0.0617492   0.2614947   0.1523977
   1.3234701   0.8702362   1.3019520   0.2956375  -0.2447513  -0.0299268
  -0.6383882  -0.2621911  -0.2123027   0.4207131   0.2866373   0.7141355
  -0.2100278   0.2367455  -0.2396148   0.4200943  -0.6222235  -0.7903619
  -0.8175526   1.2608408  -0.2115426   0.0582552   0.0470544  -0.1120934
   1.1070659   0.0130667  -0.1221571  -1.3044228   0.8465899   1.4443555
  -0.3739240  -0.0611335  -0.0537856  -0.6740153  -0.0312481  -0.9749224
   0.1010488   0.5206306   0.8645917   0.2711427  -0.4343549  -0.3979891
  -0.6666278  -1.4895078  -0.8641920  -1.0272846   1.0304570  -0.0059895
  -0.2267385   0.0660738  -0.2659088  -0.5676648  -0.2846481  -1.2631744
  -0.3315999  -0.9524981  -0.5070025   0.0164839   0.0089623   0.1384232
   0.9938099  -0.9168115   0.9391419   1.1920207   0.0063150  -0.1609734
  -0.0721827  -0.0348977   0.0109952  -0.1144942  -0.9398822   0.6252222
  -0.6182462  -1.5563755   0.0099865  -0.1991074  -0.3878119   0.0143472
  -0.4805371   0.0799144  -1.1434725  -0.5453228   0.0704597  -0.4596289
   0.1723355  -0.0812349   0.0277958   0.9079649  -0.3857700  -0.3643303
  -0.0836733   0.5554178   1.0686924  -0.0873167  -0.1265855  -0.2308612
   0.5788942   0.8321615   1.3234967   0.1697747  -1.5539963  -1.1002016
   0.1305643   0.2754991  -0.3472317   1.0893896   0.0096821   0.4801155
  -0.1738775  -0.3241333  -0.4136250   0.1761790   0.2180268   0.1534858
  -1.0654779  -1.0588930  -1.0619969  -0.4956681  -0.6149749   0.0365964
   0.0216451  -0.0637559  -0.0688804   1.4907407   0.9821842   0.1304392
   0.4606605   0.2534968  -0.2023130  -0.1112187   0.1565053  -0.1131435
  -0.4872291   0.0101329   0.6015385  -0.8223466  -0.5286647   0.2660629
   0.3225570  -0.1073818  -0.1475680   0.6589343  -0.4599089   0.9532422
   1.0877530  -1.0467005  -1.1933376   0.2900287  -0.1227203   0.0670945
  -0.1699424   0.2075814  -0.2114469  -0.4260189  -0.1934116  -0.1627297
   0.1451755  -0.2238281   0.2008890  -0.1936386  -0.5801981   0.3597693
   0.5057429  -1.5232282  -0.5180467   0.0751824   0.1769033   0.2198651
  -1.3564649   0.2261685  -0.0190661   0.2520195  -0.2706984   1.7674229
   0.1642083   0.4518701   0.0485731   0.5567469  -0.3353005   0.2134811
   0.0758948  -1.2936191  -0.0829164  -0.1459025  -0.0107620  -0.5271106
  -0.6684031   0.5683893   0.9050941  -0.9895459   0.6774484  -0.5772171
  -0.1063810  -0.1203755  -0.0333285   0.3363239  -0.8269815   0.7402172
  -0.1637746   1.0457394   1.3320605  -0.2273491   0.0522203   0.0667211
   0.8132911  -0.5056601  -0.1389485  -0.9647085  -1.1000736   0.2173871
   0.1643525   0.0089833   0.3487562  -0.6952063   0.3944833   1.0054247
  -0.6804759  -1.1693968  -1.2701206   0.0892497   0.0638591   0.2993996
  -0.1117960  -0.9103195  -0.1884729   0.9413507  -0.2662265  -0.4112274
  -0.0190985  -0.2077228  -0.0032551   0.4526999  -1.1409234  -0.9737434
  -0.4400278  -0.2594603   1.4928898  -0.0443435   0.0599697   0.2424993
  -1.4944874  -0.7578807  -0.1298599   0.6064549  -0.3217333  -0.9635006
  -0.2607601  -0.2359293   0.0106892   0.0079673  -0.7873970   1.1980983
   0.9451629   0.3053998  -0.2137059  -0.2243043   0.1121655  -0.1220187
   1.0715409   0.9186486   0.0594697  -0.1778772  -0.2333185   1.2316659
   0.1548620  -0.1615102   0.1818291   0.5614626   0.1759912   0.1163974
   1.9900422  -0.0395396   0.2157875  -0.0790952   0.0980171   0.0429905
   0.5144734  -0.2339723   0.6633713   0.0727749  -1.5137137   0.0159712
   0.0237926   0.1733211   0.0018722  -0.4021406   0.4006385   0.2780919
  -0.4047692  -0.4411484   0.4363032   0.0438431   0.2256816  -0.0910222
   0.6855499   0.6085118  -0.9838460   0.7541663  -1.0832626   0.8541173
  -0.0903095  -0.0493588  -0.0387383  -0.9883902   0.1930587   0.2790447
  -0.6982972  -0.5547136   0.3156298   0.1296674  -0.1991105  -0.0542689
  -0.4281658   0.8692046  -0.5613511  -0.6864588   0.4327255  -0.1817197
  -0.1880784   0.2178436  -0.1265779   0.7555776  -1.0379626   0.1538120
  -0.2243977   0.3825289  -0.5681598   0.2772073   0.0426472   0.0091319
   0.0794734  -0.1541073  -0.0595950   0.4881004  -0.3962014  -0.4267209
   0.0465185  -0.1868374  -0.0665778  -0.8843809  -1.2798296  -0.1829721
  -1.1951575   0.2680308  -0.8137759   0.0218087   0.0944818  -0.2160473
   0.3281525  -0.1046175  -1.0276673  -0.3977960   1.4910051   0.3852180
  -0.3801103   0.0512042   0.3785069  -1.0303124   0.2417264   0.2326341
  -1.0559752   0.0786381   0.4831929   0.2501817  -0.1425282  -0.3124917
   0.7345431   0.1604039   0.7503516   0.6375630  -0.1697558  -1.1931007
  -0.1913922  -0.0771120   0.1872823  -0.8329428   0.8448525  -2.2537959
  -0.5471836  -0.2403195   0.1290620  -0.0299131  -0.0241976   0.3219461
  -0.4463778   1.1929901  -0.6872813  -0.6591557  -0.3695624  -0.0871794
  -0.1245950  -0.0614035   0.3095485  -0.1513293   0.0067822   0.2974244
   2.0282914  -0.9974694  -0.9981190   0.2533993  -0.0252098   0.0806801
  -0.8393437   0.9907616  -0.8056174  -1.0367358   1.0405736  -0.1923132
   0.3062543   0.1374306  -0.0591409   0.9475679  -0.4158421  -1.3454748
  -0.1695962   0.6510983  -0.5552410  -0.2350781  -0.1482672   0.2245870
   1.6609088  -0.1957027   0.1271427   0.2826827  -0.8399317   0.4903219
  -0.1189397  -0.3446003   0.1615174   0.5981254  -1.3233553   0.4915323
  -0.6502781   0.3842518   0.9819465   0.0191815   0.0919798  -0.0834548
  -0.2955640  -0.6972071   0.5424528   0.2588437   0.3476831  -0.2917316
   0.0650818  -0.1445528  -0.3211856   0.3492854  -0.7023162   0.5951070
   0.1271016  -1.2784869  -2.1821460   0.2794080   0.0846603  -0.1817219
   0.6780166   1.5184925  -0.1617569  -2.0947715  -0.0658380  -0.2858533
   0.0832181  -0.1049610   0.1778108  -0.2160913  -0.5003042   1.3816104
   0.2498892  -0.7039276   1.1702598   0.0451359   0.1960140  -0.0894734
  -0.6371995   0.8915099   1.6734625  -0.0138362  -0.3373066  -0.4103539
  -0.2656434  -0.0254529  -0.0458715   0.3003857   0.2128829  -0.9000252
   1.0508563   0.1805850   0.4489974   0.0173635  -0.0616428   0.2198484
   0.9731919   0.8534117   1.3045961   1.0000468   0.2540681  -0.8020043
  -0.0910184   0.2177766  -0.0339183  -0.8313535  -0.2706363   0.5653286
  -0.6238252   0.2665640   0.0058253   0.2710375  -0.0206255  -0.0755294
  -0.7796361   0.5882810  -0.2674951  -0.4945269   0.1330217  -0.2148245
  -0.0776455  -0.1808170  -0.1078473  -0.5184722   0.1536156   1.3788591
   0.3800868   0.0117171   0.1976303   0.0834713  -0.0426342  -0.1615691
   0.3186966   0.0149720   0.8393723  -0.3793736   0.0520322  -0.9307911
  -0.1331800   0.0966723   0.1962466  -0.1971392  -1.0708358  -0.8243203
  -0.8319405   1.2332185  -0.7237819   0.3030148   0.0162444   0.0010730
   1.6079868   2.1611483  -0.8360323   0.3488274  -0.2430092   1.7860256
  -0.1296682   0.0647085  -0.1760619  -1.2930269  -0.1408922   0.5007947
  -0.2352830   0.8060996   0.4768354   0.2752591   0.0318366   0.2449875
   0.0679907   1.2032562  -1.3425766   1.0533109  -0.9435849  -0.0028361
   0.3162501   0.2626233  -0.2401640  -0.6743659  -0.3764973   0.0934408
   0.2823528  -1.0332800  -0.2394039   0.2146495   0.0288623  -0.2588085
  -0.3871729  -0.0880486   0.0593682  -0.5588196   0.4587311   0.5541437
   0.2834690   0.0985298  -0.1321433  -0.1123945  -1.1446564   1.3491272
   0.5985041  -0.5771157   0.3579501  -0.0692672   0.1848376  -0.0207155
   0.8305214  -0.7262340   0.3553233   1.4220100   0.1187193  -0.5217320
  -0.0415758   0.0615012  -0.0609431  -0.1594938  -0.6212234   1.8295900
   0.8420238  -0.5526936  -1.1836193   0.1620919   0.0295855   0.0014636
  -0.1107534  -0.0003576  -0.8621674  -1.2414090   0.4923223   0.1739981
  -0.0152456  -0.0470996   0.0190175  -0.0162310   0.4244307   0.0448596
  -0.3350714  -0.1588069   0.0472949   0.1264446   0.0778152  -0.3533011
  -0.8522052   0.5084271   0.2513451  -0.0922747  -1.1676427   2.1098147
   0.0517622   0.0170964   0.0645166  -0.5462025  -1.9730189  -1.5167588
   0.6328094  -0.4842345  -0.0821606  -0.0702099   0.0761858  -0.0296065
  -1.5900683   1.0466162   0.9011301   0.6535606   0.3404584  -0.3613379
  -0.1908854  -0.0890401  -0.0635962   0.6165521  -0.0375185   1.2469828
  -0.4215846   0.8080246   0.2621686   0.1475231  -0.1590408  -0.0039110
  -0.1991481   0.0272125   1.7033927  -0.1269181  -0.2939143   0.4054100
  -0.2852345   0.1304148   0.3858553   1.0551296  -0.3372612  -0.4006448
  -0.7900316  -0.1010732  -0.5265652  -0.1405436   0.2351727   0.0887421
   0.6900969   0.8215003   0.7720192   0.2714680  -0.7580989  -0.4061432
  -0.0820162   0.2538186   0.2381228  -0.0880402   0.5342013  -0.8903209
   0.7594982   0.7126298  -0.5587940   0.1180926   0.0127466  -0.0509880
   0.3449914  -0.2470949  -0.8096069  -0.1477305   0.2386404   0.3106074
  -0.1028291   0.2567381  -0.3050155  -1.2974419   1.0367899   1.0364778
  -0.0687721   0.7598030   0.8595533  -0.0125343  -0.5688154   0.0931976
  -0.9024727   0.8031471  -0.1550344   0.1637687   0.2397997  -0.7142193
  -0.4744329   0.1422488   0.0340840   0.3489904   0.4396700  -1.1646764
  -0.8107366  -0.8498809  -0.1785609  -0.1372454   0.1106470   0.0584595
  -0.0717058  -0.4547536  -0.7426765   0.6673892  -0.2386627  -1.0948731
   0.0938129   0.1019364   0.2478964   0.8942600   0.8555097  -0.6130980
   0.6454050  -0.5814289  -0.2742808  -0.1645276  -0.3083306   0.0244676
   0.1990437   0.7726834   0.1709427   0.2693416  -0.4929820  -0.5689609
  -0.1312850   0.0330455   0.0931642  -0.6836978   0.1235222   0.1387060
   0.6428439   0.2539819   0.4008930   0.1778505  -0.0918242   0.3215956
  -0.9048532  -0.9359855  -0.5643875   1.0392829   0.0134272   0.4532825
  -0.2587684  -0.0803942  -0.0068425  -1.4293827   1.0497767  -0.4146419
  -1.3124338  -0.4886726   0.5077400   0.0720485  -0.0641974   0.0368924
   0.2802924   0.0656514   0.2109136  -0.4754040   0.2020240  -0.1648094
  -0.0290231  -0.0053752  -0.0436433  -0.4149225  -1.2903702  -1.2404391
   0.4085158   0.0632971   1.4321928  -0.0106201   0.0703466  -0.0333298
  -0.3839913  -0.6534984   1.5092005   0.3111415  -0.9500937   1.7793667
  -0.0645952  -0.3648069  -0.0232111   1.6815903  -0.2897050   1.0305388
   0.5917781  -0.4993500   0.9785552  -0.0964158   0.3530165   0.0493023
  -0.7848046   2.2160364   1.0870686  -0.7370190   0.2790205   0.1231596
  -0.1950706   0.0447998   0.2703341  -1.6257325   0.5394676   0.1643303
  -0.5091696   0.8196718   0.0866653  -0.1725871   0.1431449  -0.0065233
   1.1744783  -0.6377294  -0.3192618   1.0219130   0.5191222   0.1758686
  -0.0831727  -0.0688230  -0.2983119   0.7933660   0.4535399   1.4600083
   0.3273566   0.1026892  -0.7056661  -0.1907232   0.1328319  -0.2404609
  -0.2342483   1.9378231   0.7797597  -0.7115635   0.1347999   0.4519149
   0.0589922   0.1680822   0.3999379   0.5262033  -0.2788824   0.1451760
   0.1296424   0.9331722   0.1412746  -0.0082750  -0.0044186  -0.0847947
   0.2072294  -0.5890128   0.5023237   0.0068327   0.7312787  -0.5201320
   0.0903930   0.1429510  -0.1824130   0.4096683   0.8363153   0.1421664
  -0.4746984   0.5876751  -0.2902651  -0.0389131   0.1730430   0.1353646
  -0.3936647   0.4166091  -1.0441206   0.0554344   0.1903879  -0.4694555
   0.1006331   0.1105833   0.0792772  -0.5889854  -0.3451859  -0.4478191
   0.5574258   0.1157048   0.2154063  -0.1733846   0.0221343  -0.2178846
   0.3503764  -1.2504227   0.0927157  -0.5295466   1.3402643   0.1322154
   0.3080154  -0.2065159  -0.0481820   0.0420548  -0.0284328   1.4170596
   0.5665126  -0.5864569  -0.0686832   0.2629646   0.2331436   0.2323913
   1.1228105   0.8557737  -0.8762774  -0.9846703   0.5275207  -0.2224505
  -0.4133969   0.2401502   0.0021156   0.0656626   0.0405861  -1.3593731
   0.2987301   0.6560003  -1.2514616  -0.0256705   0.2194345  -0.1459613
  -1.0842824   0.5285538   0.9181325   1.4361992  -0.6039608  -0.2003116
   0.4605486   0.1832770   0.5574197  -0.6400301  -0.2532402  -0.7559560
   0.1112773  -0.0362091  -1.2938757  -0.0690274   0.1825854   0.2927347
  -0.3318640   0.1946940   1.0547517  -1.3412231  -0.0751024   2.5146131
   0.4299687   0.2363203   0.0787679  -0.2742808  -0.0504566  -1.3781677
  -0.9971906   0.0519016  -0.1911231   0.0696888   0.2857687  -0.0194731
  -0.5084326   0.6990747  -0.1980362  -0.1278768  -0.2127268   0.6975800
  -0.2932078  -0.0909949   0.2381621  -0.6699640  -0.7967598  -0.7940761
   0.5926832  -0.3763317   0.4272050   0.0377918   0.2826092  -0.1047854
   0.4224831   0.5901647   1.0163010   0.6339544  -0.0420594  -0.7935134
   0.2146006   0.0816041   0.1373892  -0.2697825   1.7721983   0.0447258
   0.2869297   0.1441318   0.7369892  -0.1310725   0.2308462  -0.1800002
  -0.1134166   0.1760277   0.0571598   1.3287069   0.1267448  -0.6646596
  -0.2785697  -0.1639779   0.1298913  -0.5287189  -0.8238445  -0.7706943
   0.9102245   1.0004062  -1.6993506   0.3686789   0.2305970  -0.1044069
  -0.4287414   1.0844261  -0.9257726  -0.2554919  -0.4706897   0.8419549
   0.1098562  -0.3345271  -0.0592702   0.7642066   0.3297033   0.8767322
   0.0784524   0.2696855  -0.2245337  -0.1152210   0.2371671  -0.0338179
  -0.2552337  -1.2433516   0.6568722  -0.3927030   1.9690831  -0.4979791
   0.1195630  -0.1147470  -0.1941348  -0.4075743   1.0983838  -0.1213695
   0.3272086   0.6616994  -0.6359130   0.2654778   0.1886039   0.2625255
  -0.2307770  -0.8931015  -0.1503152  -0.7146420   0.0461092   0.6029358
  -0.0433155   0.2031098   0.0875044   0.0071745  -1.5366499   0.2449359
   1.7516941  -0.2269165  -0.9318329   0.3067254  -0.1170692   0.1295244
   0.2452984   0.2044146   1.0671457  -0.0045127  -0.6546305   0.2913794
  -0.0376876   0.2368414  -0.3927283   0.1662178   0.3450995  -0.9370799
   1.1961979  -1.2836687   0.2211162   0.2803130  -0.3197170  -0.1150433
   0.5326346  -0.1668793   0.9114389  -0.7855641   0.4688501   0.8892850
   0.1758116   0.4159742  -0.0481594  -1.5990400  -0.3337500  -0.3549851
   0.8060978   0.1608746   0.1875003   0.1722233   0.0023849   0.0177073
   0.1777238  -0.0987912  -0.9728989  -1.7974203  -0.5118960  -0.2375095
  -0.1287432   0.2478525   0.1063622  -0.3905740  -0.6743827   0.0760293
  -1.6061325   0.5269383   0.6984786  -0.1804424  -0.1762430  -0.0513626
  -0.2627119   0.7815575   0.1872369  -0.0705266   0.4314709  -1.1358818
  -0.2857375  -0.0010107  -0.0670162   0.2332998   1.0790147  -0.3731511
  -0.7688973  -1.7716098   1.2463993   0.2154722  -0.0017138  -0.1318044
  -0.0005159  -0.7825723   0.2397239   0.4393264  -0.6488381  -0.5188330
   0.3262454   0.1223883  -0.0293237   0.1300510  -0.6133516  -0.0441619
  -0.0639595   0.6290859  -0.9031789   0.2019575  -0.2771867   0.0728953
   0.4311145  -0.4177946  -1.2303976  -0.4454112   1.0479049  -0.9793157
   0.2348461   0.0049437   0.4385874  -0.2461086  -0.0816018  -0.2516996
  -0.9438052  -1.5341774   0.7527796   0.0768887  -0.2685943  -0.2082707
   0.1147826   0.0980753   0.6223129  -0.1727189  -0.4429486   0.8137533
  -0.3511365   0.1042245  -0.0884020  -0.1583816   0.2269078   0.1989062
  -0.4656845   1.1415116   0.7172154  -0.1176015   0.3918511   0.0925870
   0.6943841  -0.1883699   0.2113316  -0.1387625  -0.2688173   0.0791171
  -0.0214946  -0.2821047   0.2128135  -0.0901146  -0.0595663   0.1190414
   1.2327601  -1.0067125   0.9294904   0.0393102   0.5752804   0.3113414
  -0.1036419  -1.4530208   0.6381749   0.9460692   0.3549027  -0.4509659
  -0.4393666   0.0998452   0.2789848   1.1714725  -1.1373637   0.4454562
   0.4917991  -0.7411867   0.3182106   0.1166474   0.0320255  -0.1631096
   0.3424655   0.2822224   0.2892278  -0.6736471  -0.0337682   0.1825289
   0.2111624  -0.2446114   0.0308740  -0.5478652  -0.3578181   0.1510144
   0.1470935   0.1875210   0.9169066   0.0228856  -0.0286330  -0.1941699
  -1.1592726   0.1827498  -0.2270427  -0.0662839   1.4577066  -0.7668168
   0.0138626   0.0539341  -0.1295448   0.6800954   0.0966441  -0.4666363
  -0.6289297   0.4024490  -1.7066700   0.1353966  -0.0853834  -0.6375627
  -0.9616730   0.8630282   0.3950327   0.3053753  -0.3295819  -0.3954164
   0.1603520   0.0168608   0.1154005  -0.6633608   0.0422694  -0.5360404
  -0.5018372  -0.0113393   0.1090258  -0.5257986  -0.1661770   0.1993147
   0.4651806  -0.5383887  -0.1330879  -0.6132200  -0.5160471  -0.2685878
  -0.2762244  -0.1217845  -0.1910446   0.2617535  -0.4734390  -1.0575489
   0.1579346   0.2084600   0.0470032  -0.4182323  -0.2911734   0.1645558
   1.8269225  -0.6711394  -0.0928130  -0.2463879  -2.2667433   0.3655331
  -0.0572792   0.1541440   0.0814330   0.6457231  -0.0106550   0.0406080
   0.5637384  -0.0743632   0.9025178   0.0142229   0.1821085  -0.1777716
  -0.0083483   0.3218840  -0.0528253  -1.2216318   0.4949001  -0.4125060
  -0.2475217  -0.0882216  -0.0446319  -0.4806592  -2.1755591   0.1455750
  -0.0829601   0.5918956  -0.3522426  -0.1808019   0.1271686   0.0248333
   0.8060535   0.4542319  -1.2843758  -0.4658461  -0.7833077  -0.0899588
  -0.2806792   0.3441041   0.1562766  -0.5953308  -1.1978085   0.3258063
  -0.6112382  -0.5149297   0.1482331  -0.0161934   0.1770381   0.0513525
  -2.3200103   1.3062305  -0.1418254   0.3914924  -0.4579706   0.2104759
  -0.1902697  -0.1274650   0.3349428  -0.8288957   1.5612399   0.2126569
   0.2149770   0.4519218   1.1764854  -0.0305583   0.2551197  -0.1170832
  -0.1925340  -0.9097976   0.1852756   0.4722774  -0.4488452   0.0113412
   0.0529935  -0.1361070   0.4699865   0.1011779  -0.1237580   0.8159663
   0.1840348  -0.8696391  -0.7328527   0.0439268  -0.2619836   0.1784874
   0.1584420  -0.8532620  -0.3695490  -0.4837146  -0.6459332   1.3253071
  -0.0321687   0.0544828  -0.1728664   1.2389826   1.1846328  -0.4116699
   0.1049473  -1.2542536  -0.0558837  -0.0027684   0.0305564  -0.1669430
   0.6326138  -0.8994350  -0.2382041  -2.3561094  -0.4127469  -1.0229103
  -0.1641935  -0.3047426  -0.3632290   1.2479834  -0.5654289   0.1437285
   0.1624421  -2.3051905  -0.3481401   0.0597491   0.0879200   0.0790364
  -0.7325407   1.0173660   0.1265857  -0.3253490  -0.1781544  -0.3464938
  -0.0473946  -0.0442819   0.3699962  -0.3804399   1.0361748  -0.3594962
   0.3047537   0.3087590  -0.5575985   0.0711932  -0.3252933   0.1581841
   0.6978085  -1.8562051  -0.4779899  -0.9555636   0.5411131   0.8470989
  -0.0599762  -0.4439433   0.2677056   0.3173117  -0.0840498  -0.3392218
   0.2747006   0.2998910   1.4336126  -0.1379216  -0.0230597  -0.1721478
   0.0391851  -1.2290231  -1.6595805   0.2660147   0.3914835  -0.0737235
  -0.5281963   0.0036499  -0.4756945   1.0771856  -0.3930227   0.7460018
  -1.2139043   0.4035065  -0.1167163   0.1054112   0.2301905   0.1559631
   0.7639368   1.2056551   0.9686438  -0.3592272   0.4973307   1.0269805
  -0.1949564   0.2330894  -0.0251003   0.3552606   0.2053949   0.4074736
  -2.2193243   0.5886017  -1.2877113   0.0059203   0.0848653  -0.1027917
  -0.8283241  -0.7549448  -0.4075466   1.2489668  -0.3472279   0.5556075
  -0.1318474  -0.0142964  -0.2305383   1.6305510   0.5013936  -0.1457697
  -0.0356874  -1.2622305  -0.2289882  -0.4020809   0.0986321   0.1243947
   0.2422270   0.0830873   0.0268192  -0.9121667  -1.2405986  -0.7841905
  -0.2880661  -0.0517331   0.0115061  -0.4621331  -0.7991443  -0.7717529
   0.2367147   0.9744821  -1.2117647  -0.2093852   0.0958281  -0.0263677
  -0.4315307  -0.6228201   0.4318621   0.6927306  -3.3048283   0.7430256
   0.0467244  -0.1032006   0.2293603  -0.2660410  -0.3342025   0.1773235
  -0.4042660  -0.1082831   0.6028727  -0.2069292  -0.0574479  -0.1474224
  -0.7993194   0.2579927   0.0339025  -1.2818244   0.0611778  -0.6770306
  -0.1763360  -0.1619461   0.1668315  -1.4444853  -0.4337957   0.6716092
   0.1373209  -0.7800141   0.6529596   0.4263154  -0.0817936  -0.0280115
  -0.3631885   1.8424450   1.3255347   0.3418740  -1.3902149   0.1424610
   0.1803623  -0.0573501   0.1358630  -0.9841262   0.7792071   0.3351626
  -0.0171167  -0.9111029  -0.6525233  -0.2188500   0.3349896   0.1741234
   0.4412794   0.2417456   0.1217850   0.0302583   0.5233726   1.3840331
   0.3711006  -0.1306838  -0.0651646  -0.6163049  -0.0975958  -0.2638630
   0.2456546  -0.3736475   0.4380754  -0.1556084  -0.0849024  -0.2123247
   0.6061713   0.2118399  -1.5587847  -0.0594649   0.2158754  -0.8437053
  -0.0263173   0.2899251  -0.0104640  -0.1034629  -1.2218206  -0.4889932
  -0.2235279   0.1338400   0.6056534   0.0320056  -0.0467580   0.2018133
   0.5052180   0.6442678  -0.9921576  -0.5366122  -0.3040844   1.0353153
  -0.0003199  -0.1223879  -0.3937194   2.1248395   0.5776705  -0.6520946
  -0.2833410  -0.5596461  -0.8205818   0.0819022   0.2704635   0.1072790
   0.3944136  -0.3113931  -0.1906899  -0.2174965  -0.0863099   0.2142919
  -0.0744871   0.1520355  -0.0576220   0.0311872   0.9568408  -0.5405402
  -0.1239792   0.0063735   0.6738002   0.0950337  -0.0249706   0.0532852
  -0.9997879  -0.1225826   0.6359260  -1.2113454   0.2740927   0.4275688
   0.0554112   0.5719956   0.3081906   2.0989039   0.7593661   0.2262785
  -0.1889808  -0.2853479  -0.7805125   0.0679525  -0.1598930   0.0021525
   0.0699656   0.5655345   1.5215555  -0.0395107   0.9556134  -0.3308682
   0.0414210   0.0661083  -0.1601317  -0.9757042   0.0970713   0.1852134
  -0.7669531  -1.1127233  -0.5160362   0.4643162   0.0302435  -0.1201434
  -1.0752655  -0.3816839  -1.1673325   0.8321900   0.4747065   1.0181526
  -0.2698259  -0.0733655  -0.4793329  -0.2619349   1.5892708   0.0028644
   0.1351471  -1.5247706   1.7388799  -0.1800437   0.0402745   0.1385038
  -0.3104451  -0.4989575   0.6156531   0.2938617  -1.0964939  -1.0440666
   0.3029022   0.4588316   0.1079597   1.0974438  -0.1686331  -1.1472363
   0.4270405  -0.0335585   0.7818393  -0.0532885   0.3256595   0.0620304
  -1.1037310   1.5462190  -1.1254540   1.1022219  -0.3114729  -0.2486991
   0.3989264   0.1685742  -0.0268633  -0.4266966   0.3325826   1.5461437
  -0.8070045  -0.1833812  -1.0124021  -0.0274823   0.1320923   0.2105109
  -0.0955648  -0.9905653   0.8062273  -0.4443426  -0.1484414   1.1949719
  -0.0449321  -0.2788947  -0.3421972   0.4448187   0.8958462   0.7851658
  -0.7641060  -0.3821758   0.4640077   0.0463412  -0.0350937  -0.4159925
   0.4864238  -0.4894717   0.5540849   0.9100232  -0.7338802   0.2860592
  -0.0880217  -0.0671575  -0.5324769  -0.3903688  -0.3970272  -0.4231237
   0.7169457   0.1445051  -1.2809610  -0.1586679  -0.0168854  -0.0416510
   0.3903633   0.1526101  -0.6550625  -0.0525912   0.5372090  -1.4542726
  -0.1657453  -0.0707675  -0.3671423  -0.2323975   0.2740941  -0.0649601
  -1.0793807   0.4015205  -0.3134706   0.1676330  -0.0516205  -0.1097557
  -0.1711539   1.1644432  -0.5614732  -0.9480770  -0.5591479  -0.5779145
   0.2939331   0.0500660   0.3844291   0.9351519   1.1556593   0.1130843
   0.5881231   0.2744295  -0.3538001   0.0097991  -0.0557478  -0.2313413
   0.5465032  -0.3825766   0.5523805   0.9059509  -0.8807707   0.5083128
   0.0898949  -0.0095336  -0.0738801  -0.4141467  -0.0814438   0.0072298
  -0.4757400  -0.0755684   0.6436356  -0.4251211  -0.0642624   0.1652279
  -0.8262962  -0.1768836   0.2768599  -0.7354248  -1.0182966   0.0614567
  -0.0337835  -0.2663601  -0.0850225   0.9763050  -0.1662344  -0.3612701
  -0.6902594  -0.4804720   0.3690108   0.0157247  -0.0360549   0.2277481
   0.8294884  -0.5249948  -0.7446017   0.1283194  -0.5791796  -0.3437102
   0.2745202  -0.2319756   0.3163560   0.7508169   1.2782155  -1.0842699
  -0.1817911  -0.4390260   0.4055042   0.2562242  -0.0842313   0.1662206
   0.3760401   0.3962559   0.4474566   0.9872036  -0.5489603   0.3047487
   0.1837047  -0.2122947  -0.2219675  -0.6703206  -0.6083334  -0.0190561
  -0.5787715  -0.7379714  -0.0086633   0.2297414  -0.3963390   0.1759114
  -0.1440738   0.6970559  -0.6364717  -0.4330206  -1.7847483   0.3447706
  -0.0041714   0.1098924  -0.0984353   0.4591275  -0.0124656   0.4882351
   0.3000492  -1.0031130   0.5083762  -0.5463204  -0.1785022   0.0893645
   0.0385865   0.5689976  -0.1015191  -1.3735736   0.9689019  -0.7560717
   0.1084349   0.4003968  -0.0323015   0.3224766  -1.4566213   0.7467587
  -0.5200908  -1.2379443  -0.7345939  -0.2815155  -0.2567177   0.3648153
  -1.2164418   0.7095852   0.4456563   1.7245254   0.6652223  -0.4293873
  -0.1713189   0.1205705  -0.0144931  -0.0459532   1.1264474   0.0730224
  -0.0727797  -1.4552207   0.6175920   0.6384896  -0.0740979  -0.0550685
  -0.0381783  -0.3800756   0.3422530  -0.0599362  -1.2856990  -1.0939832
  -0.0427676   0.1474772  -0.0605056  -0.4645795  -0.4984263   0.9778942
   0.0102706   0.9697853  -0.2475662   0.1827061   0.2332460  -0.0935788
   0.5422624   0.7227818  -0.0192094   0.6532009   1.0324614  -0.0997432
  -0.1518885   0.2916302   0.0002616   0.0766837  -0.8394388   0.1011312
   0.2698013   0.1378845  -0.4108493  -0.2148966   0.0844641   0.5073409
  -1.0285201  -0.0493649  -0.9516344   2.1373425  -0.4577929  -0.3002102
  -0.0993537   0.0476464  -0.2348256   0.0162943   0.7717778   1.4811374
  -0.6932692  -0.2039468   0.6790300  -0.0582879   0.1856665  -0.6296433
  -0.5360837  -0.0425748  -0.2314733  -0.1105215   0.0049420  -0.2173898
   0.0145650   0.0094939  -0.2715164   0.0154868   0.7282724  -2.0858755
  -2.0706131  -1.6130669   0.2283251  -0.1345922  -0.0621737  -0.0369441
   0.6084576  -1.4223424   0.2479858   0.3632636  -1.0413917  -0.5876290
   0.0340126  -0.1184515  -0.0154364  -0.7109218  -0.1661186   1.1018227
  -0.8572910   0.8151858   0.6413915  -0.0516178  -0.3116820  -0.2299792
  -0.7001139  -0.1213723   0.8929950  -1.9596556  -0.1871412   0.9141903
   0.2165544  -0.1773215   0.2594170   0.8324681  -0.6570550   0.6215365
  -0.4983885   1.2028673   0.1794325  -0.3116181  -0.4237912   0.0799726
   0.0608504   0.2759364  -1.2678297   0.9864780  -0.1961749  -0.5344112
   0.0994755  -0.0970640   0.2975906   3.2098260   0.9003734   0.1071145
   0.7726543   0.4386322   1.3822251  -0.0426424  -0.1386801  -0.0432783
  -0.4667713  -2.0715800   0.7062140  -0.7420196  -0.6340933   0.0490469
  -0.0282545  -0.0096047   0.0835127  -0.3922061  -0.4049050  -1.1763587
   0.8619265   1.2792022  -2.1187176  -0.0200586   0.1636764  -0.0603819
   0.6361610  -0.1582776   0.1737292  -0.5273445   0.3949585   0.0381282
   0.1919761   0.1115672   0.0743651   0.3429879   0.9130390   0.2249570
   0.3764457  -0.2828736  -0.1681508  -0.1297379   0.3155745  -0.0293608
  -0.1681887   0.0186784  -1.1736253   0.4367644   1.0094650  -0.5231772
  -0.1854109   0.0428435  -0.4707132   0.4140601  -0.9000178   1.1034286
   1.8287796  -0.7199544   0.6921135   0.2881462   0.1065541   0.1162064
   0.8120369  -0.3804303   1.2665970  -0.0718975  -0.0801947  -0.6791099
   0.2310763   0.2070413   0.0295808  -0.5528729  -0.7307809   0.3798410
   0.9043044   0.4198608  -0.0344946   0.0657378  -0.0976357   0.1064587
  -1.0334443  -1.1107758  -1.1918827   0.8780625   0.4787067   0.2000094
  -0.0138888  -0.0765458  -0.0181515   1.0348716  -1.4827146  -0.2631731
   1.4663087   0.5363428  -0.4894834  -0.2699269   0.2609721  -0.5802842
   0.3477944  -0.4857876  -1.2441827   0.6893189  -0.4696400  -0.0333254
  -0.2174831   0.1290381   0.1323133   1.0203962  -1.1548584   0.1287158
   0.2246807   1.1133157  -0.1435212   0.1054354  -0.2399190   0.3278162
  -0.4585795   0.1573932   0.1797544   0.2725070   0.5330159  -1.4604659
   0.1157137  -0.1218271   0.0639731   0.4263090  -0.0195865   1.3432415
   0.2489442   1.2724502  -0.8587045  -0.0865831  -0.2484861  -0.2654748
  -0.3295206  -0.5814952   0.2151307   0.9335211  -0.3852586   0.9731810
   0.1986725  -0.0353223   0.1049640   1.1832756  -0.8089901  -0.9031457
  -0.3810825   0.5580945   1.0725002   0.0531800  -0.0482315  -0.0401304
  -0.4480791  -0.4021119   0.5040964   1.3217638  -0.2715888  -0.4584627
   0.0067372   0.1205726  -0.1782918  -0.0368394   1.0128416   0.3462943
  -0.7228807   1.5526225  -0.1593854   0.0424490  -0.0265631  -0.2759254
  -0.6112990   0.8288801   0.4031711  -0.9584409  -0.6522419  -0.4187596
   0.0001496  -0.2833802  -0.0660358   2.4378945   0.2751030  -1.4411947
  -0.6492960  -0.7080620  -0.5736108   0.0310840  -0.0614806  -0.2385025
  -1.3728153  -0.8385725   0.3844954   0.2915415  -0.0908714   0.1570199
   0.0835483   0.0185460   0.0315007  -0.0468391   1.4492694   0.4177936
  -0.0858246  -0.4188491  -0.6316793  -0.0474189   0.0754363  -0.0947459
  -0.2296508  -1.7707011  -1.0465179  -1.1936331   0.3495850   0.5915772
  -0.1325150  -0.0779351   0.3823938  -1.7717708  -0.2028912   0.8975718
   0.2327633   0.5561775   0.1147889  -0.2195319   0.0780400  -0.0705156
   1.0036416  -1.0873127   0.0873147   0.3842804  -0.9907364  -0.6203713
  -0.1267646   0.0884235   0.4004899   0.1758423  -0.4020647  -0.3383742
  -0.7588432   0.6036266  -0.7973200  -0.1158066   0.4980793   0.0256290
  -1.7461723  -0.0730882   0.9215806  -0.9239763  -0.4758993   0.5508134
  -0.1645876  -0.1074427  -0.0287698  -1.9592736  -0.2648602  -0.5880058
  -0.9100631   1.0273598   0.8026188   0.0826160  -0.0006453  -0.1578496
  -0.0874313  -0.1839122  -0.3529311  -0.0042961  -0.2455043   1.6180330
  -0.4798434   0.2203336  -0.2169824   0.3667487   2.0365297   0.5077305
  -0.1838388   1.1634445  -1.9345658   0.1533602  -0.0154370  -0.2843004
   1.3910036   0.9764130   0.2356114  -1.2221705  -0.6889339  -0.2542254
   0.0252601   0.2129041  -0.0958582  -0.1591835  -1.0436670   1.0566510
  -1.1388291   0.5483380  -0.4158343  -0.0142884   0.1161859  -0.0977953
   0.7489462   0.4549210   0.1618654   0.3554988   0.1692606   0.2910909
   0.0523409   0.0419923  -0.2586521   0.0886739   0.4383818   1.0843666
  -0.0364236  -1.8608724  -0.1990108  -0.1060105   0.3225732  -0.4894733
   0.3129122  -0.1372066  -0.6688496  -0.0952798  -0.0738027   0.1999361
  -0.0444831  -0.1927944  -0.1239356  -2.3744556   0.2424657   1.0633932
  -0.7416887  -0.6753294   1.1673295  -0.1232767  -0.0313390   0.3873012
   0.6798152   2.0127614   1.0488946   0.0266588  -0.0816063  -0.3528109
  -0.4726458  -0.3241444  -0.0678222   0.8554897   0.0191066   1.0552305
  -0.4973209   0.3199129   0.0956186   0.1477212   0.3627404   0.3353246
  -0.0989200  -0.1944187   0.3868510   0.0637048   0.1854933   0.1601749
   0.1361076  -0.2506367  -0.1127363  -0.3503007   0.3794943  -1.2238044
   0.2053241   0.0750665  -0.6786488   0.2106027   0.0297183  -0.1872864
   0.5295085   0.2887519  -0.8321923  -1.0148349  -0.3046225  -0.4314748
   0.1304902   0.0685446   0.1002742   0.1342137   0.1551159  -0.9111282
   0.2958354   0.2002219   0.0579348   0.4462479   0.0509940  -0.1577844
  -0.3922586  -1.0989297  -0.3111641  -0.8925687   0.1944899  -0.2790418
  -0.3788890   0.0854810   0.0563872  -0.2421171  -1.0508462   0.0322971
  -0.3959931   0.2715714   1.2311128   0.0061666  -0.0768490  -0.0683040
   0.6495538   1.4195706   0.1449636   0.0838113  -0.1102214  -0.4332405
   0.0765103  -0.2511754  -0.0271630   0.8698629  -0.6371288   0.7241675
   0.3361545  -0.1634442   0.2072018  -0.0119285  -0.0066074   0.3119291
   0.5111069  -1.3330121  -0.4717593   0.7269901   0.6645548   0.1219747
   0.2915978   0.0983640  -0.0211070  -0.2580241  -0.6956537  -0.6602367
   0.1075556  -1.8673632   0.9093425   0.1959031   0.1454659   0.3573352
  -0.7945370  -0.1850725  -1.0365928   0.2932380  -1.7294358   0.3427833
  -0.2020895  -0.1901015  -0.4854735   0.5994882   0.9973271  -0.8925215
   0.4716820   0.8504657  -0.3830313   0.2019695   0.0983439  -0.2487616
  -0.3238944   0.2455199  -0.1017298  -0.8647459  -1.0266449  -1.6481922
   0.4874562   0.3404856   0.1105421  -0.3479902  -0.2060336   1.1100616
   0.3610851   0.3015424   0.5325953   0.1408528   0.0292913   0.1070355
   2.0683352   1.4272470   0.1414344  -0.1749472  -0.5908306  -0.3547493
  -0.1977952  -0.0071395  -0.0571032   0.2362838   0.9211634  -0.5889944
   1.2101395   0.8634726  -0.0358787   0.1230583  -0.0317707   0.1457562
   0.1017087   1.3145751  -1.1608339   0.3303786  -0.1012110   1.1278637
   0.1993383   0.0477645   0.0777411  -0.3401487  -0.4244896   0.3149300
   0.9731791   0.6370039  -0.7778885   0.2781973  -0.1776102   0.0035019
  -0.6909209   0.4717265   0.1948024  -0.8700026   0.5345201   1.0949556
  -0.1089954  -0.0920828  -0.1107261  -0.0406262   0.0099861  -1.4379921
   0.6931601   1.2830323   0.1471301  -0.1183340  -0.1318187   0.1100575
   0.8767085   1.3240218   0.7624730   0.8433021  -0.6865842   0.0737200
   0.0234473  -0.0265568   0.2831449  -0.0724502   1.0435332  -0.7753776
  -0.1583131  -0.7378929   0.2433686  -0.3982787   0.0969149   0.0197415
  -0.0418894  -0.1203427  -0.6078500   0.4979931  -0.3809156  -0.3130045
  -0.1782864   0.2025122  -0.2875880   0.9838327   0.4105969   0.5665023
  -0.6805416   0.6861345   0.4341198  -0.1965774  -0.0926212   0.0350240
  -2.1307272  -1.5208243   0.8091828   0.2566424   0.1089915  -0.7287226
   0.2145487   0.1911116  -0.3381032   0.4589225   0.7046242  -0.1064721
   0.4480644   1.9342449   1.2441824   0.0665840   0.0589870  -0.3255541
  -0.6088402   0.7482556  -1.1296550   0.7174126   0.7242275   0.5889437
  -0.1126620   0.2399630   0.2219608   1.1882713   0.3252406  -0.6602971
  -0.5105310  -0.4489171  -0.0409896  -0.1359030   0.1724277  -0.2822646
   0.2189349   0.1844748   0.3781674   0.6071729  -0.5168143   1.0184930
   0.1387011   0.3689997  -0.1540339   0.6198284  -1.8966721  -0.4095769
   1.1470436  -0.1877800  -0.1838513   0.0434987  -0.0931716  -0.0004405
  -0.8807790   0.4568709  -0.3790527  -0.4908107   0.0863698  -0.6056655
   0.0554660   0.0522872  -0.0768808  -0.3152723  -0.2761748   0.1007570
   0.3547405   0.7362596   0.8535748  -0.0046784   0.0730713   0.0635666
  -0.0746412  -0.2501700  -0.1804109  -0.1421156   0.2994668  -0.4136484
   0.1306571   0.0655280  -0.3262554   1.3446718  -0.9906123   0.3492158
   0.1070140  -0.4616838   0.8196976   0.0133899  -0.0355055  -0.2107931
   0.5142155   0.0002255  -0.8123799   0.5122023   2.3192414   1.2251794
   0.2269137  -0.0312851   0.3879586  -0.3235361  -0.4254508   0.6616077
  -0.8159703  -0.8183041   0.0307145  -0.1774105  -0.0702414   0.0239159
   0.8563663  -0.2387345  -0.6598645   1.8910385  -1.6331458   0.0617322
   0.3468458  -0.1942480  -0.2244451  -0.1660635  -1.4556743   0.8288285
   0.9708166   0.5599277  -1.6253610   0.4504196   0.0036389  -0.1597883
  -1.2324702  -1.6309815   0.3269219   0.4202057  -2.1193533  -0.4385398
   0.0578186  -0.2345337   0.4388327  -0.6280178  -1.3031102  -0.3480824
  -0.9002974   0.6231050   0.7781156   0.1277620  -0.1317293   0.3589193
   0.9353278   0.6066771   1.2117356   0.4880842   0.2651785   0.3187691
   0.2642532   0.2108147  -0.1814690   2.5010679   0.3087284  -0.2308270
  -0.8797062   0.4293699   0.1241071  -0.0611246   0.0333577  -0.1368414
   1.1878595   0.3394044  -0.4061082  -0.8716072  -1.0219190  -0.1205170
   0.0486347   0.1008871  -0.0170385   0.6194219  -0.1897735   0.9166876
  -0.0204170   0.1944339   0.3978762   0.0799125  -0.2351108  -0.0624770
  -1.7010784   0.3088288  -0.7179995   0.7142079  -0.4095858   0.1522945
  -0.1793661  -0.1189353   0.0939428   0.9284912  -1.2814265  -0.1029980
   1.0636447   0.3050232   0.5528933  -0.2339779   0.2040911  -0.1263092
  -0.7547892  -0.5159156   0.8216790  -1.3631664  -0.8002513  -0.4439448
  -0.2628308   0.2712759   0.1039382   0.4245670  -0.7587913  -0.8446688
   0.9331291  -0.7342762   0.2423844   0.2579650  -0.5409462   0.0511777
  -0.9776564   0.6201469   0.7292505   0.5177349  -0.0157396   0.6293314
  -0.1846032  -0.2073752   0.0845129  -0.0965954   0.2860623  -0.4035939
   1.0122103  -0.1285093   0.0116041  -0.3333203   0.0733066  -0.0967890
   0.5408466  -0.5117710  -0.0637726   0.1304012   0.7596494   0.7911422
  -0.1335284   0.0062517   0.0305952  -0.2909300   1.1557601  -0.6094898
  -0.7655084   1.1026105  -0.4035710  -0.1207061   0.2097411   0.3506906
  -0.8844878   0.1818180  -0.1442681  -0.3768847   0.3638414   0.7267810
   0.1804332   0.2711169  -0.3366122  -1.5366152  -0.2203359   0.3251116
   0.3186624   0.3676651  -0.3730127  -0.0082881   0.2190725  -0.2771750
   0.7664698   0.2382736  -0.3577007   0.4125036  -0.4761639   0.8738025
  -0.0067694   0.1385713  -0.0266648  -0.1788691  -0.1276459  -0.2720217
   0.0629381  -0.5580604   0.0173625  -0.1481861  -0.1980377  -0.0346213
  -0.0942028   0.0564069   1.0511915   1.2716547   0.9121507   0.3012158
  -0.1240457  -0.1003367   0.0876163  -0.0019644  -0.7264742   0.6975539
  -0.5433129   1.6814948  -0.4867687   0.1186992  -0.2015529   0.0528836
   0.0666450  -1.1614114  -0.2064275   0.6801045   1.4206375   0.0982246
  -0.2660450  -0.0355496  -0.1267308   0.7315785   1.1414925   0.5932196
   0.7387327   0.8238139  -0.2828203  -0.0763030  -0.2023799   0.1439003
  -1.0917158   0.1203663  -0.8954071  -0.9269305  -0.5418657   0.0086807
   0.0529358  -0.3280168  -0.2072341  -0.1478371  -0.6140494  -0.4453585
   0.2093853   0.4295221   0.8678698   0.0281582  -0.0133630  -0.0668876
   0.9050551  -1.5053302   0.5788552   0.4796438   0.5700832  -1.2192472
  -0.1794679  -0.0544431  -0.3626909   0.7257296   0.0835596  -0.1774635
  -2.9764062   1.4848459  -1.9584935   0.3148380  -0.1715643  -0.3130437
   0.3529284  -0.4221648   1.6809528  -0.1935353   1.0928367  -0.2892154
  -0.1673821   0.1036030   0.0777107  -1.3653814   0.9950991  -0.1192777
   1.0639728  -0.2140973  -0.6526054  -0.0461005   0.0007889   0.0872716
  -1.2268381   0.1619478  -0.9321109  -0.8113244   1.7232301  -1.9645995
   0.0821411  -0.1172194   0.0394354  -0.4210264  -0.4719706  -0.8368262
  -0.1954036   0.4992369   0.1854646  -0.0186992   0.2009002  -0.2352720
  -0.1019173  -1.1829392   1.6889075  -0.3207615  -0.2730600   0.0590147
   0.2844748  -0.2447001  -0.0550790  -1.1745232   0.1136004   0.3951866
   0.1664028  -0.5812542   0.1296246   0.1208112   0.2880610   0.3779747
  -1.4861639   0.3762579   0.1171010  -0.0593336  -1.1123878   0.3014358
   0.3216843  -0.2649750  -0.2577688   0.2335191   0.8825988   0.8766542
  -0.5571071   0.0107225   0.0207894  -0.2658149  -0.0260407  -0.0977637
   1.5684625  -0.8267485   0.6168938  -0.2155062   0.5778551  -0.7390251
  -0.3425570   0.1422310  -0.0950128  -0.2246892  -1.2707980   1.1844408
   1.2832105   0.3419153  -1.8428163  -0.2883189  -0.1007683   0.1458061
  -0.3636220  -1.0575613  -1.1335098  -0.1196859  -1.1813348  -0.4874689
   0.0236972  -0.0576212   0.0592812  -0.5688503   1.2374264   1.3185653
  -0.3213470   0.9677608  -0.6572675  -0.3944675  -0.1937729   0.1463457
  -0.6663097   0.9566776   0.2381712   0.3278683  -0.3382338   0.0287695
   0.2107472   0.0041284   0.1546988  -0.6449945  -0.2191351  -1.6842847
  -0.3632298  -1.1258963  -0.3282581  -0.1617818   0.2480010   0.1756322
  -0.0080124  -1.3273123  -0.4673101  -0.5836976  -0.8578949  -0.9909276
  -0.5357282  -0.0607233   0.1049227   0.1299953  -0.9868410  -0.5229124
   0.7226317  -0.9167649   0.2516341  -0.1628400   0.2220822   0.1055682
  -0.0332837   0.2272769   0.9010839   0.4605366   1.2935809   0.0760815
  -0.0845412  -0.0220543   0.5161659  -0.3394993  -0.7010350   0.6007337
  -0.1487696  -0.0782056   0.6818492  -0.0383468  -0.0053084   0.0568142
   1.0372030   0.9847665   0.5780571  -0.0954349  -0.6615122  -0.8684511
  -0.1035671  -0.0598954  -0.3333870  -0.2981924   0.5469796  -0.1513458
  -0.2081628   0.9682848   0.4967948   0.2095891   0.0296883   0.2501017
   0.0236633   1.3955694  -0.5059632  -0.4048424   0.2012884   1.0223385
   0.3009332   0.3011820   0.3673369   0.4109189  -0.2035353   1.3948862
   0.7277950  -0.7915988   0.5194696  -0.1704490  -0.2755756  -0.3352474
   0.7697041   0.8843475   0.3249159   0.4634026   0.0025806  -0.5068015
   0.3423686  -0.3146351  -0.0615649   0.6166289   1.5409124  -0.0396537
   1.5409704  -0.1042402   0.7350083   0.2307804  -0.0737981  -0.1405719
  -0.5216262   0.7752829  -0.7153820   0.2230271  -0.8549166   0.2466432
   0.1617223  -0.0637578   0.0752402   0.9771751  -0.2242105   0.5079394
   0.2980732   0.8878314  -0.2815973   0.2183446  -0.0050562   0.2224010
   0.1495784  -0.3358092   0.7643027  -0.8047334   0.9372358   1.0954786
   0.0839745  -0.0100983  -0.1492254  -1.1465422  -0.2667506  -1.4835323
  -0.0139674  -0.9797671   0.4472348  -0.1417959   0.1897670  -0.2106512
   1.0866016  -0.1912688   0.5366759  -0.7180260  -1.7379017  -0.8146436
  -0.0472380   0.3443226   0.0226362  -0.5426618  -0.6742957  -0.3770313
   0.7046611   1.0112597  -1.2578139  -0.0447223   0.0033696   0.0152238
  -0.8875927   0.4890461   0.1045843   0.2547818  -0.5261045  -0.8224851
  -0.0005224  -0.3498991   0.0287306  -0.6119896   0.4165442  -1.3871563
   0.1176189   0.1911036  -1.2276321  -0.0881807  -0.0602039   0.2358848
  -1.0523150  -0.8601402  -0.8317415  -0.2388435  -0.8920285   0.1293225
  -0.0176075  -0.2370666   0.4333776  -0.1323143   0.5260049   0.2405099
  -0.7523366  -0.2947339   0.5432610  -0.0186291   0.2466235   0.2121920
  -0.2316077  -0.5309576  -0.0009826  -0.2384585   0.7198309   0.3105084
  -0.1033469   0.1183637   0.0042781  -0.2391508   0.1867287   1.4810171
  -0.2462304   0.1318713   0.3606756   0.0487476   0.0215543  -0.0462483
  -1.7516827  -1.3347923  -0.3615116   0.4607620  -0.3938424  -0.8078699
  -0.1688988  -0.0199704  -0.1157781  -0.4214491  -1.0974603  -0.6629575
   0.6291390  -0.5654498  -0.6581207   0.1393472  -0.0181502   0.0366141
  -1.2759949   0.5519235   1.0263321   0.6390263  -0.6760889   0.6578225
   0.4179867   0.0404094   0.0094473   0.7718613   0.8152917   1.0339520
   0.3002289  -2.2061724   1.3708477   0.1098342  -0.3115478   0.2050031
   0.1703599   0.7322293   0.1137479   0.3988575   1.2803083  -0.1438827
  -0.1744734   0.0293926  -0.0569988   0.5080598   0.4630278   0.6966301
  -0.1760551  -0.7214792  -0.6579166   0.2654050   0.0111624  -0.1908839
   0.6855019   0.6483593  -0.2347736  -0.3919277   0.0584142   1.5229965
   0.0509230   0.1815585   0.0176036   0.7470823  -0.8408504  -0.2526241
  -0.0748878  -1.4524199   0.3048088  -0.0462048   0.1815525   0.0480553
  -0.1597956   0.4865991   1.3802350   1.3515361  -0.3636484   0.9852417
  -0.1669553  -0.1156608  -0.2560268   0.4595598   0.0378300   0.2296812
   1.3418541  -0.8700925   0.8120354   0.1061654  -0.0706219  -0.2634422
  -0.1737511  -0.7619983  -0.6819932   0.0052247   0.0103230   0.0671553
  -0.1499472  -0.0842619   0.0694038   0.4553319  -0.4933874  -0.2787951
   0.9991882  -0.7579777  -1.5719650   0.0954248  -0.1925034   0.0684903
  -0.0826660  -0.2781451   0.4256424  -0.0822082  -0.7881587   1.2587769
  -0.3617316   0.3390232   0.1652789  -1.2485553  -1.6932310   0.3787795
  -1.0390932  -1.3212481   0.6919888  -0.0046481  -0.2284485   0.3466713
   1.5891606   0.7970115   0.8678122   0.2429201  -0.2546465  -0.3077286
   0.0594038  -0.2064594  -0.1646139   0.1350764   0.8391349  -0.7710885
   0.7508974  -0.6713851   1.6167259   0.1459256  -0.0073028   0.1395190
   1.1606751   0.6266499  -0.0351631  -0.3047043  -0.4417132  -0.5746063
  -0.2661716   0.3116432   0.0884591   0.5627222  -0.2118345   0.1202161
   0.3403931  -0.7247771   0.0188000   0.1558929  -0.0227018  -0.0209603
   0.8474826   1.1228427   0.0027625   0.9981995   1.0261654  -0.5519909
  -0.1070848   0.1012465  -0.0283267  -0.2324206   0.0579173  -0.6491223
  -0.4827939   0.1360794  -0.7553417   0.2174267   0.0426716   0.3012922
  -0.3227791  -0.4520781   0.2469290   0.7198064  -1.6401642   0.8695889
  -0.1314176   0.0782862  -0.1931005   0.1960765   0.4470882   0.2360722
   0.8012894  -0.8725262   1.1490856   0.0088780   0.1757291  -0.0732423
  -0.5956215  -0.6441812  -0.7334752   1.0916072   1.1018505  -0.4198809
  -0.3194927   0.0272777  -0.0561643   0.3041489   0.1219514   0.6806061
  -0.3855192   0.5249317  -0.2761373   0.0857267  -0.3265109  -0.2899760
  -0.4513375   0.5304637   0.8252552   0.2224865   0.0212226  -0.6287162
  -0.4356317   0.1326657  -0.1090368  -0.5735870   0.9661069   0.0666787
   0.5295312   1.0879652   0.0097814  -0.0525583  -0.0622123   0.2196773
   1.3610255   1.8987066   0.0762641  -0.8522467  -0.5202423   0.0298342
   0.0898775  -0.1686151  -0.0780957   0.6495188  -2.0047321  -0.9565311
   0.1063348   1.4553205   0.0840119   0.0060723   0.1519468   0.1453689
  -0.4022791  -0.4425541   0.1980830   0.7234095  -1.1208687   0.9222865
  -0.2247799  -0.1100356   0.0322247   0.3191092  -0.3418369   0.7005654
  -0.3306066  -1.4291158  -0.1661714   0.0426683   0.2916342  -0.0717582
   0.0660058   1.3856246  -0.0230099  -1.1069959  -0.2388656  -0.6404248
   0.2998621  -0.1514193   0.2125848   0.1843991   0.1128847   0.3537990
   0.8008934   0.0618472   0.3909322   0.0220119  -0.0069800   0.0330478
   0.8292980  -0.2574250   0.2023195  -0.2625461   0.0865893   0.9628518
  -0.0445831   0.4425827  -0.5646039   1.0774734  -1.1165226  -0.7882469
   1.0295649   1.1712026   1.1429411   0.2810613   0.1906681   0.1109170
  -0.2882664   0.1123846  -0.7411388   0.7913988   0.0471830   0.0002655
  -0.3603819  -0.1869168   0.1450093   1.0705077  -0.0877335   0.7055999
  -1.0435372   0.6152708   0.8815821  -0.1289204   0.0878014  -0.3129082
   0.9729593  -0.8831262   0.2447616   0.2124432   0.2095058   0.6925888
   0.0661562  -0.3131667  -0.0072862  -1.0791136   0.6592979  -0.3183919
   1.4717718  -0.6175356   1.0960839  -0.0611134  -0.1565602  -0.3387466
  -0.9231282  -0.1293185  -1.9360456   0.0894189   0.5046000   0.7808165
   0.0964851   0.1004603  -0.0427788  -0.3913135   0.3421848  -1.4356133
   0.3025143   0.3844692   0.2917069  -0.1169758  -0.0098300  -0.0460832
   0.4781129  -0.0954770  -0.2984806  -0.0141128   0.0376410  -0.0929323
   0.2407901   0.1832918  -0.0715827  -0.7788599   0.0902233  -1.0775274
  -1.4008084   0.1039008   0.8388550  -0.0980444  -0.2483849   0.0148373
   1.0018018   0.1877001   0.0294124  -0.6759269   0.8099429  -0.5498244
  -0.1645105  -0.0970369  -0.0057523   0.8329939  -1.3222072  -0.1136597
  -0.5665885   0.0439958   0.4786156   0.1329597  -0.2658518   0.1542618
   0.2369916   0.1174750  -0.6114577  -0.6229744  -0.2306766   1.1429995
   0.3077295   0.0450736   0.0491476   0.3323152   0.0331229  -0.5293422
  -0.0260078   0.8357451   0.2064248  -0.2951963  -0.1345289   0.1361351
  -0.5677598  -0.8185285  -0.4841005  -1.7836397   1.9818046  -0.0879729
   0.0109477  -0.1945060   0.1341844  -0.2376217   1.1068871   0.3275298
   0.3707806  -0.9385528   1.2721570  -0.0732850  -0.3430554   0.2363800
   0.2660597  -0.5948718  -0.5584820   0.0341071   1.4963894  -0.0670654
  -0.1497039   0.0179617   0.3745104  -0.4679967   0.6746559   0.4852696
   0.0817144  -0.0209191   0.0177180   0.1223589  -0.1129496  -0.2968813
   0.1544666   1.7711784   0.0502321   0.5774794  -0.0675579   0.9734592
   0.0037598   0.2287530  -0.0826254  -0.5818801   0.1786637   0.2744086
   1.4864266  -0.1211706   0.4435054   0.1362091  -0.1546888   0.0450004
  -2.1938243   0.9838870  -0.1734446   0.4095384   0.7264823  -0.8603893
   0.0678670  -0.1205755  -0.0049700   1.3958604  -0.1576298   0.1413120
  -0.4961146   1.2896775   0.4849513  -0.2347229   0.1871121   0.5905709
   0.1762738  -1.5170174  -0.6887168   1.1413141   0.0430418  -0.3678668
  -0.1136092   0.0358977   0.0131556   0.8558113   0.3235441  -0.8822011
   0.7697250  -0.5416327   0.2416097  -0.0645556   0.2860574  -0.3142093
   1.6646629  -0.3714589   0.2677610   0.3568379  -0.7069026  -0.7515085
  -0.0770331  -0.3751515   0.0330771  -0.5217101   0.9587653   0.0272849
   1.3016441   0.5430805   0.2653496   0.2262669  -0.1591356  -0.0671256
  -0.1093080   2.2970644  -0.0569028   0.3290644   0.8271425   2.2143221
   0.0823946   0.3952202   0.0391944   0.1191595   0.0917687   1.4691895
   0.1489327  -0.2640735   0.6624637  -0.1092018   0.1842093   0.1705811
  -0.7018011  -0.7645935   0.5517886  -0.8590257  -0.8006557   0.5773716
   0.0878157  -0.1139303  -0.2184810  -0.0535926   0.1370855   0.3115806
   1.4265390   0.1859320   0.7413713   0.2497011  -0.0163697   0.1562862
   0.1409988   1.2978183   0.4561929   0.2144985  -0.1621262  -0.6202537
  -0.0761542   0.0838002  -0.0199987   1.4125425   0.2081547  -0.8607674
   0.7598248  -0.2777187   0.2687884  -0.0458322   0.1832831   0.2227530
  -0.4928522  -1.8984438  -1.1066600   0.4465627   2.1513435  -0.3550216
  -0.0184912  -0.2121401  -0.0487217   0.5378303   0.2571485  -0.3102534
  -0.6226325  -1.2131672  -0.5440715   0.2096597  -0.2345453  -0.2836794
   1.1749426  -0.6211756   0.7506818  -0.1735703  -1.1570090   0.3593135
  -0.0379677   0.1251640  -0.0735340  -0.9970900  -0.2042971  -0.0697368
   0.7557563  -0.6352991  -0.4945495   0.2130611  -0.0064546   0.2926152
   0.0005420  -0.0213916   0.3865131  -1.3137035  -1.1180516  -0.7066522
  -0.0211609  -0.1141001  -0.0784719  -0.4380585  -1.6429967   0.2502200
   0.5236677   1.1793965  -0.5207975  -0.0630825   0.2176084   0.1437308
   0.6138300   0.8545661   1.2356507   0.2177253   0.3928543  -0.0731699
  -0.2141963  -0.0684080   0.1101952  -0.0474630  -0.4224621   0.4065513
  -0.0571252   0.6811101  -0.1409691  -0.2677990   0.1678858  -0.4124185
   0.4747387  -0.3733215  -0.2843897   0.8455459   1.2389556   0.8258430
   0.0602752   0.0045215  -0.0826922  -0.9559015  -0.3762589   1.1728714
  -0.5580894  -0.4747140   0.9929279   0.0285433   0.4862915  -0.1194125
  -0.5821863   0.5306307   0.0103334   0.4772681  -0.0635258   0.2395693
   0.1558116   0.1345511  -0.1643992   0.3446584  -0.4347858   0.5333434
  -0.6435607  -0.4306142  -0.2866074   0.0179139   0.1245760   0.2238706
  -0.2408701  -1.5205495  -0.8748496   0.7707237   0.8193364  -0.6833094
  -0.0856292  -0.1126249  -0.3223785  -0.0769457  -0.1890425  -0.6808697
   1.9836752   0.0211146  -0.6669180  -0.0764839  -0.0134618  -0.1030084
  -0.6608461  -0.2922553   0.1350456  -0.5621765   0.6090273  -0.4409790
  -0.3939518   0.2445966  -0.4832967  -0.9155018   0.7529043  -0.1135695
   1.6383362  -0.0180110  -0.1195325  -0.3033822  -0.1453606  -0.0272271
  -0.7327304   1.4116988  -1.0939116  -1.0822961   0.0274276  -1.0190837
   0.3100916   0.1677791   0.2462346   1.9655864  -0.5178960  -0.8054487
   0.5817318  -0.1933317  -0.1908654  -0.2143598   0.2158180   0.0746886
   1.6003599  -1.5438107   0.2322244   1.7495792   0.4507363  -0.8683375
  -0.0190728   0.2380947  -0.0722684  -0.2658325  -0.1444029  -0.4422772
  -0.0832716   0.4175595   0.2851922  -0.2616475   0.3357902  -0.2253424
   0.9816742  -0.0386479   0.8278382  -0.0881277   0.4463247  -0.9947429
  -0.0101560  -0.0292551  -0.0231349   0.3064956  -1.0227035  -0.6643539
   0.7642330   0.7166515  -0.4969619   0.5419867  -0.2756844  -0.1950265
   0.1397976  -0.4433677   0.8215081  -0.4142630   0.9164249   0.1744985
   0.1909703  -0.0741200  -0.0108761   0.2995207  -0.4982026   0.0039222
  -0.2656826  -0.8887750   0.5327436  -0.0166442  -0.4799725   0.0714584
  -0.3820253  -0.7073991   0.3089748  -0.1009104  -0.8146084   1.1262674
   0.1699047  -0.1342152  -0.1118820  -0.7020188  -0.8573320  -0.4933939
  -1.4568065  -0.0851833  -1.2947527   0.0126734  -0.1095439   0.0633512
  -0.6825187  -0.7424523   2.6550586   1.6471950  -0.1055050   1.0077737
  -0.0588361  -0.0004498   0.1451384   1.0047704  -1.6007311   0.9898803
   1.3005838   1.0952679   0.5515828  -0.0300044  -0.1638481   0.0373669
   1.0621388   0.4541290   0.7965021  -1.4454924   0.5135114  -0.7309539
   0.0747094   0.1740880  -0.0614142  -0.1879476  -0.1378981   0.1234196
   0.1916355  -0.2216158  -0.2722764   0.2601698  -0.0175222   0.2401133
   0.4240858   0.5060798   0.2578371  -0.4535944   0.7945081   1.1050213
   0.1725699  -0.0339751   0.2380132   0.1965564   0.5989241  -0.0127724
  -0.3864825   0.2215879   0.4271798   0.2651538   0.0546859  -0.2150409
  -0.4290129  -0.2333825  -0.0950384   0.1454945   0.5638064   0.0561371
  -0.2227930  -0.0263915   0.0157288   0.2432913  -1.0401106   0.4142865
   0.5546528  -1.6388107  -1.9150123  -0.1091843   0.2115475  -0.1304043
  -0.1142158   0.0570803   0.1966721   0.5183027   1.3876737   1.0754023
  -0.2539791   0.1275370  -0.1787128  -0.9271884   0.7671433  -0.2947884
   0.0825634  -0.7603491  -1.0911720  -0.0839339  -0.1656737   0.2750601
  -0.7490291   0.8934235   0.9603706  -1.1344553   0.6717694   0.0999904
  -0.1729419   0.0452223   0.2382979  -0.5430145  -0.4216108   0.6484894
  -0.1089417   0.0916893   0.2679880  -0.0493208  -0.1011046  -0.2920948
  -0.1833157  -0.7229916  -1.6759076  -0.1740184  -0.7811923  -0.3097019
   0.0797028  -0.0167942   0.2788420  -0.6416823   0.4561367   0.8127542
   0.4298391   0.5815326   0.3092267  -0.2199371  -0.0222630  -0.1047341
  -0.7960045  -0.6569742   0.4997645  -0.5053078   1.0403665   0.0755140
   0.0222691   0.0167921  -0.0627463   0.1410446   1.3660585  -0.6791358
   0.4130377  -0.7933018   0.1386026  -0.2736690   0.2214361   0.1351904
   0.5721819  -0.0376053   0.1529814  -0.5107588  -1.1276414  -0.4288377
   0.0715388   0.3016048   0.1075227  -0.5938103  -0.8354018  -1.0539809
  -0.4916593  -0.0521784   0.7182344  -0.4298870  -0.0810075  -0.0492956
  -0.0803872   0.4659003  -1.7044264  -0.4867266  -0.6124512  -1.0615019
   0.0393566  -0.1760545  -0.0643487  -1.7095440  -0.6818538  -0.7977627
   1.5902129  -0.6387229  -1.4890798  -0.1508042   0.0256374  -0.1408560
   0.4427024  -1.4327785   0.4475379   0.5820057   0.4938403  -0.9986761
  -0.5081642   0.0870090  -0.3107163   0.4255240   1.6283251  -0.2605364
   0.6671948   0.9670976   0.6184584  -0.1763758   0.0277131   0.1372435
   0.6072607  -0.2979218  -1.2960912  -0.3979439  -0.6147827  -1.0485078
   0.0185260  -0.1222158   0.1090275   0.2226195   0.4706554   0.2287990
  -0.0016278   1.2936363   0.4158478  -0.1779311   0.0694670   0.0654213
   1.7580791   0.3345939  -0.1728315   0.0060709   0.8815788   0.1493501
   0.3861118  -0.4498408  -0.0273902   0.4305509  -0.4880076   0.1417431
   0.3450432   0.4185920  -1.0000104  -0.0237468  -0.2275829   0.1321731
   0.0914340  -0.0118189   1.5319746  -0.2514452  -0.2238634   0.3092134
   0.1666894   0.0614767  -0.1198793   0.7876489  -0.1199890   0.2719464
  -1.7256811   0.4687716  -0.8594231   0.0304437   0.0521246   0.1891247
   0.0784623   0.2863504   0.7481272  -1.0480914  -0.5372865  -0.0659611
  -0.3464775   0.0924300   0.2214275   0.0122868  -0.0436050  -0.3670148
   0.4803126   0.1833349  -0.4641803   0.0695253  -0.0636396   0.0629161
  -0.4555911  -0.3339381   0.3076387   0.6410095  -0.8589896  -0.0446043
  -0.2715085   0.0282320   0.0377921  -0.7038201  -0.2887909  -0.3059520
   0.6794717  -0.5793574   0.2439164   0.0472073   0.0949817   0.1826309
  -0.0629664  -0.2856811   0.0843893  -1.1367730   0.8018054  -0.1082096
  -0.2747622  -0.1484359  -0.4304058  -0.3566179   0.4644417   0.5256337
  -0.4662042  -0.1227995   0.7245075   0.1838846  -0.3401291   0.2013636
   0.8979261  -1.5609655  -0.4427017  -1.2724766  -0.0908731   0.5672003
   0.1685966  -0.1537957   0.1072639  -0.4568429  -0.1648752  -1.0202559
  -0.6266633   0.9110223   1.0120586  -0.2034018  -0.1583097  -0.4778271
   1.1067095  -0.3686235   0.7196713   0.0395575  -0.1828344   0.2923238
  -0.0468837  -0.0831685  -0.0205146  -0.8146778  -0.5370380  -0.5772665
   1.1800191  -0.8946115  -0.4026357  -0.0417788  -0.1760632  -0.0379338
  -0.3188963   0.8354926   0.6834696   0.1610991   0.0385301  -1.4231027
   0.0425887  -0.2767766  -0.2270492   0.2915290   0.2604229  -2.4557238
  -0.1393977  -0.7434766   0.1162755   0.0517766   0.3001254   0.3906007
  -1.5680352  -0.4519122   0.9134369   1.3663560   0.0421329   0.2407217
   0.2389850  -0.1962597  -0.2055229  -0.9269114   0.4124105   0.1773284
  -1.4307820  -0.6656228  -0.2220006  -0.1506708   0.1404716  -0.1434335
  -0.2052400   0.9950627   0.8768348  -0.9407277   0.2608886  -0.4504713
  -0.0549807   0.1956097  -0.1005103  -1.0463978   0.4767189  -0.3940863
  -0.0015187  -0.5962951   0.5283528  -0.2745417  -0.3193276   0.1667149
  -0.8689748   0.2675830  -0.4661668   0.9211695   0.3317489   0.6116078
   0.1121632   0.1268799   0.0474753   0.2623653   0.1442998  -0.1715376
  -1.1473602  -0.1145804  -1.0324452  -0.2099738  -0.2668996  -0.1421254
  -0.0241889  -0.3571827  -0.1929573   0.1022642   1.8057784  -1.1204852
   0.0572252  -0.1391254  -0.3372104  -0.9915978   0.5295892  -0.3092751
   0.0855845  -0.4486764   0.5748987  -0.1232546  -0.0495149   0.3141284
   1.6021610  -0.1428804   0.2311479   0.2468673   0.6091453   0.3423796
  -0.1904537   0.1417364   0.0922395  -0.4305546  -0.3294838  -0.9804906
   0.1334641  -0.5285789  -1.0586533  -0.0832970   0.1408159   0.2075990
  -1.3721034   1.5928594  -0.3317456   1.3564919  -0.4092252   0.0387995
   0.0144807  -0.2886075   0.1141555  -0.7556876  -0.8678613   0.8258999
  -0.7447309   1.4783997   1.1396339   0.0021332   0.2929603   0.0578239
   0.0291096   0.6966372   0.7026778  -0.6543732  -0.1515255  -0.7788064
   0.0077748  -0.1418181  -0.0211864  -0.9862357  -0.0742103  -0.4363067
  -0.1725105   0.6512184   0.9943241  -0.0775697   0.1232295  -0.2639656
  -0.2632590   0.7648323  -0.2772690  -1.1838709   0.1985865   0.1752546
   0.0170866   0.3030200   0.4309766  -0.0978590   0.1752229  -0.8010896
   0.5309850  -0.8305955   1.1499439  -0.0613127   0.0618576   0.1227264
   0.2298306   0.1034360   1.3995406   0.2126276  -0.4306500  -0.3451347
   0.1301996  -0.3796884   0.1286890  -0.7363696   0.6860450   0.1332683
   0.2022380   0.1276429  -0.1452415   0.1173189  -0.0916522  -0.1172247
   0.7961936   1.4753053   0.9664023  -0.6240248   0.6921874   0.0001317
  -0.1096932   0.1538630  -0.0484083   0.0639589  -0.0879540  -0.4576084
  -0.2531721   0.0104071   0.6556364  -0.1640103  -0.0369005   0.1119298
  -0.5142917  -0.0812000  -0.5088100  -0.3610211  -0.9939038   0.1412045
   0.2802468   0.0862741  -0.3204316   1.2522178  -0.2010948  -0.1533404
   0.5672175   0.2364765  -0.3544656  -0.1435663  -0.2700884   0.2401448
  -1.8126141   0.3840469  -0.2491995  -0.7341416   0.3505736   0.6257429
  -0.2698213   0.0089980  -0.0091621   0.0604059  -0.3599516   0.0523344
   0.0428836  -0.7550578  -1.3596051  -0.1795725   0.3626140   0.2247483
   0.2215245   0.5030666   0.1079578   0.2210083  -0.1360690   0.0029723
   0.1960459   0.1057957  -0.0343990   0.5776627  -0.3857236  -0.3639644
  -0.4018045   1.3981437   1.5042762   0.2025788  -0.1818773  -0.0529805
   0.3705063  -0.1092765  -0.4696314  -0.9271715   1.0371171  -0.8257349
  -0.1787225   0.1756844  -0.0799704   0.3184270  -0.9488731  -1.0475331
  -1.1953606   1.1252555  -0.0481404   0.1633682   0.1198104  -0.0598744
  -0.4523799  -0.5423813  -1.1104657  -0.0782860   0.2082612  -0.3750114
   0.0809300  -0.1945286   0.0687213  -1.1433866   0.1301078  -0.6539056
  -0.0049049   0.4469165  -1.0392954  -0.2095744   0.1065902   0.0591795
   0.7465033   0.1421571   0.8482774  -0.5579906  -0.8646599   1.0132335
   0.0385269  -0.1627746  -0.1208550   0.7626494   0.0866339  -1.0462193
  -1.0260921  -1.0756899  -1.5198222   0.3398873  -0.0772623  -0.3198167
  -0.6516533  -0.0468810   0.3941746   0.7681190   1.0609189  -0.7734035
   0.1063008   0.0351300   0.1217160   1.0325961   1.9583142  -0.2170943
   1.0869065   0.3894349   0.7054857   0.0104209   0.2499786  -0.2276278
   0.3808545   0.7999205  -0.2150994   0.2763549   0.1986624   1.0448248
   0.2294956  -0.0006192  -0.0793173   0.1292473  -0.9816646   1.0743692
  -2.2111600   0.0499154   0.6250814   0.4134895  -0.2255895  -0.0099252
  -0.9762481  -0.4292172   0.9833404   1.6672706   0.5342158   0.8042538
  -0.0209286  -0.0514122  -0.2838285  -0.7456637  -0.5233261   0.4678245
  -0.3654699   0.2272001  -0.8790260  -0.0118560  -0.1178291   0.2046809
  -1.1382652   0.8757334   0.0844844  -0.7278876  -0.5464810   0.1154890
   0.0487878   0.0775994   0.1086194   0.2892502  -0.4843448  -1.6469003
  -0.4858618  -0.4408416  -0.3788508   0.1280291  -0.2911609   0.0665750
  -0.6525078   0.2634057   1.0986484  -0.1830436   0.5277928  -0.9898380
  -0.1416329  -0.1953702   0.2105912  -2.0978022   0.0428983   0.1651877
  -0.8933345   0.7655413   0.3434421  -0.1661922  -0.1153826  -0.2065712
  -0.7725212  -0.4008079  -0.1728208  -0.5874171  -1.0613754  -1.2242272
   0.4230332  -0.1243923   0.1794055  -0.0668847  -1.3017808   0.3138286
   0.0975940   0.6373178  -0.0009952  -0.0097822  -0.3021063   0.4031530
  -0.1216917   0.0106509  -0.7674363   0.1840469  -0.1400419   0.3365002
   0.0870556   0.1306647  -0.1115494   0.2431417   0.5554829   0.1684926
   1.1711353  -0.3488280   0.1974435   0.1377106  -0.1670282  -0.1788786
   0.3882422   0.3320993   0.5125422  -1.8929309  -0.9803548   0.1643708
  -0.1085484   0.1194408  -0.1199070   0.3143676  -0.2897735   0.5009393
   1.2253358  -0.6287391   0.0978947  -0.1028749   0.0670534   0.0851454
   0.4251777  -0.4318095  -1.4515318  -0.2593000  -0.8493531  -0.0584059
  -0.2939761   0.0433921   0.1527209   0.0141565  -0.0625175   0.3525156
   0.2408481   0.0345764   0.9143221   0.0240873   0.0607423   0.0420206
  -1.6192132  -0.7661434   0.3012824   0.5055217   0.6334690  -0.0679169
   0.0565380   0.0514008   0.0180940  -1.0567762   0.2902009   0.8329979
  -0.4135332   0.2632418   1.3461362  -0.0698046   0.1045960   0.0267288
  -0.4443748  -0.7273674  -0.1515353  -0.6196966   1.2671582  -0.4688127
  -0.0229329  -0.1413535  -0.2406277   0.5752735  -0.0533493   0.5512725
   1.0130052   0.6976146   0.3132510   0.0249125   0.0089877   0.1785010
  -0.4490398  -0.3765587   0.2217116  -0.1673763   1.7074080  -0.6670137
  -0.0905033   0.0197744  -0.0196267   0.6847534   0.1574886  -0.5409677
   1.0405240  -0.4381728  -1.5028491   0.1943672   0.0927165   0.2350235
   0.4855849  -0.4718160  -0.4009497   0.6721449  -0.6805743   0.5471018
  -0.1645155  -0.1841886   0.3097147   1.3481076   0.2617628  -0.3884927
  -0.7752081   0.9751288   0.6893538  -0.0583225  -0.0291807   0.0988459
  -0.4515286  -1.5417782  -0.2118552  -0.0302285   0.0146799  -0.5847763
  -0.2693627  -0.0771305   0.2252854   0.1420476   1.7739609   0.4934772
  -0.8243618   0.3190975   0.1906095  -0.0293411  -0.1568437  -0.2434829
   0.5352373   0.2779893  -0.0629034   0.1881105  -0.5433856   0.2369911
   0.3942666   0.1029322   0.3078000   0.1393872  -0.3053772   0.9297481
   0.2360934  -0.4589072   1.0331054   0.1820178  -0.4960054  -0.1570947
   0.6926962   0.3331946  -0.5599877  -0.1183271   0.4743004  -1.1249574
  -0.1186984  -0.1529025   0.1240236   0.1516771   0.0995784   0.6396281
   0.0050593  -0.4151404   0.8465149  -0.1208958  -0.0127700   0.3329218
   0.7291754  -0.0026559   1.0374940  -0.7078637  -0.7743617  -0.5050898
   0.0456864  -0.0386736  -0.2344696  -0.2792742   0.4505829  -0.4409556
   0.3141919   0.2517409   0.8363375   0.1264998   0.0988221  -0.1829244
   0.3216973  -0.4052499  -1.1068010  -1.1542793   1.3502966   0.4377879
  -0.0827950  -0.0734934  -0.0997490   0.0728732   0.2936062   0.9720594
  -1.5466574   1.2229626   0.8578619  -0.1687655   0.1305242  -0.0447615
  -0.8820932   0.7107468   0.9619823   0.4246245   2.2064178  -0.6126268
   0.2846584  -0.1535111  -0.0743022   0.5564283   1.6613124   0.8885079
   0.3680226   0.1178025  -0.2971197   0.2381469  -0.1242544   0.1205667
   2.2798051   1.0920318   0.3433124  -0.1291575  -0.7862655   0.9718638
   0.1885574   0.1208268  -0.1330511   0.4771519  -0.4624471   0.4074785
  -0.5062718   0.0062738   0.4668264  -0.0287820   0.1442492  -0.0836592
   0.6614124   0.8031150  -0.0319002  -1.2350454   0.2872101  -0.6394595
  -0.3039768   0.0234571  -0.4543026  -1.2719527   0.2757359  -0.4136382
   0.0416431  -0.6692906   0.3239557   0.0871711  -0.0613969  -0.3676259
   0.4164436   0.1511906   1.0146042  -0.1842665   0.5395815  -0.5610919
   0.0471797  -0.2119120   0.0218970  -0.9531121  -0.4056301  -0.5013263
   0.4585130  -0.2670591  -0.4199386  -0.3614955  -0.1824618  -0.1971311
  -0.1767168   0.1993319   0.1561969   0.3067297   1.4522187   0.3935052
   0.1069059   0.0447450   0.1065967  -0.2018288  -1.7733454  -0.4686504
   0.5921990   0.0008061   0.4854072  -0.2397226  -0.1122060  -0.0930738
  -0.3208925   0.9061814   0.8440126  -0.5825950   0.1314783  -0.5200399
   0.1081455  -0.0570219   0.1884003   0.4811037   0.4215594  -0.8867184
  -0.0757196  -1.6131943  -0.6021152   0.1728600  -0.1943466   0.3447703
  -0.6418293   0.0156957  -1.2310663  -1.6179549  -0.2106130   0.6068758
   0.0600590  -0.0577555   0.0586110  -0.5712926   1.0422373   0.0060993
  -0.9428740   0.4412239   0.2443516  -0.1778397  -0.0219017  -0.1403089
   1.1818846  -0.5824550  -1.0573218   0.4458159  -0.8993410  -0.9176639
   0.1727783   0.0217158   0.2586169  -0.0322088  -0.2272031  -1.9963549
  -0.0551688  -1.5372202   0.4082659   0.0311049   0.3613461   0.0874509
   0.8211854  -0.9032807   0.3360990  -1.2371205  -0.1323002   0.3837866
  -0.2090054   0.0274621  -0.3492612  -0.4235078  -0.8378817   0.9994352
   0.0491533  -0.4392963   0.5090032   0.1900573   0.1625780  -0.0176550
  -1.5155010  -0.3482454   0.6222566   0.2183855  -0.1315177  -0.0104256
   0.2851600  -0.0983168   0.1432589   0.3673239  -1.3513437  -1.4716305
   0.8343455  -1.3390594   1.3450008   0.0271817  -0.0205327   0.4865912
   0.5426106   0.0017433   0.9704321   0.0850725  -0.0692161  -0.5202514
   0.2925005   0.2830625   0.0069489   1.6972172  -0.8259125  -1.2042880
   0.1780987   1.2609233   0.8795084  -0.2055418  -0.0133430   0.1979687
  -1.1646376   1.1696484   0.4649484  -1.7862480  -0.0290597   0.3300038
   0.2646995   0.1381759   0.0100903   0.0442651   0.2593482   0.8358832
  -0.2041417  -0.3250809  -0.4516531  -0.0224932   0.1268984  -0.0069437
   0.1685079  -0.0286519  -0.3564600   0.5253130  -0.1342982   0.0576123
   0.2160224  -0.4031416   0.0792156   0.0510363  -1.0958198   0.8574215
   1.2649920   0.3554531   0.9540127   0.3610267  -0.1325765   0.0622053
  -0.1917353   0.4180618   0.6095438  -0.0753233  -0.0708174  -0.6887525
   0.0218951  -0.1117521   0.0281734   0.4758657   0.3195226  -1.4868241
   0.2453723  -1.0725566  -0.4810494  -0.0864186  -0.2167836   0.2603857
   0.5306898  -0.0383310  -0.9983278  -1.1244257   1.2466957   1.0384857
   0.1798846  -0.1741235  -0.1751649  -0.7047630  -1.7017023  -0.0784773
  -1.6476757  -0.5422516  -0.8118260  -0.2073136   0.1461218  -0.2164964
  -0.3441150   0.7764145   0.7508009  -0.1535619   0.9350095   0.4832991
   0.1092490   0.1607197   0.1044982   1.1971310  -0.4301980   0.1054971
   0.0948831   0.6969116  -1.2454508   0.0997329  -0.0308740   0.1622425
   0.4298640   1.2256005   0.1461517  -1.2125781   0.0585409   1.1279397
   0.0268873  -0.0905885  -0.0906296  -0.8839995  -0.5276871  -0.3815180
   0.1520843  -1.7696405   0.4787822  -0.3833467   0.1316321   0.0037368
  -0.9431586  -0.3097763   0.2292099   0.2503698  -0.2552058  -0.4092956
   0.0499392  -0.3929690  -0.2222477  -0.6999685   0.0886480  -0.3606612
  -0.6796733   0.2516326   0.4963284   0.0633671  -0.1853328  -0.1377563
  -1.8310639   0.6735552  -0.2813019   1.4359220   1.2420391  -0.5845935
  -0.0439799   0.2358185   0.1680330   0.1190627   0.3813886  -0.0546940
   0.5777997   0.7229758  -0.3208233  -0.0414142   0.0661894   0.3500566
  -0.2112803   0.4342106   1.3299000   0.5214032   0.9057974   0.8288697
  -0.1724728   0.0045888  -0.1263965   0.6256071  -1.1625617   1.0745722
  -0.7597883  -0.0238362   0.2446473  -0.0803109   0.2688655  -0.0457282
   0.2338831   0.9400958   0.5242331  -0.9006592   0.4068535  -1.0432409
  -0.1362274   0.1292470  -0.1408627  -0.6356853  -0.5372249   0.7540700
  -0.7299067   1.2521097  -0.3737694  -0.2293399   0.2159940  -0.0389820
  -1.3849319   1.1075917   1.2752927  -0.7240064   0.9947940  -1.2453334
  -0.0965159   0.1671398   0.0627422   0.5195267  -0.4518143  -0.2134256
  -1.1141830   0.4423924  -0.9293599  -0.1750797   0.2094216  -0.2985796
   0.5334436   0.1447614   0.4501441  -0.2298069  -0.7809342   0.8823602
   0.0469887  -0.1625628  -0.1448972  -0.7954387  -1.6642375   0.7458310
   1.1724683  -0.6976982   0.1336569   0.0734179   0.0026225   0.1999901
  -0.3143009  -1.2015570  -1.0781164  -0.6970347   1.1322017   0.8793291
   0.1953129  -0.0114280   0.1342228  -0.8195988  -0.3246551  -0.4752699
  -1.3207989   0.2093903  -0.6764743   0.0772644   0.0028027  -0.3173980
   0.1881962   0.2919619  -0.2983461  -0.2110402   0.2706028   0.0744044
  -0.2148412  -0.3379602  -0.1351302  -0.0786638   0.6384200  -0.2660388
  -0.7634658  -0.2376439   1.8065869  -0.1341584   0.0992605   0.1153127
   0.9159892  -0.5617621  -0.2148475  -0.1448765  -0.0999546  -0.6696700
   0.0072154   0.0956053  -0.0242145  -0.0087465  -0.0550494  -1.0223343
   0.9306498  -0.9028986   0.0844846  -0.0391522  -0.0234383  -0.0917644
  -0.2219987  -0.3172264   0.9831364   0.1548843   1.2660725   0.0983960
  -0.0178898  -0.0551345   0.1360809  -0.7600930  -0.8864504  -0.8556063
   1.2841366  -0.2016837  -1.4453616  -0.1024457   0.3532033   0.1064694
  -0.5328024   0.4274140   1.3155427  -0.2715497   0.7754313   0.1275673
   0.0584256  -0.0335179  -0.2345592  -0.2518613  -0.6080566  -0.2364893
   0.8351952  -0.2226415   0.3375426  -0.0598395   0.1527902  -0.0196495
   0.6655383   1.3876650   1.6663824   0.5888603   0.4492520  -0.5946829
   0.0455582   0.0879885  -0.1334047  -0.9034528   1.0427975  -1.9092082
   0.4011330  -0.1982375  -1.0959433  -0.1325972   0.2207124  -0.2001614
   1.1242606  -0.8925526  -0.6771543  -1.5475307  -1.1831364   0.7445432
   0.4928618  -0.1186114  -0.1787561  -0.4920258   0.0746868  -0.2544721
  -1.2029061   0.5130667  -0.0244953   0.0996095   0.3680749  -0.0999735
   0.6521777  -0.7587241  -0.9526600   1.0235964   0.3185006  -0.6773261
   0.1851343   0.1464723  -0.0818080  -0.9959761  -1.2478281   1.0652976
   1.8918402   0.7628224  -1.1671156  -0.1184288   0.0552548  -0.1710198
  -0.2689713  -0.4744878   1.0741238  -0.5382802  -0.1107764   0.3502444
  -0.1227212  -0.2782205  -0.1173027  -0.0866761  -0.3285754   1.5598184
  -1.3873640   0.4971192  -1.2452563  -0.0228091  -0.2103628   0.0943153
   0.8559412  -1.3657061   1.4488439  -1.3173190  -0.0699562  -0.1503700
   0.0319447  -0.2694395   0.1852045  -0.9746869   0.0288102  -0.4043189
   1.9542922   0.4332198   0.6495563  -0.0788054  -0.2787343   0.4089064
  -0.9690501   0.3952149  -0.4565444  -0.0358908  -0.3382821   1.2554171
   0.2431958  -0.0284387  -0.2826763   0.1626167  -1.0021637   0.4207874
   1.2337099   0.0548110  -0.1462994  -0.1538471  -0.0923172  -0.0168604
   0.9601223   1.3288336  -0.6879438   1.9488371   0.9151532  -0.5127545
   0.2751904   0.0401116  -0.0433186  -0.2991542   0.6170624   0.2947077
  -0.0068399  -0.2075814   1.0420529   0.4401657  -0.1293199  -0.2439304
   0.7297144   1.1326595  -0.0041479  -0.1867594   0.2821214   1.1733443
   0.2557518   0.1892382  -0.1649162  -0.6864752  -0.5701859  -0.1513251
  -0.8322216  -0.1299941   1.3174023   0.1927344  -0.1176071  -0.0399400
  -0.2420997   0.4685766   0.4684612  -1.1026351   0.7329808   0.7099235
  -0.0849102   0.2267991  -0.2394808   0.1531282   0.8616348  -0.7257479
   0.9895092  -1.2238418  -0.2912893   0.2022840  -0.1104807  -0.2049887
  -0.3784366  -0.5624007   0.4922521  -0.0259024  -1.3114718  -0.2740970
   0.0385665  -0.0692699   0.4368604   0.4415625   1.1209252  -1.6084129
  -0.5848262   0.6264005   0.2301177  -0.0591873   0.1879267   0.2262572
  -0.0696237  -0.0816252   0.7069474  -0.3743760   0.0640946   0.8302591
   0.1510484  -0.0103668  -0.1596208   0.7212179   0.3326873  -0.0549296
   0.8707728   0.6718149   0.1883125  -0.2174175  -0.1639699   0.1528167
   0.3633546   1.0318254   1.1030969   0.5979445   1.8174494  -0.2520971
  -0.0406694  -0.0259364  -0.3868852  -0.0170875   0.1453014  -1.0411480
   0.3484466   0.7323364   1.0001474   0.0608121   0.1395485   0.1751518
   0.4615377  -0.0237275  -0.0952991   0.1315729  -0.6764724   0.3698733
  -0.1493526  -0.0160438  -0.3502600   0.0600913  -1.1256038   0.4105501
  -0.6652327  -0.7277584  -0.4016824   0.1389041  -0.0730340  -0.0635496
  -0.6463348   1.2581111  -1.9635992  -0.5145474  -1.1538749   1.2990054
   0.1356648   0.1401255  -0.1295604  -0.4544657   0.3255577  -0.7480284
   0.9640565  -0.9798194   1.0415204  -0.0237906  -0.1982246  -0.1225245
   0.5665438   1.1028491  -0.2082483   0.5124496  -0.8411018  -0.6682349
  -0.3790641   0.1834927   0.0110429   1.4807777  -0.3177430   0.1557661
  -0.9699817   0.1620928   0.0237995   0.1433961  -0.1033773  -0.0499818
   0.7202763   0.0487109  -1.2327253  -0.1062626   0.4292755  -0.6536654
   0.0676377  -0.0003766   0.0777710  -0.0830150   0.7770416  -1.2676302
  -0.4287945  -0.2711855  -2.0694179  -0.0406745   0.2244023  -0.0221078
   0.4342960  -0.1215053  -1.2293847   0.7172830  -0.7136948  -0.4618806
  -0.0903583  -0.0332464  -0.1976517   0.0431686  -0.0747256  -0.1326271
   0.4881471   0.5817302  -0.8115093   0.2466757  -0.1662907   0.3483277
   0.9989782  -0.2512822   0.0871615   0.3298062  -0.7821443  -0.5208179
  -0.0208157  -0.1613356  -0.4214383  -0.2841174  -1.3633483  -1.9105368
   0.2271230  -0.0688352  -0.9546854   0.3099496  -0.0870661  -0.1316607
  -0.1480384   0.4956661   0.5116657  -0.4335347  -1.4290948  -0.5819500
  -0.0082843   0.0364588  -0.2785491  -0.1956742   1.0445128  -0.3720622
   0.8913246   0.2495738   0.9581958  -0.2558252  -0.1211879   0.0561416
  -0.0737885  -0.9644431   0.8335711  -0.0855342   0.2354330   1.1705126
   0.0849466   0.3777860  -0.1474218  -0.4487078  -1.6221567  -0.4472547
   0.7412901  -0.1944161  -0.5517494  -0.2230224  -0.0922126   0.0286352
  -0.4286201   0.2607581  -0.0115781  -0.8564363   0.2660398   0.0507049
   0.0432006  -0.0286949  -0.1789771   0.7737205   0.3366210  -0.8393957
   0.0869599  -0.6371130  -0.1474575  -0.1273756  -0.1065624  -0.0206216
   0.3504570   0.8429103  -0.1036762   0.2096275   0.3680285  -0.9171611
  -0.0240513  -0.3940927  -0.2059663   0.1681604   0.3609807   0.9668062
  -0.5824302  -0.6681540  -0.7467962   0.0285701  -0.0333979   0.1493297
   1.2468810  -0.7086979  -0.7401260  -0.3546847  -0.0485603   0.6188935
   0.1382595   0.4028512   0.0750450   0.3900677   0.1846908   1.2711507
  -1.4355564  -0.9463710  -0.6389769   0.0274341   0.1911047   0.0269429
   0.2812751  -0.6321699  -0.4645744   0.4062797   0.1939571  -0.1249906
  -0.0171060  -0.0183072   0.0389444  -0.1325441   0.3882089  -0.5027321
   0.8861057   1.1648692  -0.5920653  -0.0047226   0.1299772   0.0250013
   1.3676220  -0.3404313  -1.0157643   0.7439416   0.2426229  -0.1457361
   0.0140215  -0.2085226   0.2095083  -0.0699309   1.1236165  -0.1696027
   0.1200616   0.6486965   0.2653737   0.1957978   0.1835223  -0.0223504
   0.0599076  -0.1950741  -0.2332348   0.0869476  -0.0052352   0.0438099
  -0.0184702   0.1481626   0.1407052   1.5358706   0.4014965  -0.1584028
   0.1060790   0.1691580  -0.7862874   0.0500870  -0.0785627   0.3038872
  -0.5936565   0.8687628  -1.3067445  -0.2461609   1.9847773   0.2262057
  -0.0751567   0.0442885  -0.1250182   0.5416608   0.5616534   0.1710272
  -0.9418663   0.6852783  -1.2341716  -0.3294571  -0.1079889  -0.0582936
  -0.5017702  -0.8471934  -0.2463536  -0.3036961  -0.1707059   0.7672104
   0.1949625  -0.1741138   0.2528855   0.0093800   0.3833882   0.0919856
   0.9616317   0.8759842   2.2996310   0.1649454   0.1986881   0.0447944
  -1.1123822   0.3065582   0.2895926   0.4377277   0.3861458   0.7909750
  -0.0805310  -0.1537538  -0.3531033  -0.9181078   0.9309246   1.1456160
  -0.1996489  -0.6413234  -0.1722112   0.1030271   0.3740595   0.1330205
   0.1006602   0.9815689   0.1509781  -0.2447350   1.2086438  -0.2072777
   0.1465792  -0.1752406   0.0581205  -1.0418774  -1.2705033  -0.1733260
   1.9487956   0.3637801   1.3892190  -0.1367888   0.1097148   0.0691738
   0.2816116  -0.2203147  -0.0413841   1.0868316  -0.0575182  -0.6149421
  -0.0953659   0.0986048   0.2162994   0.4814988   0.6725305  -0.5807175
  -0.2150778  -1.3955087   0.0694156   0.0266849   0.2511335  -0.0876711
  -0.4705670   1.7943389  -0.2417660   0.6311405  -0.0874603   0.6294512
   0.1576009   0.1659236   0.0165290   1.7532199  -0.0423173  -0.2289302
   0.8278406   0.1114280   0.0106059   0.3380826   0.0836204  -0.1356517
   0.6120695  -0.4463507   0.9643451  -0.5007005   0.0721048   0.0826607
  -0.3298202  -0.1678926  -0.0727711  -0.9106483   0.0659547   1.0397508
   0.5875463  -0.7782443  -0.8590478  -0.1968014  -0.0753008   0.2017412
  -0.3147999  -1.9548316   0.2709005  -0.1834144   0.4667458   0.2642029
  -0.0559542  -0.0570525   0.0425850   1.6166628  -0.2664337   0.8328573
  -0.1257217   0.1687341  -1.6670317   0.1688702  -0.1643667   0.1655146
  -0.0848079  -1.0863639  -0.2155656   0.1324317   0.1844497  -0.9758435
   0.2854567  -0.1403583  -0.0017474   0.6654884   0.9281613   0.8800177
  -0.1718190   0.1745209  -1.1697196  -0.5346521  -0.0298500   0.3165890
  -2.1016648   0.3180377  -0.3576795   0.1880257   0.5937115  -0.2892834
   0.1514214  -0.0990699   0.0075779  -0.1006615  -0.9829193   0.9407978
  -0.3048409   0.0755686   0.0180420   0.1870498  -0.0051796   0.2605891
   0.1321822   0.2250438  -0.4509144   0.0854276   0.2513435  -0.4769174
  -0.2295120   0.3038548  -0.0910583  -0.6917790  -1.4309837  -0.9482719
   0.6971428   0.0819457  -0.0166404  -0.0142167   0.0135948  -0.0427173
   0.2084251  -0.9559597  -0.1740774   0.2040004   0.5391271  -0.9485622
   0.0356602   0.1864636  -0.1325204   0.6589097   0.1680098   0.3568931
   0.8010917  -0.5537439   1.2139532   0.2899146  -0.1936865  -0.0023787
   0.0542083  -0.0669988   0.5863795   0.5876914   0.0027499  -0.1056773
  -0.0106913   0.0552126  -0.2504230  -0.6103464   1.2562450  -1.2988960
  -0.1221844  -0.0263660  -0.2744420   0.1471684   0.0592930   0.1058864
  -0.8094215  -0.0124573   1.2497250   0.3675907  -0.7958193  -0.9035049
  -0.0839317   0.1989883   0.1106597  -0.5426214   1.6095261   1.0740015
   0.6214899   0.2851353  -0.8440897  -0.0294139   0.2225575   0.2214848
   0.4295295  -0.4788290   0.4070895   1.1597001   0.6238498  -0.7886815
  -0.1859903   0.0416278  -0.1431246   0.6700703   0.2950174  -0.6940233
  -0.9021869   0.6108917  -0.9656002   0.1678247  -0.0446841   0.0192363
  -0.9080292  -0.4167197   0.3537893   0.1325978  -0.3173142  -1.2297652
   0.1420550   0.1920355  -0.1275126  -0.4243847   0.0566644  -0.2094106
  -0.4861719  -0.9022998  -0.8968275   0.0159598  -0.0073452   0.2010601
   0.5590792  -0.5346274  -0.9825472  -0.9081296   0.0201184   0.2044512
  -0.1632837   0.1795723  -0.0315813   0.0242386   0.6597919  -1.1826833
   0.1002405   0.7146037   0.1740209   0.1750618   0.2226909   0.3790994
   2.0376286   0.3824771  -1.0687313  -0.3667911   0.1431870  -0.7725669
   0.0305054   0.3633238  -0.1045922  -0.2308060   0.7513525  -0.6793747
  -0.8448507  -0.9697859   1.3946050   0.1488457  -0.1920832  -0.0623058
   0.2416958  -0.1553436  -0.3801923   1.1384820  -0.7447884   0.1286603
   0.1653346  -0.1533224   0.3876790   1.1386028   0.3892895  -0.5647161
   1.7400300  -0.6837572   0.1041191   0.3260086  -0.1938960  -0.1349240
   2.3556876  -0.5703287  -1.3697262  -1.3339476  -0.2784312  -1.4574225
   0.0670375  -0.0851958  -0.3990284   0.8815848  -0.9912086   0.5331355
   0.1630321  -0.9568580  -0.2457295   0.1457940   0.1091722   0.1693727
   0.3677284  -0.0221285  -0.6660409  -0.0773182  -1.2962810   0.1465913
  -0.2050745  -0.1630818  -0.1177353   0.9177210  -0.0292554  -0.2839410
   0.3939514   0.0251774  -0.5393526  -0.0968225  -0.1459859  -0.1316635
  -0.8461345  -0.8208535   0.6120490   1.6740207  -1.3109386   0.8107236
  -0.2392794  -0.0604910  -0.3372541   0.5024509  -0.1924037  -0.2357048
  -0.2157988   0.3908247   0.3930350   0.0020827  -0.1788140  -0.2265687
  -1.3734887   0.3499023   0.0636468  -0.8511880  -0.1585639   0.1003353
   0.2572554  -0.1908409  -0.1329818   0.8050728  -0.0194293  -0.7390399
  -0.2056932   0.5392051  -0.0797138   0.0944977   0.0177251  -0.0253532
   0.9359388   0.4326333   1.0044456   1.3505240  -0.2299324  -1.1926307
  -0.0208867  -0.0945627   0.5515640  -0.3258069   0.2774055   0.7354044
  -0.9639327   0.9713586   0.1538586   0.2552459  -0.0109743   0.1448650
   0.4241763   0.6895665   0.0577957   0.4678337   0.6200701  -0.9503716
   0.0295045  -0.0896333   0.1186473   1.2617023   0.9276295  -1.2863035
  -0.0816629  -0.6910265  -0.5884170  -0.1954321   0.1091181  -0.1593528
  -0.3349962   1.8685336   0.0558384  -0.1548859   0.4590061   1.0666034
   0.0450336   0.3185093  -0.1217976  -0.3749595  -0.7361356   0.4573283
   0.1904270   1.1760607   0.2693228   0.2116377  -0.2065574  -0.0098981
  -0.1946906   0.7790436   1.0357062  -1.0315840  -0.1671199  -1.2276290
   0.3687277  -0.0574508  -0.0561765   0.6707516  -0.6070299  -0.5639371
   0.4628870   2.2350514  -1.0146331   0.2155730  -0.0240781  -0.2588928
  -0.8060019  -0.5330878  -0.1470187  -0.7532127   1.5961444   0.4083051
  -0.1169957  -0.0113381  -0.2503614  -0.7502710   1.1882309  -0.8279792
   1.6810792  -0.2104447   0.5686626  -0.1941656  -0.1427919  -0.0641358
   0.9461028  -0.3032083  -0.2555591   0.9609546   0.5553543  -0.3827688
  -0.1647762   0.0203221  -0.0630412   0.0669957   0.6328799  -1.4408480
   0.4261197   0.7514212  -0.1378282   0.0280376   0.1961277  -0.0397180
  -0.0813381  -0.3522539  -0.9013786  -0.9350707  -1.2665295   0.1300436
   0.1832821  -0.1533395  -0.1117491  -0.1128892   0.9896893   0.1966634
   0.6379711   1.0645061   0.7510474  -0.1067830  -0.1348045  -0.3512265
   0.2692740   0.0373688   0.3914900   0.1189927   0.6797187   1.1842035
  -0.0817584  -0.0517683  -0.0924333   0.6117209  -0.6712376  -0.9809849
  -0.6998755  -0.5383535   0.7361263  -0.3038557  -0.1396104  -0.4035841
  -0.3014771  -0.1153635   0.9679083   0.0873973  -0.1464100  -1.1476245
  -0.2197639   0.0442832   0.4195211  -0.2668742  -0.7208121   1.1164532
   0.7440022   0.3813622  -0.1809579   0.1412032  -0.1930959  -0.1897641
   1.6639047   1.4393214   0.7483998   1.2419125   0.4398807  -0.2016509
  -0.2337446  -0.1449032   0.0068472  -1.1984747   0.2022902  -0.9193677
   0.3031206  -0.3320647   0.5750316  -0.0662944   0.3303812  -0.1088559
   0.2571540  -0.2508628  -0.8246301   0.2817536  -0.2610204  -1.0643094
   0.1018363  -0.1776126   0.0122325   0.4513618  -0.2468969  -0.0658801
   1.2720473   0.2736048   0.7261566  -0.2400684   0.2218000  -0.1010308
  -0.9475877  -0.2914600  -0.7312442  -1.0004150   1.1331576   0.3153558
   0.0540834   0.0654993  -0.6125636  -0.5671053   0.7600606   0.2654057
   0.6319480   0.9741263  -0.2768508   0.0973679   0.4129836  -0.5106734
  -0.0709431   0.1852723   1.6913055  -0.0547168  -0.1016994   0.7669229
   0.1636299   0.2387999  -0.2940282  -0.3810303  -0.7373667   0.4333338
   1.8899233  -0.7925811  -0.4974399  -0.0771950  -0.0180692   0.0619745
  -0.4565570   0.4602990  -0.0120311  -1.0193199  -1.3059653  -0.5396848
   0.2867640  -0.3163165   0.2025141  -0.8772738   1.6636037  -0.3714612
   0.3832090  -0.1471472   0.0740781   0.3325734  -0.1898018  -0.1013973
  -0.1982467  -0.3234799  -0.6947858   0.5338245   0.0219026  -0.5993244
  -0.2084001   0.1999325   0.2711605  -0.0486970  -0.4743776  -0.2286533
   0.7722760  -1.1440977   0.3153366  -0.1054082  -0.2274105  -0.0794311
   0.3589659   0.4994331  -0.1493413  -1.3250644   1.1074196   1.3455591
  -0.1272150  -0.1367694  -0.1151198   1.1316279  -0.2391089   1.0308647
  -0.3075077  -0.9303092   0.5256730   0.1683244   0.0744121  -0.1470950
  -0.2292610   0.3740268  -0.7009827  -0.2792304   0.1499383  -0.5012567
  -0.1397092   0.0807035  -0.2202452   0.8446842  -0.0322328   0.6983375
   0.2733018  -0.5470674  -0.0436370  -0.3378048   0.1827137   0.2011323
  -1.0224596  -0.7635374   0.5181498  -1.3922164   0.7719071   0.1048271
  -0.1660265  -0.0840634   0.0486935   0.2068577  -1.3504132  -1.0072384
   1.1578571   0.8075155  -0.3343861   0.1707602   0.1638435  -0.2860490
   0.9739049  -0.2626795   0.6167410  -0.0290380   0.2894611  -1.1137707
  -0.1250020  -0.1491593  -0.2412916   0.2425823   0.5145719   0.8631051
   0.5193235  -0.8358140   0.5113323   0.2536375   0.1524253   0.1022465
   0.4898353   0.6804854   0.6586682   0.3335386  -0.3729021   0.7969924
   0.0565492  -0.0616267  -0.3167824   1.5748068  -0.0864627   0.2017727
  -0.8875407   1.0576325   1.9598273  -0.0611345  -0.0455736  -0.0407147
  -0.0860118   0.5726443   0.1240031   0.3291587  -1.0121757  -0.6058932
   0.1474304  -0.0321098   0.0218577   0.5507106   0.5722952   0.6253399
   0.7518460   0.2266539   1.4677060  -0.1177566   0.3003430   0.0041099
  -0.9015092  -0.2713155  -0.3776474   0.5979880   2.1378787   0.2312997
   0.2668397  -0.0596935   0.3605403   0.6226864   0.0216164  -1.3026828
  -0.4421436   0.5372527   0.1680411  -0.0886896  -0.1785060   0.0559275
  -0.8792930  -0.8272036   0.1752537   0.4608700  -0.4464863   0.8754414
   0.0283419   0.3525334   0.1994611  -0.2780170  -0.1864929   0.0545114
   1.5090619   0.9482012   0.2609776  -0.1082294   0.0124610  -0.1268424
   0.3999993  -0.4295482   0.0839413  -1.2630234   0.0590465  -0.7822927
   0.1304056   0.0337559  -0.2044121  -0.5627272   0.0118517   1.3357913
  -0.7210142  -0.5859413   0.0044307  -0.2071714  -0.1838894  -0.2398639
   2.2179860  -1.9124625   0.6652264  -0.2078661  -0.2815682  -0.5310750
  -0.2619095   0.1645200   0.0555201   1.6606972  -1.7518130  -0.9667883
   0.6032905  -0.3632768  -0.3137140  -0.0783291  -0.4542205   0.1536984
  -0.1752492  -0.8490625  -1.1777370   0.2012527   0.5746830   0.0024321
   0.5715330   0.2778084   0.1091438  -0.3285133   0.4891036   0.0688904
  -0.0124714  -0.7727578  -0.2131859  -0.3517254  -0.0026039   0.3021372
   0.1463055  -0.8929388  -1.1774068   0.3044906  -0.1307165  -0.1677541
   0.0558310   0.0942645  -0.2196710   0.1068294  -0.0201247  -0.0570400
   0.2487739  -0.6490387  -0.8183841  -0.1817893  -0.0814747   0.0770567
   1.5838847  -0.7752747   0.0422421  -0.9156854   0.6616465  -0.3791334
   0.0096073  -0.1269290   0.3678390   1.7383610  -1.0824204   0.8131250
   0.6441107  -0.8721482  -1.4496104   0.3000553  -0.2683350  -0.3371941
   0.4909644   0.2744387   1.0473110   1.4939170  -0.6581291   0.1419908
  -0.1750622   0.0737171  -0.0847641   0.8313096  -0.5988941   0.8003158
   0.6412826  -0.1385418  -1.0567345   0.0344318   0.0037967  -0.0282721
   0.9344902  -0.0112565   0.2070000   0.9765028   1.0869521   0.1925983
  -0.2912686  -0.1217569   0.0233052  -1.2018207  -0.5076724   1.2138233
  -0.5169434   0.3984195  -0.2345974  -0.3384337   0.2005458   0.2140497
  -0.1109899  -2.3170953   0.3303295   0.4040688   1.0081298   0.4196936
   0.1421775   0.1199309   0.2268514  -1.5497793   1.0923617   0.8789855
   1.1402694   1.9186441  -0.0709552   0.0694174  -0.2756640  -0.3173484
   0.0112268   0.5491515  -0.0999947   0.7048787  -0.2753263  -0.1009337
   0.1437124   0.1700687   0.2957769  -0.8326306  -0.1299612   0.7544403
  -1.2863809   0.8727112  -0.3745777   0.4427843  -0.2668433  -0.0410594
  -0.1824204  -0.1147835  -0.1332257   0.5859043   0.3052765  -1.3096122
   0.2457543  -0.1860548  -0.1276795  -0.6112282  -1.3937779  -1.8297633
  -0.1003993   0.0830037   0.7305401  -0.2694876  -0.0052525   0.0896627
  -0.2910966  -1.3503789  -0.3653479   0.2366768  -1.0644304   0.1700285
  -0.1154098  -0.3576219  -0.0909632  -1.6482987  -1.7216369  -0.2775489
  -0.7160082  -0.1158913   0.7925437  -0.4901029   0.0384209  -0.4415952
  -0.2202658  -0.4596298   2.2671132   0.1852508   0.8242900   0.1625526
   0.3428090  -0.0640202  -0.1987442   0.7423201  -0.3797751  -1.0233972
   0.3536231   0.9233175  -0.9548691  -0.1245634  -0.2255166   0.0258085
  -0.4086358   0.7185291  -1.3508569  -1.0805094   0.7343009  -0.2767644
   0.2709260  -0.1822820  -0.0461096  -1.1190115   0.3706794   1.6187116
   0.1994844   0.0761831   0.2177772  -0.0640364  -0.0024398   0.1013898
  -0.8295926   0.9270538  -1.2778173   0.4549677   0.5869477   0.9271204
   0.4518291  -0.1665680  -0.1455310  -1.0316301   0.0719095   0.0172740
   1.3077398  -0.5643989   0.7431430  -0.1032632  -0.1707999   0.3677814
   1.0619442   1.5440344  -0.0981546   0.4774103  -0.0558716   0.5217781
  -0.0976348   0.1433638   0.0886098   0.1445179  -0.3945770   0.1257430
  -1.0678351  -1.2713927  -0.7037727  -0.2701400   0.2292182   0.2095748
  -1.6357351  -0.5857704  -1.5533403   0.4963844  -0.5774503   1.0185711
  -0.0181681  -0.0938845   0.1826316  -0.7660791  -1.1708670   0.7012139
  -1.7295426   0.1105954   0.7576881  -0.0116494   0.1061140  -0.0355338
  -0.5736956   0.4996971   0.4328921   0.1321269  -0.1854663  -0.8765873
   0.1454152   0.1966779  -0.0480541   0.9716771   1.1083108   1.1344497
   0.7172478  -1.1851539   0.3157208   0.2532326  -0.2452778   0.3089834
  -0.8091704  -1.5498535  -1.1500568  -1.0362046  -0.6610718   0.4494293
   0.2974161  -0.2585557  -0.2252058   0.4635874   1.6670708   0.0505680
  -0.0978333   0.6509951   0.2863341   0.1098706  -0.0554613   0.0165796
   0.3006210  -0.0984570  -0.1176692  -0.2098515  -0.0639852  -0.4423081
   0.1311397   0.0282444  -0.0568896   0.2123926  -0.4463321  -1.4955937
  -0.2519913   0.0068023   0.7334839   0.2798802  -0.1823795   0.0496719
   0.9528140   0.2604806  -0.4691867   0.5408461  -0.0641736   0.1211736
  -0.2830478  -0.0153085  -0.0085988  -0.8475757  -1.2420356   0.1529815
  -1.2299854  -1.3621608   0.0464889   0.2236780  -0.1100533   0.1806335
  -0.7494566   1.2069812  -0.3760848   1.0910466   0.0364138   1.1482045
  -0.0666933   0.0652724   0.0825498   0.3904848   0.1672979  -0.8104050
  -0.8006289  -0.0774885   0.1941778   0.1379424  -0.0057004   0.1323255
   0.6219691  -0.0846205  -0.4917143   0.8489858  -0.0300980  -1.1023699
  -0.0921598   0.0190850  -0.0360363   0.9889022  -1.2786566  -0.2019066
   1.2642445  -0.1257467  -0.3185357  -0.0776589  -0.0255863  -0.1355957
  -0.0677230   0.5821240   0.8121338   0.5057832   0.6795048   0.9737915
  -0.0127896   0.1132565  -0.0342731  -0.7337701   0.6558805   0.2232157
  -0.9715083  -1.4955540  -0.3706767   0.0958987   0.0271400   0.1224848
  -0.3127436  -0.6743977   0.4703546  -0.3164637  -0.4190375   0.2445719
  -0.4392568   0.1605237   0.4344390  -0.0926303   0.7306574   0.0737909
  -0.3079583  -0.8964246  -0.6733724   0.1478864  -0.4778372   0.2129111
   0.4394121  -1.2741214  -0.3074869   0.1066589  -0.0326078   1.1829974
  -0.3532571   0.0798060   0.1818191   0.8589043  -0.6184931   0.2755138
  -0.9294496   0.4636393   0.4164210   0.0981116   0.2567940  -0.1913491
  -1.3340655   1.0020805   2.0780148   0.3278632  -0.8387751  -0.2803670
   0.2824904  -0.2531395  -0.5358705   0.0726285  -1.2606773   0.8801950
   0.1492557  -1.6345573  -0.1433690  -0.2079044  -0.3663544  -0.0790083
  -0.3010246   0.2322528   0.2725035  -0.1000000   0.0104615   1.0419558
   0.1426759   0.0346327  -0.2305775   0.1097784   0.2039538   0.4266392
  -1.3250506   0.1009597   0.4651826   0.0667833  -0.1630432   0.1162101
   0.3206315   0.4578192  -0.0860741  -0.0436790   0.9599202   0.5393837
  -0.1258372   0.2654214  -0.1100858   0.4989221   0.7545166   0.0101700
  -0.6239937  -0.1473464   0.3614227   0.1694095  -0.1065885   0.4084311
  -0.4734659  -0.3768820   0.3769287   0.1808899   0.5493913   0.7068686
   0.0418658   0.2224942  -0.1012399   0.1061513   0.8004628   1.1874810
  -0.2000799  -0.3900850  -0.0851961   0.2039161   0.0205320  -0.1052040
   1.7466995   1.3939731   0.2913211  -0.1623265   0.3791068   0.8628922
  -0.1266283   0.1940466   0.0269259  -0.5792982  -0.3286650   0.8175110
   0.7198023   1.1241546  -0.6039780   0.1280703  -0.0941265  -0.0663836
   1.1667893  -0.2574575  -1.0410590   2.4069871   0.6339460  -0.8331157
   0.1542610  -0.1864728   0.2180524   0.2704877  -0.3277765   0.1849160
  -0.1618734   2.6587647   0.5137092  -0.0489883  -0.2137388   0.3722615
   0.9542948   0.9592217  -0.3769467   1.0931689  -0.3881943  -0.4282822
  -0.0359262  -0.4253818  -0.2072119   0.0266995   0.6586633  -1.2923519
  -0.2271393  -0.8187883  -0.1377384  -0.0015889  -0.1066519   0.2821689
  -0.7048508   1.2262057   0.8525866  -0.4592858  -0.0419881  -0.3234598
  -0.2618648   0.2241409  -0.2328580   0.2582526   1.0333064  -0.4902919
   0.9379029   0.3653650  -0.9537407  -0.0294258  -0.2968827  -0.0752576
   0.3030668  -0.3133822  -0.7825531  -0.6255022   1.1738462   0.0992091
  -0.1293120  -0.0568907   0.2562715   1.1063170  -0.0114499  -0.2228059
  -0.3782268  -0.1050336   0.8314293  -0.2102444  -0.2108031   0.4247298
  -0.4057296   0.0708522  -0.0920192   1.6892441   1.1133895   0.0754073
  -0.0277772   0.1599058   0.1279406   0.0870275  -0.5705570   1.6475386
   1.2474505  -1.3984532  -1.0696841  -0.0083850  -0.2320704  -0.0069357
   0.5070856  -0.3159138  -2.1296083   1.2711295   0.2744719  -0.7973278
  -0.1546634  -0.1166001   0.0084295  -0.4932832   0.0970764   0.5745062
  -0.1282104  -0.0823194  -1.2422358   0.2082783  -0.3397237  -0.1496710
   0.3729068  -0.8280422  -0.0222453  -0.0179725   0.9767787  -1.0942258
  -0.0354822  -0.0879671  -0.1780772  -0.5324112   0.0621455  -0.2529659
  -0.3209894   0.3161928  -0.9302035  -0.3099420  -0.3417582   0.4233370
   0.3675526  -0.6863516   0.3080471  -0.0762935   0.7500480   0.4132335
   0.0939333   0.0795000   0.3095059  -1.8129024   0.3052157   0.1650191
   0.2345218   0.3082504   0.5523961   0.0261896  -0.4052598  -0.1019350
   0.0670114  -1.5229599   0.3319035  -0.6772811  -0.1120785   0.9218371
   0.0487034  -0.1623819  -0.1018228  -0.4377453  -0.3598945  -1.1582930
  -0.6744165   0.2919857   1.9031829   0.2128491   0.0177528   0.1153664
  -1.2980447   0.4268808   0.1154092  -0.0750888  -0.1958072   0.0463388
   0.2651229   0.0056101  -0.0016368   0.6428234   1.1416433   0.2782823
   1.1629016  -1.5414705  -1.0614785  -0.1961982   0.1545171  -0.0582335
   1.6909888   0.2609529   0.7859467  -0.0862217   0.0143248  -1.4607449
  -0.1104094   0.3974924   0.0113531   0.3122370   0.1023362   0.1516207
  -0.0283328   0.0826179   0.2594462  -0.5915321  -0.1380311  -0.3393797
   0.1536790   0.6294679   0.3703607  -0.4651769   1.1506960  -0.3357268
  -0.2424017  -0.1894658  -0.1445558  -1.3179606   0.2861198   1.1701323
   0.3075850  -1.0008325  -0.8464514   0.3906113  -0.1981337   0.0127258
  -1.3012997   1.1228600  -0.5444681   0.7179544  -0.9520763  -0.8505866
  -0.2139593   0.0422407   0.0189526   1.1885992   0.9942193  -0.8859190
  -0.5804920  -0.4142231  -0.7981689   0.4218695  -0.0912726  -0.1314576
  -0.0656865  -1.1822883  -0.7511953  -0.6013365   0.0248620   0.9310508
  -0.0704228   0.0200224   0.0960360  -0.5628237   0.2060766   0.7031357
   0.1430174   1.4098074   0.0530924   0.1158764  -0.1510877   0.1799307
  -0.2360864   0.3189506   0.6673770  -0.2893434   1.1673087   0.7425782
  -0.0767561  -0.0571738   0.2368335   0.7654818  -0.9202908   0.4053230
   0.6153354  -0.3290592   0.4315708   0.1364802  -0.1935704  -0.3156569
   0.0131130   0.5850647   0.5843365   0.8002683   0.7749495   0.6884041
   0.0135055  -0.1457559  -0.1045261  -0.7440657   0.9211316  -0.1360082
   1.3424337   0.8283001   0.7750871   0.0902115   0.3818120   0.0473881
   0.1052897   1.4350210  -0.2435326   1.3402351  -0.7066098  -0.7604396
   0.2380068   0.1402187   0.2296413   0.1706901  -0.4562446   1.2228701
  -0.2100172   0.4052141   1.5531696   0.3024853   0.2677078  -0.0829217
   0.2218085   0.7820355  -1.4139305   0.8868900   1.4792002   0.7959631
   0.1489721  -0.1960824  -0.0084913  -0.6888522  -0.2693929   1.7061680
   0.6120311  -1.1410018  -1.0614267   0.2401407   0.0776078   0.3782382
   2.2652295  -0.0243749  -0.9697514  -0.4818260  -0.5830241  -0.6863235
  -0.0505477   0.0202416  -0.0226168  -0.0129981   1.2271947  -0.0307003
  -1.6144717  -1.5376317   1.0493935  -0.3120558  -0.0500671  -0.1769514
  -0.4091478  -0.3846673  -0.1723934  -0.5729385   1.0880701  -1.2591277
   0.3046920  -0.0048735  -0.0355939   0.3693428  -0.5162483  -0.4010736
  -0.4385997  -0.0492941  -0.1287883   0.0124628   0.0883396  -0.0652582
  -0.2599429  -0.4365837   1.5047536   0.6666925  -0.4309386   0.0934295
  -0.2039516   0.0017342  -0.2806934  -0.2889590   0.5213786  -0.0438937
   1.0006350   0.4026069  -0.2396832  -0.2270372  -0.1094306   0.1933772
   0.5801757   0.1978145  -0.5219965   0.0656398   1.1857033   1.1397093
   0.0518708  -0.0718667  -0.2878508   0.4060172   0.1481937  -0.5058705
   0.6057783  -0.2684383   0.2917354  -0.0611550  -0.0808842   0.1811777
   0.4796100  -0.1135796   0.0796660   0.1738919   0.1046907  -0.3507896
  -0.2292877  -0.2280191  -0.1025346   0.5355700   0.3880380   0.0322209
   0.5394182   0.1016391   0.5030177  -0.1824749  -0.1732414   0.0433207
  -0.2373937   1.4478093  -0.4288121  -0.7974807   0.0456527   0.0977092
  -0.0544239  -0.2500295  -0.1322589   1.9445333   0.4616301   0.8574525
   1.2187945  -0.3167831   0.3381878   0.1815732  -0.5242774   0.1538351
   0.2946683   0.3088826   0.8821686  -1.1375714  -0.4361206   1.1017536
  -0.1998170   0.0875521   0.0654125  -0.2093143  -0.5732333   0.1622883
  -0.5010594  -0.2331861  -2.0389347  -0.2694297   0.1689826  -0.2037644
   0.6682091   0.1061899  -0.0451566   0.1208227   0.3705962  -0.0217953
  -0.1005979   0.0824465   0.0619928  -0.5901950  -0.8679105  -0.7629091
   0.0110033   0.6684877   0.8698387  -0.1374361   0.0129740   0.4733935
   0.4297775   0.2049444  -0.0812559   0.0398466  -0.7740553  -0.1512052
   0.1171090  -0.0211288   0.1006831   1.0128908   0.9117857  -1.0969308
  -0.9843871   0.6888528   1.2676775   0.3430152   0.0707931   0.0029506
  -0.4385349   1.9311454   1.9696003   0.5390511   0.7564823   1.2969991
   0.0817272  -0.2078709  -0.0695386  -0.8104009   0.4042573  -1.0682615
   0.8034652   0.7400709  -0.0114685   0.2048448   0.2563136   0.1872923
   1.4269298   1.2064538  -0.8331613   0.5816178   0.2143819  -0.1557863
   0.1441811  -0.2213852   0.0245917   0.4338565   1.5325020   1.2663361
  -0.0008889  -0.3552687   1.1676509   0.4605742   0.0954784   0.1000110
   0.3650473   0.4105418  -0.6110356  -0.4068029   1.1598034   0.7052644
  -0.3439329   0.3252336  -0.2419681   1.8481105  -0.3498754   0.6186589
  -0.0200818  -0.7734563  -0.0472923  -0.2953719  -0.1118673   0.0783955
   0.5964268   0.1088679  -0.7868420   0.0203573   0.8538210  -0.7866117
  -0.1889759   0.1119767   0.0922472  -0.1199409   0.8528044  -1.0801834
   1.9041754  -1.4901508  -0.3238335  -0.1460153  -0.3236148  -0.1235610
  -0.2133192  -0.6766350   0.2633185   0.6448724   0.2737998  -0.8219553
   0.1010201   0.0533185  -0.2814055  -0.8784384   0.9398502   1.2518379
  -0.0459132   0.3840028   0.0215865   0.0137291   0.2204633  -0.1011386
  -0.1232794   0.0644206  -0.2872877   0.3007494  -0.0819880  -0.3109258
  -0.0906831   0.0404007  -0.1606654  -0.9840763   0.3008501  -0.1742001
  -0.0111951   1.5472108  -0.6130420   0.0301645   0.0794015  -0.0222755
  -1.1502381   0.3157720   0.7474467   0.3150354   0.9262174  -0.4146337
  -0.0621540   0.2124689   0.0410081   0.9858258  -0.4471782  -0.3737858
   0.1728136  -0.4211575  -0.5945776  -0.0452201  -0.1966224  -0.1440983
  -0.1967982   1.0379905   1.0340197   0.3700767  -1.0832025  -1.5074665
   0.2678463   0.2525833  -0.1961343   0.3674001   0.1965550   1.2409078
  -1.4280147   0.3885809   0.3717860   0.3328640  -0.2354587   0.2520044
  -0.3487125  -0.3016351   1.3409594  -1.6229192   0.6294276  -1.1574987
   0.1675056  -0.1961597   0.3172235  -0.1717415   0.0350237  -0.5457259
  -0.4321773   0.7483169   0.4803682  -0.0815658  -0.0131264   0.1523997
  -0.6826591   0.9089863  -0.5236547   1.2442233   1.3273666   0.1458798
   0.0021907  -0.3348054  -0.1673943  -1.0352045  -1.5108260  -1.0472366
  -0.3126655  -0.5999836  -0.2481875   0.2533620   0.0217033  -0.0306348
  -0.1710604  -0.7162279  -0.8042724  -0.2551778   0.8263913  -1.1757618
  -0.1765139   0.2270865  -0.2107557   0.5576757   0.2029914  -1.5386106
   1.0125465  -0.8545714   0.7866516   0.2341116   0.0509350  -0.1556086
   0.1607052  -0.0762381   0.5618047   0.7446643   0.0861800  -0.3284345
   0.1892479  -0.3452933  -0.1619003   0.3099585  -0.3014602   0.3768960
  -0.3515678  -0.5303381   1.3805403   0.1355690   0.3302024  -0.5049671
   1.2065749   0.2996103   0.4655996  -0.2628584   0.0503425  -0.7085758
   0.0095069  -0.0499511   0.1808060   0.2827581  -0.6271821  -0.7828870
   0.4838315  -0.6980993   0.9564339   0.0706572  -0.1070701  -0.1992844
   0.3383743  -2.2223292   0.5837875   0.8123275   0.5198106  -0.2976971
   0.3852894  -0.0266099   0.1037957   1.1197118  -0.0631242  -0.1466636
   0.5457246  -0.0672209   0.4633755  -0.2662598  -0.0239944  -0.2682319
   0.0194983   0.8363666   1.4539020  -0.1654131  -0.3086167   0.6302129
   0.0138594  -0.3959855   0.0276343   1.2713824   1.4685537   1.1602729
   0.8738149   0.6172497  -0.5715619  -0.2007325  -0.1371135  -0.1489192
   0.0999106  -0.9528773  -0.7543111  -0.2103382   1.2630663  -0.2099640
   0.1068524  -0.0733532   0.1344072   0.7815991  -0.8290978   0.6324969
  -0.7487937  -0.5551786  -0.0624671  -0.0875285   0.2652443  -0.2878740
   0.2959466  -0.9875751  -0.4385094  -1.1643203   1.5096400   0.9130814
   0.4356870  -0.0450823  -0.2693166  -1.8124015   0.0565089  -0.9712735
  -0.2357529  -1.8348828   0.2338967   0.2405460  -0.0131307  -0.2316709
   0.2641704   1.1207765  -1.0814584   0.4315236   1.5065041   0.8733053
   0.0812882   0.2127483   0.0044468   0.2019400   0.7373306  -0.0670190
  -0.2038173   0.0077431   0.9240700   0.2934396   0.0310914   0.0712849
  -0.4444318  -1.2268653   0.1042619   0.7361126  -0.2592308  -0.2227516
   0.2169116   0.2508338  -0.1240902   0.6384816  -0.0335781   0.4409287
   0.9964919   0.2343496  -0.0341171   0.1074816   0.3895193  -0.0215993
  -1.6209310   1.3082116   1.0590789  -1.2268487   0.3826797   0.4409833
   0.2432176   0.2887499   0.0833087  -0.6064192   0.8708610   1.0393787
   0.2365622   0.4472794   0.8477650   0.0419112   0.0448745   0.1487508
  -0.3827676   1.1085988  -0.6115419  -0.1994856   0.9216211  -0.9420648
   0.0610853   0.3426519   0.0686049   0.1427917   0.1335422  -0.8947780
   0.8456449   0.3801186   0.3026478  -0.0356532  -0.2914720  -0.0687996
  -0.8459806  -0.3582603   0.0602935   0.3603119  -0.3863013   0.6004516
   0.2854910  -0.1263941   0.1445664  -0.5139349  -0.2711337  -0.0727528
  -0.3770656  -1.1673854  -1.3057344   0.1486959  -0.0033909   0.4228774
   0.1112968  -0.9770683   0.9386178   0.4122952  -0.9672295  -0.1526932
  -0.3826822   0.1808247   0.0867897   0.8085928  -1.0296302  -0.8272976
   1.2944040  -0.2720974  -1.5268846  -0.2571840  -0.0494234   0.1738779
  -0.4531348  -0.2504598  -0.6088778   0.6668571   0.2840353   0.3575136
  -0.0187702  -0.0476394  -0.5091090  -0.5572846   0.3284469  -0.3525078
  -0.1376646   0.8031164  -0.1283016  -0.1645105   0.2575813  -0.2858021
  -0.1221503   1.0111754  -0.5435402   0.8221825  -0.8691746   0.1083116
  -0.0081208   0.0923500  -0.2124645  -1.1067234   0.6033548   0.9185746
  -1.1440733  -0.7175044  -0.9574606  -0.4433870  -0.2377091  -0.0597817
   0.2252109   0.9132475  -0.1876965  -0.5229329  -0.2766681   0.3055660
  -0.0017004  -0.2147170  -0.3448657   0.4673528  -0.8916295  -0.5375264
  -0.0590157  -0.5370876   0.5788598  -0.0370644  -0.1296912  -0.2086315
   0.4054851   0.9905863  -0.4092958  -0.1054533   0.8598865  -0.1485265
  -0.2087333  -0.1944782  -0.2709268  -0.7451657  -0.2299204  -0.4668591
   1.3411327  -1.3452247   0.5285554  -0.1368823   0.0784048   0.0685988
   0.7383389  -0.8520885   0.8100063   0.8812695   1.0196342  -0.4270001
   0.1511999   0.1566985   0.0557605  -1.0071368  -0.0943740   1.5863360
  -0.0373067  -0.4971316   0.6082300   0.1504768   0.0143075   0.1001625
  -0.1963580  -1.9596418   0.4226743   1.2035207   1.4329573  -0.4815864
  -0.1887690  -0.3264028   0.1199449  -0.3671455   1.0966249  -0.0420563
   0.3604482   0.6846086   0.4154973  -0.3186250   0.1401140  -0.3785178
  -0.9833924  -0.3562763  -0.2204273  -0.7226486   0.3302550  -1.3517516
  -0.0467858  -0.0836363   0.1213211  -0.1500553  -1.1000081   0.7302255
   0.5894609  -0.7505610   1.0447708   0.2319412   0.1669442   0.0765083
   0.5717600  -0.0843810  -0.6252996   0.2293922  -0.1595176   1.1039108
   0.1687733   0.0296094   0.1182053  -0.6674006  -0.3974368   0.7998818
  -0.1063195  -0.9209151  -0.4175219  -0.3253766   0.1177078  -0.1237669
  -0.0596067   0.7160630   0.2010338   1.3483274  -0.6232428   1.2942752
   0.0948329  -0.0890029  -0.1483185  -0.8332012   0.8548437   0.4840967
   0.2942132  -0.0189816   0.3108707   0.0432792   0.3133926  -0.0436943
   0.6894360  -0.2558749  -0.1735988  -0.1019758  -1.6614355   0.4810686
  -0.2798688  -0.0972149   0.1611177  -0.4970019   0.1532120   0.0231941
  -1.0485331  -0.7214403  -2.0093429  -0.2551822   0.0532139   0.1704679
   0.6604046  -0.1958340  -0.4716411   0.5602132  -0.4763982  -0.8164099
   0.0389325   0.0014876   0.2817287   0.5746951  -0.4396128  -0.9460518
  -0.1738864  -0.2885726   1.2051740   0.1061453   0.0749224   0.3073010
   0.6234865  -0.8088219  -0.1453041   0.3950285   0.5334266  -0.3240117
   0.2711953  -0.3354211   0.0481767  -0.8186802   0.3322837  -1.0795004
   0.9900967  -0.2831398  -0.7627169  -0.0153446  -0.0045860  -0.4836724
  -0.8813914  -0.6545631  -0.5360440  -0.0711104  -0.1414846   0.1040309
   0.1157709   0.1311849   0.2525994   0.2113631   0.3505846   0.2132891
  -0.1274259  -0.0139026  -1.0078791   0.0651982  -0.3542835   0.0520792
  -0.5057805   0.6492597  -0.2475923   0.8642906   0.9785422   0.7701904
  -0.2514810  -0.3364385   0.1078663  -0.6831942   0.2692656   0.7099912
  -0.7190131  -0.2058298  -0.3545991   0.2004347  -0.3443002   0.1841740
  -0.2175001   0.8823111   1.3853204   0.8000592   0.0015307  -0.2371559
   0.0501056   0.2224812  -0.4294599  -0.3932354  -2.5297011  -0.3256866
  -0.0611476   1.0277540   0.2025357   0.1074626  -0.0046244   0.0371741
   1.0052242   0.8757331   2.3090927   1.3544191   0.8314627  -0.6869585
  -0.0122262  -0.1809905   0.2179886   1.4062574  -0.4648063  -0.0676996
   0.1537012   0.2282973  -0.2339315  -0.1958806   0.0320199   0.5214600
  -1.2888911   0.5525480  -1.1740945   0.0099312  -0.6456918   0.1904846
  -0.2973523  -0.0909818   0.1393531  -1.3972425  -0.2228782   0.1289873
   1.4953073   0.3203863  -1.2753968   0.0460658   0.1737618  -0.0000436
  -0.5757484   1.1176181   0.0242242   0.0280686  -1.1186901   0.3903762
   0.1479205  -0.2672178  -0.0660939  -0.5368190   0.8032271  -1.1661776
   0.0702081   1.6368831   0.9508955  -0.0712637   0.1434138   0.3978605
   1.1321677   0.6843893  -0.2308513  -0.1199295  -0.0017427   0.4380260
   0.0334476  -0.0417002   0.3218658  -0.1695752  -0.2451457  -0.6284320
   0.7036253   0.1657541   0.8528593  -0.0296439   0.2461490   0.0703603
  -0.6595916  -1.1689707  -0.2629183   0.0528876  -0.1579076  -0.1733584
   0.1832873  -0.3127628   0.0736529   0.7755900  -1.1016495   0.8689146
  -0.4963535   0.2877006   2.1073516   0.0911864   0.1356025   0.3768877
  -0.4145264  -0.7441624  -0.5624057   0.5338273   0.5916468   0.6964635
  -0.1554911   0.2845574   0.0996573   0.5824125  -0.5278643  -0.1012433
   0.4114873   0.5611460   0.8674519  -0.1132530   0.2270075   0.1614698
  -1.0862061  -0.5117568   0.1834269   0.7170243   0.3550085   0.1250015
   0.2033062   0.0659343   0.1478214   1.1604364   0.0648864   1.4696255
   0.3950882  -0.0566189   0.0164558   0.1282651  -0.0176777   0.3694288
  -0.2136097  -1.0501583  -1.3579936   0.1242823  -0.5765593   0.9030402
  -0.2251750   0.0361248  -0.1431710   1.2577447   0.7862074   0.3571396
  -0.0376293  -1.2608232   1.7971425   0.0602528   0.2403386   0.0063406
   0.6942358  -0.7458058  -1.7102807  -0.0537495   0.5871231  -0.6227255
   0.2380429   0.3095556  -0.0899335  -0.8630258  -0.2273217   0.1718588
  -0.2389188  -0.6654496  -1.0652598  -0.0811732  -0.2250506   0.0820823
  -0.6303528   0.2017936   1.0945474   0.6926000  -1.0802871   0.4948702
  -0.0166823  -0.2279087  -0.3649985   0.6392888   0.0878851   0.4679972
   0.1490355  -1.3157971   1.7333698  -0.0080322  -0.2662838  -0.0767845
  -0.3978827   0.5281029   0.0569570  -1.3610178  -0.8365637  -0.3643580
   0.0777821   0.2574473  -0.3573304   0.2991369  -0.1856085   1.6030417
  -0.4383729  -1.6085415   1.2138714  -0.0036429  -0.1188388   0.2394361
  -0.2870329   0.3522114   0.9315071  -0.2883383  -1.2702667  -1.4098911
   0.0261371   0.0987905   0.3062713  -0.6408566   0.7611271   1.0118763
   0.5736111  -0.8113549  -1.6518402   0.1861802   0.1749246  -0.0786174
  -0.0069699  -0.7802086   0.0694649   1.1450340   0.5481202   0.0710567
  -0.1712939   0.4455975   0.0313212  -0.4121852   0.5011466   1.9759763
   0.3913209   0.6272044  -1.2810296   0.0834634  -0.5207856   0.0463494
   0.7332924   0.2305972   1.5360596  -0.5726907   0.2772998   1.1454070
   0.0625145   0.1419629  -0.0440525  -0.4178705  -0.3728007  -0.7274374
  -0.2650267   0.2469279   0.2187464   0.3019294  -0.0971228   0.0993958
  -0.8094560   0.2497968   0.0095394   0.4949119   0.6850574  -0.4470106
   0.0426099  -0.1610880  -0.2254284   0.0784890   0.4406698  -0.7865985
  -0.6011562   0.9126989   1.4436731  -0.1731592   0.4501824  -0.2224513
   0.9562392   1.5858092  -0.9128510  -0.8294984  -0.5944874  -0.8780731
   0.3041294  -0.1915946  -0.0094025   0.0329042   1.1769203  -0.0410168
   0.3192185  -0.6505791  -0.0279907  -0.1603536   0.2851470   0.1433894
   1.8267230  -1.6008965  -2.0756983   1.2981496  -0.5516696  -0.4861622
  -0.0449742   0.0314466  -0.1831644  -0.4618064  -0.4227326   0.8367020
   0.2077173   0.9554853  -0.0040401  -0.1986391   0.0063421  -0.1922079
   1.0222185   0.1404967   0.5106564  -0.1134177  -1.0027829   0.4491961
   0.3000821   0.0195300   0.2415959  -0.4753979   0.5209656  -1.3032747
   1.2549693   0.3631779   0.2997206   0.0547238   0.4474702   0.0134153
   0.3443152  -0.3696593  -0.8356958  -0.7040927  -0.2421868   0.2033694
   0.0251125  -0.0658597   0.0004733  -0.2520771  -0.0663677  -0.5846323
  -1.4487671  -1.4098912  -0.8888537  -0.2997379  -0.2472381   0.3814722
   0.2894880   0.4414201  -0.5619084  -0.2137026  -0.3677949   0.3042627
   0.2023444  -0.0473560  -0.0549799   0.3350718  -1.1143860  -0.0538002
  -1.0975666  -0.3429578   0.3337163  -0.2484992  -0.2272482   0.1159166
  -0.5588996   0.7129555   0.2923298  -0.0760198   1.4701582  -0.1980644
   0.2261270  -0.1126170   0.3771456   0.4109071  -1.4325507  -0.6165975
   0.1082155  -0.9824201  -0.7047117  -0.4789684   0.1245834   0.0930861
  -1.0301710   1.2424412   0.2398147  -0.3725448  -1.2131859  -1.3138617
   0.2607055   0.4919665  -0.1226808  -0.3655080  -1.0116188  -1.0417221
  -0.2818006   1.5608162   0.7825260  -0.0846211  -0.1775383  -0.0211685
   1.3381234   0.5097279  -0.0722628   1.5121209   0.3029561   0.0478584
  -0.1857533   0.2429980   0.2429422   0.9272355  -0.5814205   0.3791074
  -0.9101214   0.3693699  -0.4842005  -0.3479493   0.0269181  -0.0279338
  -0.1999202   0.9857457   0.4290409  -2.0425138   1.3559455  -0.6790620
   0.0231682  -0.0608378  -0.2117818   0.1225613   1.3913023  -0.5259323
   0.2603267  -0.2818397  -0.9908273   0.0863154  -0.1337326  -0.1992551
   1.5554910  -0.9959831   0.7500258  -0.1359523   0.6673407   1.5420433
  -0.1053623   0.0592024  -0.1169915   1.8014867  -0.4993259  -0.0961038
  -0.6550203  -0.8781056   0.1149731  -0.0316327  -0.3014908   0.3659279
  -0.4819538  -0.4794574  -0.6458591  -0.2375321   0.4341501  -0.3209766
   0.0907060   0.1064042   0.0408629  -0.1233998  -1.4990229   1.0376804
  -1.0510881  -0.8585663  -0.8134832  -0.2335457   0.3832793   0.2405934
   0.1165425  -0.5913577  -0.6143280  -1.1002821  -0.0602932  -0.7107199
  -0.2587160  -0.0648664  -0.1688199   0.5742630   0.3033662   0.4267283
   1.0369278  -0.1534986  -0.3145062  -0.0691859   0.0860494  -0.3187242
   1.0733989   0.3665575   0.5591897   0.5621393   2.1636526   0.9628390
   0.0609047   0.0047303   0.3535791  -0.7444046   1.0215696  -0.0604865
   1.2428218  -0.7100511  -1.4339095   0.1016693  -0.1516352  -0.3514033
   0.4892053  -1.3024565  -0.5750649   0.9115261  -0.4394301  -0.2778564
   0.4616318   0.1321340   0.4573414   0.2921339   0.3776813  -0.6899538
  -0.3024467   0.7925974   0.3237466   0.0887604  -0.3614998  -0.0886759
   0.8912419   1.0049702   0.1509332  -0.5007308   0.8053535  -1.0273790
  -0.0914775  -0.0560243   0.0185705  -1.0931002  -0.4063591   1.2445935
  -0.1456827  -0.9397448  -0.1627521   0.3346321   0.0632951   0.0161110
  -1.3429566   0.5367397  -2.0744167  -0.4103834  -0.8859505   0.2212065
  -0.0896699   0.2079062   0.1893548   0.0937379   0.5913881  -0.1279587
  -0.0767988  -1.5686093  -0.0151615  -0.0871684  -0.0100729  -0.1466031
   0.9372004  -0.0827382   0.1557415   0.3827927   0.9858896  -0.3751574
  -0.1466896  -0.1456563  -0.2310624  -0.4593158  -0.4998097   0.5310016
   0.1676037  -0.9764476   0.4540637  -0.1536473  -0.1609604   0.2360981
  -0.7351348   0.6442227  -0.3505568  -0.2037941   1.1906285   0.3359251
  -0.2178153   0.0602622   0.5924107  -1.0327799   0.3177401  -1.2258974
   1.1144865   0.0941506  -0.6735665   0.0815382   0.0709961  -0.2557182
  -0.2055600  -1.8167626   0.5112889  -0.0440937  -0.1526764  -0.1716599
  -0.0998317  -0.1288899   0.0045342  -0.2198957  -0.5775987  -0.9536849
   0.8638942  -0.1604289  -0.0856042  -0.0115103  -0.1876682   0.0436974
   0.0671857   0.7046682   1.2068017   0.0729016   1.2913431   0.0965105
  -0.4675099  -0.0145553   0.0404997   0.3098404  -0.5709137   0.9021213
   0.6054693   0.5097087   0.3620176   0.3374682   0.1533692  -0.0440713
   1.5196810   0.4008164   0.9323291   1.0579470   0.2030313   0.8703489
   0.0625045  -0.2639242  -0.0526040   0.6015112   0.3516974   0.0713873
   0.1329540  -0.3362153  -0.3336523   0.0933589   0.0566081  -0.4135788
   0.8689891   1.3488579   0.5835782  -0.5305837  -0.7030714   0.2906795
   0.1159320   0.3401173  -0.2015474  -0.3483111   1.2360434   0.0894673
   0.2782617  -0.2050756   1.5803620  -0.2495364   0.1296080  -0.1324145
   0.3777358   0.6637279  -0.2175771   0.7449234   0.3331686  -0.6168044
   0.2653613   0.2172143  -0.0821083   0.0903130  -0.6391326  -0.3261586
  -0.5520747  -0.4875360   1.2709431   0.2934981  -0.1814955   0.1533736
  -0.3376423  -0.5778515   0.1483110   2.0382985  -1.8317880   0.4256580
   0.2654559  -0.0611980  -0.3125130   0.4776937   0.1243782   0.4580143
   0.4194453  -0.5809391  -0.5755050   0.0841448  -0.0074026   0.0679837
  -0.9149221   0.3203250  -0.0251668   0.2567781  -0.9897703  -0.0869685
  -0.1109616   0.3460034  -0.1139518  -0.4331542   0.3407814   0.2312739
  -1.3054540  -0.5832209   1.1946499   0.2242609   0.0165036   0.2768719
  -1.3098208  -1.1055523  -0.7694752  -0.2673360   1.5020962  -0.3076267
   0.1117372   0.1021685   0.2504277   1.3253088   0.5302609   0.4046683
  -0.0826880   1.6198793   0.3751061  -0.1985310   0.0183725  -0.3983322
   0.3190584  -0.1238508   1.5176291  -0.8634325  -0.4619775  -0.9186662
  -0.2184005   0.1920699   0.2937819  -0.6239797  -1.1695470   0.4879829
  -0.1462368  -1.1568834   0.6447839  -0.1421875   0.3891856  -0.2847707
  -0.6729234   0.0771670  -1.6403508   0.0790202  -0.0680797   0.7520219
   0.0677839  -0.0075856   0.1824836   1.1281237   0.5638368  -1.0082436
  -0.6209805   0.6464132   0.5040972   0.1357319   0.3892442   0.1724982
   0.2054142  -0.1003446   0.3051446  -0.2840433  -0.2554937   1.0444141
  -0.1508028   0.0407830  -0.1379004  -0.3208970   0.1722020   0.1669284
   0.6898162  -0.5993472   0.5461705   0.1139973  -0.0567650   0.2017282
  -0.4358165  -1.0849511  -0.2012386   0.2313703  -0.1364498  -0.2546773
  -0.1723375   0.0335590   0.1505842   1.3723163  -1.1911045   0.4233346
  -0.8759477   0.3748871  -0.2437024  -0.1111904  -0.1728573   0.1451250
  -0.2207754   0.4213270  -1.6733935  -0.5432622   0.3619582  -1.7555371
  -0.0348522  -0.2184313   0.0840339   0.1772584   1.4339951   0.4373356
  -0.0132203   1.4201004  -0.0599692   0.1879460   0.0909099  -0.1180561
   0.5913920   0.7670281  -0.2547780   0.1148059  -1.1358770  -0.8053526
   0.1362345  -0.1794375  -0.2145768  -0.8800659  -0.1859004  -0.5799087
   0.4837447   0.1771372  -0.6578765  -0.1414472   0.2034791   0.2102724
  -0.8038794  -0.8052563  -0.1804237  -1.6541442   0.8538534  -1.2374891
  -0.3166231  -0.1529436  -0.3462244  -0.6214461   0.7775977  -0.2223360
   0.3983749   0.1999056   0.7791960  -0.2206408   0.0099793  -0.0928068
  -0.1374008   0.8132180  -1.0445213  -0.2772359   0.4235865  -0.6969912
   0.1278056   0.1290981  -0.0948967   0.5368121  -0.9556022   0.0067129
   0.5358075  -0.2970282   0.9829294  -0.3208725   0.0163673  -0.0521262
  -0.5420222  -0.5073509  -1.5871157  -0.0205649   0.8321870  -0.9675327
  -0.3864224  -0.0752604  -0.2685562  -0.7666605   0.4353327  -0.6398833
   0.8420430   0.8131786  -0.9475031  -0.0257033   0.0587106   0.3362223
   0.6482230  -0.3791584   1.0154135   0.2074049   1.2886512  -0.4991988
   0.0692983  -0.1488892   0.0005403   0.3244875   0.5735649  -0.8467296
   1.1719236   1.0434398   0.5007311   0.0748858  -0.1009321   0.0766170
   0.5199397   0.4710023  -0.5658378   0.3303575  -0.4303482   1.7774907
   0.2641036   0.1402772  -0.2346335   0.7685105  -0.0810801   0.2523970
   0.5902653  -1.4192415  -0.8533048  -0.1168936  -0.2734319  -0.4262631
   0.3879667  -0.5951853  -0.3682250  -0.0691320  -0.2480672   0.4637564
  -0.0747390  -0.2997244   0.2404469   0.5504938  -0.5246518  -0.3606092
   0.6043295   0.5536007  -0.7577315  -0.2353409   0.2169838   0.2331746
  -0.1699335   0.2094412   0.5242825   0.3624367  -0.3870443  -0.4980141
  -0.1165653  -0.2300573   0.2042083  -0.4054079   0.2617582  -0.2182972
  -0.2483326  -0.4433802  -0.4261841   0.1987759   0.0221843   0.0971532
   0.2089359   1.5358346  -0.1273598  -0.5778481   0.5977288  -0.0309993
   0.0981520  -0.1663526  -0.1654460   0.1607937  -0.0254209   0.3972512
   0.3530310   0.1068574   0.7601585   0.1363462   0.0822130   0.0492695
   0.0468368   0.4593862  -1.0959497  -0.0590622  -0.9049442  -1.4321477
   0.0511923   0.2912148  -0.0572264   0.9148399  -0.1832613   0.1575590
  -1.6321010   0.3319770   0.1991732   0.2177519   0.3131894  -0.0504766
   0.8824363  -0.2572065  -0.8213675  -0.2691694  -0.0657878  -0.5633107
   0.2197326  -0.1150510  -0.1454274   0.5702903  -2.0251765   0.9228416
  -1.6946822   0.2651920  -0.6953509   0.1040685  -0.2199509   0.0773046
  -1.6512946   0.5779648  -1.3577513   0.4717241  -0.1603925  -1.0023525
   0.0751164  -0.1620446   0.0324369  -0.5230888  -0.4601427  -0.1484327
   0.7396477  -1.7209606  -1.0076178  -0.0352211  -0.1030941   0.1420426
  -1.5503023   1.3859173  -0.8121956   0.6053998   0.4173962   0.0022192
   0.0070555  -0.2322679  -0.3034033  -0.8213096   0.2033439  -0.1720651
   0.4129570   0.2028320   0.2404763   0.1074700  -0.2465478  -0.1167973
   0.6356361  -0.2823707   0.4301193  -0.8318828  -0.7720248   0.3230180
  -0.0374801   0.2658672   0.1217540   0.8354446  -0.2535897  -0.0680090
   0.2102742   1.2634333   0.5298295   0.1531188  -0.2126016   0.3403516
   1.7384270   0.3341086  -0.8858246   0.6755200   0.4820431  -1.6888281
  -0.0751839   0.3241290   0.0545158  -0.0174838  -0.2955092   0.6954115
  -0.0880909   0.8357941   0.1990363   0.1928583   0.1598847   0.0464742
   0.7588477   0.9095271   0.1837462  -0.2404226   0.4787031  -0.3272599
   0.1434222   0.4924680   0.2047150   0.7140550  -1.1547870   0.4279693
   1.0055932  -0.0365867   0.0979649   0.0608196   0.0987429  -0.1267563
  -0.5084972  -0.4200406   0.4196570  -0.0092566  -0.6502977  -0.1980860
   0.4549002  -0.1401606   0.0442315  -0.1951993  -0.3471460  -1.1148308
   1.8660634  -0.2821220   0.5863789   0.2595093   0.1560443  -0.2201894
   0.1318393   1.1706779   0.3386712   1.1571408  -0.1391658  -0.2779124
   0.2380095  -0.0463803   0.1906891  -0.0677916   0.3952772   0.6379848
  -1.0040614  -0.8664201   0.5792784  -0.3789661  -0.0498811   0.0869646
   1.0252287  -0.2683244   0.3987607   0.1189515   0.9253060   0.2705406
  -0.1038286   0.4770828  -0.0040434   0.1916319  -1.2379459  -0.5905621
   0.4970969   0.7299221   1.4686866   0.0321021   0.0365712  -0.0163611
   0.9753693   0.0736003   0.1899429   0.6872153  -1.1788224   0.1505237
   0.2671043  -0.1490492  -0.2100347  -0.7165484  -0.9941382  -1.8520036
   1.1448175   1.0896397  -0.2706769  -0.0624145  -0.3124184  -0.1022548
  -0.1264316  -1.0758815   0.5419356   0.1145494   1.0837151  -0.4148205
  -0.2406117   0.0446136  -0.1781830  -0.6792462   0.3568538   0.1914198
   0.0775634  -0.2266097   0.7705997   0.2285727  -0.2013914   0.1322259
  -0.9607629   0.3631694   0.8537448  -0.5744294   0.2102151   1.3884291
  -0.3382250   0.2057663   0.1434004  -1.7089039   0.0562493  -0.7471683
  -0.4966101   0.0699469   0.2989858   0.2084577   0.1661713  -0.1014605
  -0.8311525   0.7692490  -0.0873232  -0.6156114   0.6432951  -1.3492232
   0.0201209   0.0771327   0.0439847  -1.2622141  -0.0312141  -1.2468717
  -0.2646083   0.5788420   1.5291569   0.1008281  -0.0080915   0.2386544
  -0.4870442   0.4431325  -0.7569209  -1.9330969  -0.4357743  -1.5543515
  -0.3748911  -0.1569201  -0.1843113   0.0633661   1.1554769   0.5642385
  -0.2941980   1.2677067  -0.2691086   0.0814613  -0.0174718  -0.2634068
  -0.2468123   1.1500114   0.3046151  -1.1652475  -0.9344271  -0.2751160
  -0.1174248   0.1891079   0.1604872   0.0671008  -0.5946864  -0.4898777
  -0.8047994  -0.8377081  -0.4297406   0.1474144  -0.1002275   0.1240216
   0.5684241   0.8056248   1.4030629   0.0725740   0.5805806  -1.2742711
   0.1285351  -0.0241448  -0.2016791  -0.8286516  -0.2757740  -0.8746614
   0.8081384   0.8696204  -0.1597166   0.0387850   0.0690129   0.3172698
  -0.5377213   0.3787685   0.1556020   0.8222693  -0.2122743   0.5467651
   0.0758708   0.1996238   0.2820825  -0.2894577  -1.0531742   0.5863319
  -0.3550952   0.0499549   0.7184375   0.0747667  -0.5207974  -0.0669324
   0.9438690  -0.2712839  -0.0856087   0.0156653   0.7204445  -0.6083267
   0.1909036   0.2043319  -0.2615276  -0.0725428   0.5713675   0.5755230
   0.0163780  -0.5869961   0.1355382  -0.0364564  -0.1207143  -0.2973622
   0.5202355  -1.5674641  -0.1886297  -0.8325399  -1.6215524  -0.9324723
   0.3451351   0.1276027   0.1044992  -1.1081041   1.3248322   0.6620075
   1.0097380  -0.8913519   0.3884688   0.2661887   0.0227015   0.1895044
   0.1190943   0.1660103   2.4957970  -0.5959687   0.1324172   1.1656642
   0.1128714  -0.0225761  -0.0649520   0.0201712   0.5427554   0.6064730
  -0.3456803   1.2182814  -0.6831185  -0.3721391  -0.3450085   0.0950126
   0.9555417  -0.0569870  -0.0592711  -1.1742414   1.0980965  -0.6364034
  -0.1850628  -0.0527429  -0.0704301   0.1452983  -0.7696403   0.1402354
  -0.0898514   0.1652331  -1.3862018   0.1626728   0.0036634  -0.0563046
   0.5175223  -0.7198218   0.0219031  -0.0120412   0.9017579   1.9129307
   0.0788754  -0.0106030  -0.0039349  -1.0617101   0.7551049  -0.1272996
   0.5633348   0.0048015  -0.2428978  -0.0416222   0.1622145   0.0736640
  -1.7080449   0.4606077   0.2306368   0.6729805  -0.7561129   0.1709875
  -0.0755899   0.3420897  -0.0757972  -0.5807272  -0.3601993   1.2887350
  -1.4407875  -0.0031517   0.6599946   0.1913869   0.1439996  -0.1456895
  -1.0241485   0.5390181  -0.0166711   0.4684524  -1.8452921   0.6539648
   0.2215689   0.2385749   0.2011181  -1.1198399  -0.6033748   0.0784348
   0.8374365  -0.0919416   1.4840293   0.0743584   0.2642265   0.1048148
  -0.8060589  -0.3130548   0.9500778  -0.5166318   2.1224309  -0.3546483
   0.2201702  -0.0936270  -0.0409124  -0.6820735  -1.3924047   0.2912085
  -1.1816939   0.2574695  -0.0353205  -0.1536940  -0.1799141  -0.0804938
   0.5710834  -0.1424540  -0.6259667  -0.5965801  -0.8700327  -0.6897929
   0.1713490   0.1068371   0.1483949  -0.2517341   0.5221070   1.2971710
  -0.4812495   1.1694869   0.5432338   0.2378131   0.0468745  -0.0158922
   1.2047376  -0.8210393   0.6207791   0.0451212   0.0677857  -0.6932609
   0.3826227   0.0167671   0.1483008  -0.4592522   1.6002020  -0.3034487
   0.7481588  -0.4922259  -0.1974756  -0.1149060  -0.1860782   0.0648761
   0.4763466   0.0889870   0.3595996   0.0701995   0.3888097  -0.1537672
   0.0667736  -0.0862550  -0.1218449  -1.1260548   0.5531210   0.2528135
  -0.5806788   0.0844834   1.3724698   0.3883247  -0.1125831  -0.0643763
  -0.8483634  -1.4873035  -0.1319593  -0.6046554  -0.1143637  -0.3182261
  -0.0323512  -0.2061798  -0.1067465   0.5354328  -0.8529356  -0.8876495
  -0.0079249  -1.1943870   0.6986637  -0.0021727  -0.2950307  -0.0406270
  -0.1377298  -0.0133370   0.3559014  -1.1574069   0.4699995   1.4149791
   0.0435664  -0.0983005  -0.2005603  -0.9894430   0.6250312  -0.3254304
  -0.4710581   1.5093863   1.1847262  -0.0030768  -0.2264483   0.0741644
  -0.9541530   0.2811945   0.5927124  -1.2872802   0.0353144   0.5842111
   0.2381716  -0.2381097   0.0411744  -0.1430590   1.6294121  -1.0058401
   0.0103308   0.3684004   0.0003306  -0.2510850   0.0797811  -0.1532157
   1.1688924   0.3470911   1.0588742   0.5430229  -0.1895798   0.6069769
  -0.1908472   0.1032132   0.1143121   0.5219370  -0.4005765  -0.8175128
   0.9173970  -0.3118860  -1.1357960  -0.1076373   0.0061572   0.2067440
  -0.3999034  -1.2800062   1.2620235  -1.7557200  -0.3217892   0.2713525
   0.0557338   0.2332069   0.0965010   0.0778134   0.5570206  -0.4926277
   1.1176834  -0.4076414  -0.5193564  -0.0870990  -0.2973617   0.2425930
  -0.2471749   1.6920980  -0.1420262  -0.3791394  -0.0571159  -0.8768262
  -0.0804176  -0.0063908  -0.1670574  -1.5319091   0.2241536  -0.3523281
  -0.2114533  -0.2168500   1.1823223   0.1490946  -0.0815068   0.0039597
   0.3944396   0.6759840   1.5176538   0.4007742  -0.3894333   0.5037757
  -0.2187184  -0.0011115  -0.1081111   0.1717345  -0.7501542   0.3400269
   0.5121361   0.8597599  -1.0604281  -0.4778257   0.2829055   0.0425598
  -0.5711759   0.6826658  -0.3700650  -2.0205131  -0.2538918  -0.3610334
  -0.1754727  -0.1668300  -0.1261373  -0.1028079  -0.0858032   0.4265495
   0.2158695   0.1458024  -0.6447621  -0.2888776   0.1658360  -0.3319625
  -0.1267763  -0.9482985   0.4653726  -0.8773316  -0.7331547  -0.4928741
  -0.1691424  -0.0474448   0.1665283   0.2695385  -0.3750618   1.7593589
   0.9135337  -0.5735190   1.0644465  -0.1162278   0.0151493  -0.0802104
  -0.1410332  -1.1410023   1.1174367  -0.8638136   0.3771655  -0.1269464
  -0.1725093   0.0787844   0.1544587   0.4056957  -0.4430840  -1.7024170
   0.7467805  -0.8466149   0.0240702   0.0835111  -0.0713014   0.0432809
  -0.0399680   0.6087936  -0.9393094  -0.6083180   1.7580745   0.3537395
   0.4175125  -0.1164881   0.2098346  -0.1922240   0.7819408   0.3548057
  -0.2990449  -0.9764849  -0.5865339  -0.1433076   0.0032089   0.2402447
  -0.1583649  -1.1073985  -0.1366342   0.8487156   0.0312825  -0.7799922
   0.3283102   0.0707269   0.1994611  -0.6400408  -1.3801582  -0.5260173
  -0.9630620  -0.1930175   0.3931624  -0.2877005  -0.0030437   0.1327773
   0.6062904  -0.1104281   0.5473822  -0.2864902   1.0735248  -0.6428705
   0.1757933   0.1469845   0.2042089  -0.3660309  -1.6404188  -0.6572634
   0.2555713  -1.7703259  -1.5330315   0.0992681   0.0353700   0.1348764
   0.5114053   0.2337329   1.4211776   0.2262328  -1.6531744   1.4506419
   0.0956436  -0.2917755   0.2019120   2.6278574  -0.3298448   0.0632129
  -1.4037308   0.1518054  -0.6919703   0.3355231   0.0252735  -0.0196907
  -1.2051760  -0.0176459   0.3043923  -1.2943444   0.0860746   0.5017475
  -0.1466910  -0.0501002  -0.0291608  -1.2459933  -0.1519734  -0.2322447
   0.1075328  -0.4281977   1.2226984  -0.2853288  -0.4877171  -0.0209033
   0.0459615  -0.0096170  -0.1154237  -1.5347827   0.6428457  -0.0008137
  -0.1092320  -0.1740141   0.1037698   0.8872450  -0.0021924  -0.7312667
  -0.3617497  -0.2768471  -1.0456130   0.1985463   0.2255140  -0.0635053
  -0.6313400   1.0650084  -0.1587259   1.2532633  -0.0588304  -1.0184866
  -0.1127271   0.1399448   0.0876073   0.1242668   0.1582098   0.1700544
   0.4826471   0.9309387   0.5805708   0.1001524   0.3600785  -0.1634259
   0.6694451   1.1273311   0.4629456  -0.3094951   1.9103268   0.9463643
  -0.2515782   0.0515015  -0.2650854   0.6134480   0.8576859   0.8711134
  -0.6445383   0.9587156   0.4814353  -0.0094309  -0.0049790  -0.1602036
   0.0466964  -0.5130105   0.3118051   0.3714574   0.1402570  -0.2392248
  -0.1432683  -0.1478432   0.1999307  -0.7522105   1.0948537   1.1235734
  -0.5586328   0.2519805   1.1067484  -0.0538115  -0.0770578  -0.0753016
  -0.1560971  -0.3375228  -0.9113805  -1.0798675   0.3617576  -0.5545197
   0.3725833   0.0477242  -0.0999184   1.2371132  -0.9013945  -0.0807109
   0.7161001  -0.5450640  -0.7715001  -0.2213892   0.0878409  -0.1987761
  -0.2531302  -0.2439103  -1.3707238   0.5250933  -0.4637101   1.0032754
  -0.2023107   0.1712086   0.1957150   0.4873802   0.3693016  -0.4357742
   0.6940603  -0.3744072   0.3554074  -0.1912205  -0.0452789   0.1829189
   1.0540141  -0.2527457   0.7109053   0.5079587  -0.5121936   1.1125624
  -0.0117810  -0.5111180  -0.0945808   0.0604965   0.5803386  -0.8213820
  -1.4464190  -0.0298679   0.7101604  -0.0967057  -0.1325677  -0.0381636
  -0.4508051  -0.7068134   0.3181181   0.5291326   0.8138593   0.2057418
  -0.3539860   0.0560196  -0.2020816  -0.5047926   0.2221192   0.4392997
   1.1664864   0.0940580   1.5006868  -0.0180043  -0.1223632  -0.3877423
  -0.7576724   0.7480056  -0.3565637  -0.6133698   0.0855123  -0.6024186
   0.0315005   0.0919521  -0.1964937   0.9099742   0.2167781  -0.2668938
  -1.0482309   0.2361811   1.1576587   0.2405921  -0.1334614  -0.3776778
   2.1499083   0.2394270  -2.0461235  -1.0387472   0.5071383  -0.0071923
  -0.0399536  -0.2089934   0.2479642  -1.0726049  -0.7064914   0.4876445
  -0.0039677  -0.9319497   0.7866487  -0.2909911  -0.1519147   0.1678585
  -0.3200842  -0.5550214   0.0314271   0.1354246  -0.2636649  -0.5440463
   0.2442029  -0.4027495   0.1252880  -0.5138119  -0.1727970   1.5268776
  -0.0393580  -0.7531465   0.8906452  -0.0782135   0.1382382   0.1748336
  -0.6695400  -0.0386103   0.3777621  -0.0333668   0.3303589  -0.5671564
   0.4012025   0.3133535   0.2850321   0.3339457  -0.7089482   0.9763956
  -0.0227477   0.0110917   1.2202015   0.5703512  -0.3825216   0.1955119
   0.3367125   0.4356729  -0.3002040   0.9179814   0.0906110   0.8280908
   0.0457039  -0.3391487  -0.2003853  -0.4782022   0.2615020   0.3009446
  -1.3962839   1.9976920  -0.6366207  -0.2234198   0.5168606   0.1449856
   0.8579508   0.3384011  -0.6250699  -0.3245968  -0.8913131  -1.3733442
  -0.2571814  -0.1049788  -0.0161488  -0.9180471  -1.3358028  -0.7306198
  -0.4113135  -0.4002736   1.0966990  -0.0035864   0.1800454  -0.1625469
   0.7228690   1.4191553   1.2398773  -0.5457071  -0.7707430  -1.1314737
   0.0577853   0.3664138   0.0796871   0.9176901   1.2519646  -1.1459808
   0.1435270  -0.2144326   1.1943898   0.1181314  -0.4009020   0.0711949
  -1.6966337  -0.0940155   0.9731601   0.6386281  -0.1455054  -0.6785488
  -0.0562026  -0.0954767  -0.0331463   1.4357990  -1.3380343  -0.4212347
  -0.7483969   0.0795485  -0.5699325   0.0014290   0.0717976   0.0669557
   0.6313307   0.5969117  -0.1115180   0.1607460   0.3688684  -1.1403052
   0.0420898   0.1297839  -0.1150202  -0.9994960   0.4239000  -0.8686397
   0.3107534   0.8817452  -0.3111697  -0.1930209  -0.2310799  -0.1621596
  -0.3205119   0.1660233   0.8497358  -0.3363025   0.3266975  -0.3230473
   0.1283504   0.2542344   0.2930028   0.6635632   0.0860542  -0.1226273
  -0.1659593   0.4753107  -0.0290479   0.0455580  -0.1361277  -0.0988433
  -0.8023953  -0.3747121   0.7937774  -0.4843210   0.6734169   0.2897549
  -0.2960158  -0.0645203   0.1288961   1.5075457   1.1942087   1.3316277
   0.3011884   0.6614801   0.1577590  -0.0850723  -0.1766685   0.1738697
  -0.7295805  -0.0785193   0.5444768  -1.0815855  -0.4503545  -0.1500658
   0.0358169  -0.0497017  -0.3845832  -1.5116601   0.3027401   0.0992982
  -0.7409509   1.5972641   0.6750845  -0.3398538  -0.0694443   0.0997423
   0.7788627   0.4103817   0.1878531   0.1484686   1.4630091   1.4795755
  -0.1961951   0.1792446   0.0684883   0.2794475   0.0251868   0.2031921
   0.0373841   0.2372472   0.0164449  -0.2995759   0.1072485  -0.1346878
   0.8372641   0.0006852   0.8804706   1.3832677   0.8821546  -0.6190501
   0.1186277  -0.4716473  -0.0852479   0.7756275  -2.2374184   0.4715120
  -0.1482721   0.0906870  -1.6821574  -0.0494062  -0.0993365  -0.0366692
  -1.1652065  -0.4351039  -0.2282660  -0.6509678   0.4901481   0.2256521
  -0.1296681   0.2007611   0.0050531  -1.0136737  -1.1810851   0.1427536
  -0.0430216   0.3970682  -0.4412733  -0.2421978   0.1380690   0.1524890
   0.3426307   0.1369244  -0.1136112   0.3008570  -0.5952418   0.2372199
   0.3808409  -0.3045457   0.3086634   0.8661403   0.2169216  -1.0155975
  -0.3124726   1.1321665   0.7291761   0.1109482   0.4043715  -0.1089621
  -0.9840592  -0.2996665   0.9035049   0.2066221  -0.5243287   1.0668959
  -0.3378006  -0.1996697   0.2267204   1.8231952   0.5688636  -0.1076536
   0.3109076  -0.8167504  -0.0329242  -0.1696539   0.1843717   0.1368219
  -1.2018945  -0.0325411  -1.3791456   0.0136815  -1.1668486  -0.4152232
   0.1115785   0.4916419  -0.0108987  -0.0238091   0.8063688   0.6774072
   0.8724369  -0.1592748   0.0504206   0.2311800   0.1479614   0.0569375
  -0.0611288  -0.8612296  -0.6500241  -0.9204976   1.0592196   1.2776038
  -0.1558224  -0.0772308  -0.1462405   0.0042177  -0.3208564   0.5922224
  -0.7496895   0.1398852   0.5360978   0.0392240   0.0348124  -0.3675921
   0.7742542  -0.9545733   0.3404316  -0.7127755  -0.2077919  -0.3442215
   0.1895103  -0.1264778   0.3393754   1.1634815   0.0156386   0.2560406
  -0.2207722  -0.6014432   0.4013006   0.1164479  -0.0551387   0.1724869
   2.1374563   0.4098706  -1.7269429   1.0848903  -0.4276649  -0.1953787
   0.0865441  -0.1237255  -0.0748417  -0.4130719  -0.3038666  -0.2994519
   0.6554375   0.7886484  -0.4042690   0.0970720   0.0593294  -0.1512304
  -0.0874165  -0.7081675  -0.5239083   0.0842142  -0.4537914   0.4987814
   0.1268726  -0.0541242   0.1811378  -0.8449323   1.0780760  -1.4566865
   0.8353130   0.1336646  -0.1721953  -0.0144353  -0.0369737   0.1117413
  -0.9947445  -0.3790497   0.2880318  -0.3009224   0.5772439  -1.0012740
  -0.1466364   0.4377661  -0.2026913  -0.6220398   0.7488754  -0.6727918
   0.7469542  -0.4829116   0.8788188  -0.1598368   0.1589922  -0.1399709
   0.1816800   0.4813342   0.8672442   0.9024167  -0.4805460  -0.9432946
   0.1740373  -0.2397437  -0.1515953   0.1049376  -0.1490943   0.9137712
  -0.0270760   0.9652830  -0.1925403   0.4199751   0.0154746   0.0824178
  -1.2677252   0.5914358   0.7740216   0.9014546  -0.7227237  -1.1519845
  -0.2171306   0.0558508   0.0869104  -0.4344354   0.1400738   0.7212809
   0.3844024  -0.6015519  -0.4610963   0.1674934  -0.1263262  -0.0219993
  -0.2371456  -0.2434290  -0.7232895   0.9500129   0.2753776  -0.1110731
  -0.0083201   0.1107028   0.1454414   0.1644193   1.1199913  -0.6616840
   1.2692849  -0.1594964   0.2355019   0.2518765  -0.2921480  -0.2281266
  -0.0849705  -0.7418572   0.0786099  -1.0910220   1.5673614  -0.2576877
  -0.2047857   0.3793865  -0.2999352  -0.1370514   0.3604911  -0.1979545
   0.7634198  -1.6485524   0.6196261   0.1485025  -0.1589261   0.1953217
   0.5858140   0.1443408   0.1388812   0.3592711  -0.3298194  -0.8930402
  -0.2676605  -0.0018134   0.0973180  -1.5700072   1.0767064   1.9236684
   0.2453933   0.2592039  -0.6706221  -0.0633135  -0.4619050  -0.2590515
  -0.2788288  -0.2295654  -1.0793493   0.3965347   0.9146001   0.9919745
   0.0231231   0.0493056   0.0126919  -0.3517686  -1.5808695  -0.2132904
   0.6073863   0.9114968  -0.0758757  -0.2440321   0.1962841  -0.1112421
   0.3426755  -1.1679410   0.0681023  -0.8471247   0.3402247   1.6102190
   0.0510816  -0.6019916   0.3215482   1.7300852   0.7992361   0.9727307
  -0.2041557   0.2496597  -0.5720508  -0.1609607   0.0490940  -0.1686496
   1.1427233   0.8055764   1.6674708  -1.2618529  -0.0390515   0.1569694
  -0.1945814   0.1420962  -0.0997580  -1.0663188   0.9966227  -0.0695261
  -0.8990410  -0.4467189  -0.6146781   0.1407625   0.1010822   0.0417349
   0.8988901  -0.0582042   1.5718743  -0.4480768   0.4230546  -1.5481971
  -0.0829746   0.1263335  -0.0738165  -0.4009578  -0.2957348   0.1681073
   0.1063594   0.4623024   0.0171734   0.2877148  -0.1251317  -0.0772151
   1.1589355  -0.4301038  -0.0710974   0.8038443  -0.0368100   0.4774556
  -0.3949244   0.1009400   0.0603563   0.6120065  -0.3734697   0.6189076
   0.3121059  -0.3116974  -1.2051470  -0.1030409  -0.5007972   0.2956871
   0.7265956   1.1092309  -0.6488256  -0.4566808  -0.2765075  -0.0496210
   0.0207714  -0.0301705   0.2326433   0.2257995   2.0562385  -0.0164303
   0.4410426  -1.3595357   0.2701539   0.2150200   0.2266930  -0.1742204
  -0.1888853   0.3882566  -1.0682976  -0.1891991   0.1809762   0.5611632
  -0.0633853  -0.1616495  -0.1346511  -0.5659295  -1.4693448   0.1563419
   0.0901048  -0.3650996  -0.2066506  -0.1190990   0.1362018  -0.2771541
  -0.2761012   0.5736058   0.8396268   0.7216332  -0.0154591  -0.0303672
   0.0731720  -0.0741309   0.4787134   0.0544485   0.7160167   2.1133378
  -0.7833026  -0.6388897   0.0824907   0.3686946  -0.1724246   0.0622792
  -0.6685950   0.2887154  -0.1638214   1.0105905   0.0215512  -0.2586580
  -0.1677528   0.1167104   0.0498652  -1.2985100   0.2693999   0.8714758
  -0.0274864  -0.6392164   0.4104412   0.0789686  -0.2779625   0.0073241
  -0.0378634  -0.9899865  -0.5316376  -0.2071644   1.4114267   0.5285607
  -0.0996063   0.0350713  -0.0294095  -0.4613861   1.1219545  -1.2990809
  -0.3479388  -0.1494057   0.2644487   0.1719915  -0.1910963  -0.0299711
   0.2228413  -0.4078547   0.1889842  -0.4519743   0.8114524   1.5772452
  -0.1206051  -0.0125185  -0.1479496  -0.1968762  -1.0681788   0.5154349
   0.5120424   0.1878240   0.3594857  -0.0616455  -0.0790790   0.1453152
   0.3660248  -0.3466798  -1.0224167   0.2018895   0.5298777   0.0970396
   0.0465265   0.1876198   0.0118053  -0.1102267   0.7934454   0.1337810
   0.1406719   0.2326600   0.7943051   0.1254871   0.0797195  -0.1767626
   1.1352318   0.1352883  -1.1263412  -1.2006990  -0.6905296  -0.3194884
  -0.0192717  -0.1823422  -0.1989318  -0.5321062   1.2693798   0.4645691
   0.4080999  -1.1218705  -0.3089345  -0.0983346   0.0025022   0.3326181
   0.9692761  -0.3042382  -0.4348780   0.3141463  -0.0329061   0.6824954
  -0.0016563  -0.0756378  -0.2947607   0.3883963   0.6742986   0.2415458
   0.5401283   0.5916941  -0.8770356  -0.2468977   0.1694716  -0.0875573
   0.0848189   0.1746798   0.0310313   1.5507674   0.4818438  -0.6843504
   0.5059918   0.1126309   0.0806855   0.3161024  -0.1712786  -0.7893020
   1.5657246  -0.6928880  -0.0310772  -0.1147750  -0.3182060  -0.3562951
  -1.0609586   0.0705492   0.8326928  -1.0930702  -0.1362239  -0.5913748
   0.0941844  -0.2164227  -0.0894413  -0.6286009   1.4075594  -0.1491009
  -0.5232849  -1.3831724  -0.3445958   0.1167701   0.2757891   0.0986024
  -0.1059220   0.2395432   0.1338116  -2.1679937   0.1112056   0.8390935
  -0.0971479   0.0538213  -0.0835140  -0.1441888   0.8449742   0.6905929
  -0.5824219   0.1082620   0.4860116  -0.2489360  -0.0164528   0.0393349
  -0.6274897  -0.5513035   0.1146821   0.9937697  -0.4222905   0.3933211
   0.0760288   0.1029177  -0.1564917  -0.1908223   0.3618483   0.8084129
   0.4545070   0.0814961   0.2310264   0.0494858   0.0373067  -0.1757884
  -0.7361246   0.2697958   1.2396254   1.6385228  -0.0976800  -0.0487838
   0.0341630   0.2359654  -0.4056243   1.1624337   0.0697499  -0.2926461
  -0.3802686  -0.3413044   0.6165654  -0.3427687  -0.2581215   0.0435322
  -1.0027910  -0.1071759  -0.5762196  -0.3734403  -0.9958268  -0.2462657
   0.2133577   0.0074693  -0.1919070  -0.7488275   0.6578456  -0.5922636
  -0.3917210   1.5315877  -0.3040916  -0.0460646  -0.2582192   0.2917511
   0.2076784  -0.6776555   1.3195087   0.2737781  -0.1824016  -0.8774554
  -0.1220546  -0.1607338   0.0445735   0.5357788   0.7228006  -1.6689773
   0.3053301  -0.5810109   0.9347618   0.2200938   0.0646177   0.0729352
   0.9001475  -0.7500852   0.5671833  -0.1480567  -0.0409190   0.6941839
   0.1547394  -0.0472279  -0.1789618   1.3948035   0.4911723  -0.0958500
  -0.3314940  -0.6780472   0.9852482   0.0399157   0.0001064  -0.0795312
   0.8701704  -0.0820817   0.3013966   0.3360052   1.6344364  -0.1333021
  -0.1754008   0.2623764   0.0097806   0.0127238   0.4838545  -0.0831956
  -1.2957554  -0.6197228   1.0708502   0.0792897   0.0767982   0.1367042
  -0.5113403  -0.8325110  -0.0276464  -0.4052105   0.8604070  -1.1810879
   0.2021747  -0.4765945  -0.2000001  -0.4049150   0.9921950   0.6403102
   0.1768225  -0.3530587  -0.6761280  -0.2124619  -0.0688455   0.1582227
   1.2540715  -0.5860335   0.5492955  -1.6473454  -0.9724601  -1.2454416
   0.1080309  -0.1815576  -0.0200253   0.2377431   1.7665456   0.2804538
  -0.2735611  -1.2413669   1.2655376   0.0986920   0.2264727   0.2585718
  -0.5233932   0.2024446   1.2379538  -1.0143026  -0.4292254   1.1559720
   0.0445921  -0.3483339  -0.1305451   0.7586034  -0.9118590  -0.8858469
   0.7928855  -0.8156726   0.0484422   0.1401695   0.1736905  -0.1514481
   0.8448866  -0.2342158  -0.3210206  -0.8838746   0.4769030  -0.3842767
   0.0328348  -0.1036684  -0.1595354  -0.8713451   0.6600188   1.3191469
  -0.3622207  -1.3105482   0.3972457   0.0064973  -0.1202278  -0.0026672
  -0.3440844  -0.1261021  -0.5202480  -0.9380101   0.3929327  -0.3001751
   0.3502965   0.2343373  -0.0491660  -0.6910940   0.9779394  -0.4020512
  -0.4535003  -0.2517958  -0.1179584  -0.2392875  -0.0481134  -0.1594605
   1.6068320   0.5879464  -0.8050228   0.7239563  -0.6340142   0.7251178
   0.1580710  -0.0218765   0.0580323   0.0178366   0.2436714   0.8449174
  -1.1426162  -0.8010653  -0.8305033  -0.0290953   0.0119052  -0.0934748
  -0.6661171   0.2842618   0.5393843  -0.2760827  -1.2186651  -0.6823567
  -0.0111290  -0.1571899  -0.1268652  -0.4881566  -0.3561389  -0.7731926
   1.9214557  -0.0171967  -0.2914757   0.0149632   0.0161280  -0.2185643
  -0.4447278  -0.6616711  -0.1018706   1.4192577   0.5825992  -1.0758999
  -0.0573681   0.0075627  -0.0238816  -0.6926718   0.6314947   0.7118887
  -0.3168253  -1.3104522   0.3374371   0.2518865   0.0213476   0.2762391
   0.4237271  -0.7102048  -0.5870320  -0.1313918  -0.1307922  -0.0739634
  -0.3786038  -0.2170562  -0.0124183  -0.1144603  -0.3236599  -0.0942578
   0.2773398   0.1910691   0.1063267   0.2586062   0.0735913  -0.0450386
   1.3612926   0.8173278  -0.2054475   0.2490562  -0.7683984  -0.6553132
  -0.0659625   0.1449568   0.1151563  -0.1395920  -0.5346895   0.1782271
  -0.8343803  -0.1455782   0.1589314  -0.1099708   0.1705124   0.1738802
  -1.1185422   1.7743645  -1.3118408   0.1276892   0.4002038  -0.1788767
   0.3137122  -0.1109340   0.0803238   1.8291678   0.1577589   1.0663004
   0.3399200   1.4748247  -0.1108150   0.2381456   0.1896156  -0.0620767
   0.9914362   0.1741070  -1.3019492  -0.1300014   0.7000965   0.8268733
  -0.0879714   0.1191660   0.0431604  -0.1697309  -0.8345619   0.1865694
  -0.6968512   0.3458247  -1.8512193   0.0304296   0.0965696  -0.0764264
   0.1267778   0.3000246   1.6970692   0.3037920   0.9108351  -0.4696624
  -0.1983765  -0.2937432   0.4617205  -1.0460997   0.2941108   0.7522113
  -1.4205725  -1.0911931  -0.0838247   0.4370102   0.1686364   0.0539150
   0.9351506  -0.1570792   1.2648836  -1.5815182  -1.8614424  -0.1688745
  -0.1639552   0.2160561  -0.0369653  -0.0795994   1.3015370   0.4931892
  -0.8557153  -0.0297537   0.0073197  -0.0800564  -0.1832189   0.0588213
   0.4741403  -0.7683390   0.9016425  -0.0099899  -0.1858302  -0.2017931
  -0.2920426   0.0595925   0.2195296   0.2934745  -0.3314570  -0.2618302
  -1.1476316   1.1295841   0.5506151   0.3363879  -0.0136550   0.0014121
   0.8929769   0.7891755   0.9058753  -1.7150040  -0.7379743  -0.7529185
   0.1519073   0.1484600  -0.0065570   0.8193004  -1.4245380   1.9761167
  -0.7186106   1.0108537   0.5929431  -0.1922990   0.0938824  -0.1198636
   0.4904087   0.8412247   0.9085406   0.5720150  -0.8193189  -0.8576383
   0.1134845   0.0102664  -0.1459154   0.3787416   1.2909955   0.6025909
   0.2182998  -0.4421318  -0.3458501   0.1554323   0.0312079   0.0182849
  -0.3844928  -0.6046343   1.2904406  -0.5182787  -1.0291305  -0.3872928
  -0.0017544  -0.2199721   0.0101343  -0.1534576  -0.0030027  -0.4170709
  -0.3939949   1.0374669  -1.1237156   0.2031675  -0.1065951  -0.0809530
   2.7691803  -0.2310487  -0.7386972  -0.6890103  -0.4682660  -0.7362283
  -0.0439726  -0.0487923   0.3539245   0.4081277  -0.3368747  -0.5109261
  -0.4314028   0.8352536  -0.4524983  -0.0280532   0.6840871   0.0693204
   1.0520849   0.2124772  -0.0257268  -1.9137475  -0.4679599  -0.6968464
   0.0625027   0.1968848  -0.1546192   1.9051822  -1.4535097  -0.2607025
  -1.2195211   0.3177034   0.3751120  -0.2382892   0.1077767   0.0682332
  -0.8747279   0.7202934  -0.6157036  -0.9401680   1.0183911   0.3348404
   0.1304501   0.3159612   0.1500446  -0.1569972  -0.3334430  -1.3368382
  -0.2086081  -0.0910396  -0.1803148   0.2126581  -0.0174135  -0.3442505
   0.0961634  -0.8450516   0.3778309  -0.5947479  -1.3976744   0.1897544
   0.4489604   0.0358194  -0.2580607   1.0917177  -0.3904998   0.0671123
   0.5866740  -0.9099761   0.2816004   0.0427912   0.0072854   0.1187654
  -0.2986398   0.2227899   0.1768688   0.2194470  -0.1430522  -0.2399365
   0.1245260   0.1213045  -0.0213711   0.0213812  -0.5979935   0.9421577
   0.7223067  -0.3537874   1.1288683  -0.2406145  -0.1414571  -0.4366110
  -0.2586073  -0.3097620  -0.9493580   0.2508027   0.7076671   0.4083090
   0.0693231   0.0296329   0.1944775   0.0158799  -0.4572058   0.2568089
  -0.8734428   0.3762459   1.2065604  -0.3187053  -0.0526572  -0.1747863
  -1.9598917  -0.3311010   0.8289356  -0.6329160  -0.0987350  -0.3384163
   0.1695881  -0.2460027  -0.2164541   0.7520793  -1.7065711   0.0104134
  -0.2129641  -0.4336929  -0.4782339  -0.0911095   0.0841800  -0.0301355
   0.9742374  -0.5130871   0.8292586   0.1809224  -0.3738163   0.5935641
   0.1906569   0.0606520  -0.1097245   0.0557654   0.0725157  -0.3186700
   0.9487112  -0.2501425   0.4447397   0.1239693  -0.0386141  -0.0503560
   0.2618753  -0.3098916  -0.6672023   0.2090801  -0.9047125  -0.1386198
  -0.0725809  -0.1286250   0.1077158   1.9943432   0.2474362  -0.3713949
  -0.6893066  -0.8746696   0.7514571  -0.0361105  -0.1521402   0.0019403
   0.5224702   0.1510315   0.3891396  -0.6360449   0.8082668   0.5101015
   0.0383286  -0.3589502  -0.3063317  -1.0891672   0.1747332   0.0422360
  -0.0539282  -0.0252104  -0.2697885   0.3677896  -0.1337837   0.0409097
  -1.2082805  -0.2918362  -1.5085826   1.2760174   0.9675817  -0.1022196
   0.0707546   0.0813581   0.1977966  -1.0467507   0.6049211   0.4697261
  -0.1349060  -0.0764321   0.2997175  -0.0654394  -0.1450155  -0.1170493
   0.1533239   0.7540515  -1.3655214   0.8454631   0.0795156  -0.6730450
   0.1378224  -0.0651060  -0.1229392  -0.8185185  -0.0803444  -0.3586809
   0.5000580  -0.1068810   0.4409861  -0.2233323  -0.0487681   0.1199334
  -0.5037291  -0.0586913   0.9492503   0.6378375  -1.8014246  -0.8263867
  -0.0761059  -0.0149024  -0.1130723  -0.3590878  -0.6436218   0.8490722
   0.6372731  -0.9552912   1.3521794  -0.0034298   0.0106229  -0.2020223
   0.6460705   0.0312156   0.6669040   1.0988045   0.4589975   1.5350316
   0.0869995  -0.0731615  -0.1124811   0.3241874  -0.9850131  -0.9124089
   0.0013520  -0.7067161  -0.5697613  -0.0134646   0.2053918   0.0112352
  -0.5765072  -0.0510872  -0.4305191  -0.3161469  -1.4707836   0.3819435
  -0.1170504  -0.1228020   0.0786061   0.6200347  -0.5600222  -1.5965529
  -0.0019328  -0.0214175   0.8990218  -0.1383456  -0.3422276  -0.0067905
   1.0719244  -0.5560353  -0.2373721  -0.0307285   0.1367239  -0.0500092
  -0.1821067   0.0761816  -0.1227377   0.9036358  -0.2468822   0.4643776
   0.5654697   0.0714193   0.2981027   0.0065102  -0.0334775   0.0928250
   1.1309163  -0.4199870  -0.2471141   0.2135115   0.1719157  -0.2820619
  -0.2220500   0.0514627  -0.0628492  -0.9013759   0.5374482   0.9973356
  -0.1826763   1.2138883  -0.1349833   0.0693070  -0.2130455   0.1121828
  -0.5845405   0.7110913  -0.9665959  -0.7954576   1.0475829  -0.4555226
  -0.1970537   0.0802212   0.0413912  -0.6768075   0.4340240  -0.6200220
  -0.0579222  -0.3996517  -0.4577594  -0.0663732   0.4956810   0.1069392
   0.5363686   0.3372285  -0.2034222  -0.3782831   0.0156194   0.1650516
   0.2099184   0.4390565   0.1946252   0.5089427   1.2004038   0.3703613
  -0.8355883   0.3874317  -1.5297130   0.2265018  -0.0798911   0.3130675
   0.8518480   1.3342681  -0.5899516   0.9908752  -1.1732729  -0.6149844
  -0.0383920  -0.1274840  -0.3197462  -0.1706013   1.6042296  -0.8323787
   0.5727306   0.3977692   0.0913666  -0.2318569  -0.0792381  -0.0862029
   0.4437064  -0.6713060   0.3036177   1.0156527  -0.2088999  -0.1392212
  -0.0948147  -0.5166560   0.2599645   0.2188656  -0.5103380  -0.1360606
   0.2836711   0.6820850  -0.1472629  -0.4436857   0.1086839   0.5794333
   0.2146663   0.0619935   1.0401193  -0.3629279   1.7820633  -0.5561823
  -0.1654958   0.0982722   0.1213846  -0.0279480  -0.3359223  -0.5218134
   0.8364084   1.1730590   0.6625221  -0.0172217   0.0116121   0.0415950
  -0.3517290   1.8218852  -0.3566649  -0.5455068   1.0311908   0.1926075
  -0.1684256   0.1761078   0.0077079  -0.2708257  -0.2831419   0.2775894
  -0.5463821   0.1476090  -2.5395583   0.0049608   0.3563704   0.0157046
   0.7372334   0.5388289  -0.6849302  -0.3178309   0.0726307   0.8101206
   0.0696209   0.2713680  -0.0694564  -1.1493449  -0.6768684   0.8619948
   0.9072537  -1.1390418   0.6958044  -0.2046501   0.0039265  -0.3468237
  -0.9113759  -1.3373283   0.6423011   0.9901317  -0.6456092   0.2338333
   0.3292443  -0.3718584  -0.1628522  -0.5187908  -0.5320781  -1.5269174
  -0.3673964   1.0839692  -0.8198506   0.3679917  -0.0076540   0.2446971
   1.4596415   0.3428337   1.0362216  -0.0106651   0.4978336   1.2944318
   0.1296122  -0.0861377   0.0179980   0.1192603   0.1253037  -0.1936211
  -0.5266349  -0.0430087  -0.2857461   0.0166759  -0.2234641   0.2156574
   0.7462508   0.2646224  -0.0837086   0.1130215   0.5921772   0.6016812
  -0.0699523   0.0998000   0.1046172   1.3323119  -1.1429874   0.0440139
   1.4758402   0.1129512  -0.3108288  -0.1530007  -0.0921323  -0.2512046
  -0.2650774   1.9957098  -0.3364421   0.7731203   0.6906363  -0.3320738
   0.1414320  -0.2643260  -0.1792785  -0.9381530   0.9721141   0.5422515
  -0.5304343  -0.1114047   0.0644547   0.0309653   0.1786525   0.1279030
  -0.7740294  -1.4344093  -0.9283415   1.9718304   0.7187036  -1.1558047
   0.0350443   0.0464214   0.1244180   0.3381209  -1.1442746  -0.0394570
  -0.8122113   0.1310933  -0.5306990   0.1127744   0.2182898   0.0309610
  -0.6644655   0.4825668  -0.0147659  -1.1222771  -0.0049839  -0.0502555
   0.1155638   0.0614926  -0.4069470  -1.0687246  -0.1082029   2.0989304
   0.1322292  -0.1654966  -0.9253245   0.1173253   0.0423258  -0.2197719
  -0.2311718   0.8347238   0.1106650  -0.2418118   0.4312566  -0.1879926
   0.0228290  -0.0257395   0.2330886   0.6383097   0.0912136  -1.0925893
   0.3788145   0.7124450  -0.6870443  -0.0339070  -0.2562450  -0.1600569
  -0.7796686   0.1860097  -0.5020319   0.3863622   0.8215265   0.1410333
  -0.1364027  -0.0865172   0.0083613  -0.0509647   0.4377837   0.1976525
  -0.0225914  -1.7314185   1.6547710  -0.1254640   0.2061155   0.1569172
   0.2352238   1.0602041   0.3728561   0.1054259  -0.5768893  -0.4078611
  -0.0509012  -0.2263902   0.0965050  -0.3322621   0.4185207  -0.7621835
   0.0715880  -0.6399374  -0.4517383   0.0425943  -0.0159845   0.3011788
   1.4604380   1.3784585   0.0107006  -0.8439603  -1.0720632   0.3188067
  -0.1396089   0.1859358   0.1490841   0.3201295  -1.0997135   0.1273694
   0.7128477  -0.0714029  -0.4616258  -0.2214760  -0.2090672  -0.1855753
  -0.4057881  -0.1246958  -0.5020030   0.9274929  -0.0997990   0.3458161
  -0.1583363  -0.1351168  -0.0667926  -0.2138050  -0.6425224  -0.2677152
  -0.2330057   0.7320066  -0.4831169  -0.2845522  -0.1938062  -0.1513678
  -0.4840253  -1.3031918  -0.0719996  -0.3001708  -1.1938626  -0.4385071
   0.2151810  -0.1343777  -0.1169208   0.0054132  -1.4678377  -0.9062519
   0.2538661  -0.7680255   0.7754691   0.2579485  -0.0307892  -0.0845526
   0.7842757  -0.6762401  -0.7865450  -0.0927850   0.0422570   0.1365265
  -0.1974424  -0.0434006   0.0385579  -0.2381330  -0.8267826  -0.7467779
   1.4380010   0.7880441   0.8367653  -0.1032976  -0.0149387   0.1667259
  -0.0891633   0.3951461   0.6132536  -0.8739589   0.2552076  -0.7273546
   0.2593570   0.0543045  -0.0911879  -0.0003465   0.5893609  -0.3654624
  -0.3679113   0.4057605  -1.2254863   0.2889403  -0.2565007   0.1719582
   0.5087982  -0.7803861  -0.9663228   0.4864008  -1.1749165  -0.2218602
  -0.3377631  -0.3081623   0.1491373   0.3653134   0.5443061  -1.2366367
  -0.3145153  -0.7593889  -1.7524983   0.1914716   0.3464311  -0.0815969
   0.0174026  -0.1754890  -1.0831293   0.1406930   0.3608631  -0.7694537
   0.0974899   0.1657546  -0.2556965   0.7866168  -1.3400138  -0.6825813
   0.0839325  -1.3640906   0.6534448  -0.0627550   0.2016667   0.2020025
  -0.8051521  -1.2901092  -1.3391414   1.0376448  -0.3563168  -0.0174596
  -0.2869370  -0.1970531  -0.0520342  -0.1686300  -0.3724680   0.8134125
   1.2124319  -1.5625380   0.1843527   0.2567090  -0.0197755  -0.1343640
   0.1896924   0.8078673  -0.6511496  -0.1414013   0.6362213  -0.5895998
   0.0216181   0.1159666  -0.2516775  -0.7475898  -0.0256855  -0.3511188
   1.4489696  -0.3753949  -0.7723179  -0.0212703  -0.3175047   0.0886595
  -0.8164581  -0.8388286  -0.2123603  -0.0230333  -0.5402942  -0.1877339
   0.2894476   0.0834552  -0.2442219   1.1624336  -0.4902980   0.0623511
   0.1240817   0.3600233  -0.4431812   0.2860056  -0.1122592  -0.3267496
  -0.5787489  -0.3944690  -0.4751740  -0.2521679   1.0732940  -0.5201856
   0.2279057  -0.1893537   0.1042379   0.9335581  -0.5174671   0.4246424
  -0.9721505  -0.2714570   0.2723257   0.3905070   0.2028757   0.0909235
   0.3325451  -0.4217718  -0.8085827   0.0764931  -0.3594534  -0.5707443
  -0.1009112   0.1262101  -0.4294350   1.4863826  -0.9393091   0.1708545
   0.4539482  -1.2856599   0.1807721   0.3064874   0.0858096   0.0839063
   0.4917233  -0.7224038  -0.3381549   0.5966610   0.2686005   0.3864270
   0.2129945   0.2373659  -0.3707990  -0.2531723   0.3312478   1.4778330
   0.1188798   0.0477497   0.4470925   0.0075465   0.0258127   0.1707183
  -0.5158604   0.5087659  -0.6509009  -0.6752904  -1.5448244   1.0721779
  -0.0107100  -0.1979706   0.0185608   0.8916733  -0.6131195   0.3893777
  -0.9310231   0.6424356   1.5831969   0.2835569   0.0523391   0.1556163
  -0.2109181  -1.0377367  -1.8983341  -0.0962718   0.3558240   0.0396750
   0.2235752   0.1764718  -0.0275751   1.0413279  -0.7067078   1.6722146
  -0.7310885   1.0636534   0.9477969   0.2057671   0.2233539  -0.0738957
  -0.4197850   0.9401377  -1.0091800  -0.2955638  -0.6590638   0.0718114
   0.2068767  -0.0554540   0.0919750  -0.7639803   0.1645853   1.6379690
  -0.2826535  -1.6765766   0.5248380  -0.3765029   0.0709304   0.2349470
  -0.9270906   0.4876876  -0.8188901  -0.4428342  -0.8851823  -0.0826717
   0.1162610  -0.0737857   0.0560429  -0.3084889  -0.1572363  -0.0961885
   0.2554506  -0.6148145   0.8043167  -0.3727389  -0.1195122  -0.0127730
   0.3045575   0.6215043  -0.7929055  -0.8068568  -0.3156151  -0.5117864
   0.1907248   0.2756567   0.1187681  -0.3037982  -0.0150824  -1.0271165
   0.0167332  -0.1614673   0.7135986  -0.2659771  -0.1766991  -0.2795419
  -0.8986376  -0.3694366   0.0349036  -0.3900953  -1.7480205   1.1918428
  -0.0379959  -0.0925929   0.2317466  -0.3730707  -0.2824343  -0.4320071
  -0.2777827   0.1186161  -1.0461854   0.4260342   0.0458811  -0.0427100
   0.3725479   1.4763207  -0.0652793   0.5661666   0.4002582  -0.1781095
  -0.0410408  -0.0672101  -0.0731911  -1.0534080  -0.4200360   0.7157009
   0.1016803   0.1434466  -0.7902511   0.0714947   0.1670303  -0.2305160
   0.4901062  -0.6559333   0.4523430   0.9625813   1.5775987   0.8588747
   0.2461783  -0.1222970   0.0206551   1.1614418   0.1051928  -0.6158490
  -0.5507933   0.1370623   1.3659663  -0.0550555  -0.2668971  -0.2669873
   0.8261321  -0.8410778  -0.4422463   0.2317952  -0.4657290   0.7648267
  -0.1592492  -0.1306914   0.0276515  -0.2457042   0.7831769   0.7841524
   1.4101365   0.6405998   0.9213588   0.4049344  -0.3586094  -0.0602742
  -0.1160433  -0.3888571  -0.6442249   0.0938880   0.5418994  -0.0564721
  -0.1504076  -0.1528036   0.0025581   0.6615293   1.4348247  -0.1723133
   0.6639366  -0.5378135   0.1035901   0.2130515  -0.1198554   0.1668142
  -0.6902746  -0.5190068  -0.6242862   0.5395721  -0.5289515  -0.6334444
  -0.1044432   0.0839576  -0.3291688   0.8960849  -1.1033945  -0.2736771
  -0.3465524   0.6307490   0.5106712   0.4562383  -0.0530818   0.1746692
   0.0944170  -0.0415381   0.4049707  -1.4107300  -1.5386744  -0.1453380
  -0.0436762   0.1348610   0.1754186   0.2208835  -1.1207068  -0.1650568
   0.6032331   0.7452893  -0.8027890  -0.1804539  -0.1707394   0.0471387
   0.9922560   0.1771298  -0.2119350   0.1030058   0.5107375  -0.1206975
  -0.1488452  -0.0630621  -0.0569073   0.8004869  -0.7328594  -0.2516916
  -0.3140812   0.6432101   0.7184754  -0.0940783  -0.3028213   0.0246427
   0.0864836  -0.1965731   0.3679801  -0.6984586  -0.7179622   0.4842272
  -0.2648527   0.1344183   0.0755780   0.1529841   0.1726196   0.5271520
  -0.0371964  -0.6076028  -0.1004128  -0.2955576   0.0363514  -0.1651465
  -0.5984031  -0.0590251   0.0120733   1.7355919   0.5503369   0.0806421
  -0.0696226   0.1822216   0.1282375  -0.0884768   1.0258740   0.4880104
   0.1931627  -0.2366349   0.5116377   0.2577223  -0.0667196  -0.0021074
  -0.3532946   0.2213882  -0.7291795  -1.0987095  -1.7539670  -0.0506277
   0.0126022  -0.0248296   0.0339658   1.3491837   1.3812125   0.1607372
  -0.0706581  -0.1346542  -0.5739139   0.1218683  -0.3536263   0.3708068
   0.5061015   0.9077630   1.2369566  -0.1346158  -0.6109579   0.3423919
   0.1473817   0.1100127   0.3316437   0.1458614   0.6220973  -0.4457925
   0.8986207   0.4891151   0.8465455   0.4155304  -0.2905246  -0.1070310
  -0.2130671  -0.5901092  -1.2890973  -1.0309363  -0.3174856  -0.2123382
   0.0880607   0.1564051   0.2239315   0.1123177  -0.4667153  -0.4971675
   0.3987748  -0.0151141   0.4928528   0.1413627  -0.2615037  -0.0224096
   0.0581821   1.0266739   0.1808735   0.1465647  -0.4134493  -0.7096836
  -0.2662629   0.1673422  -0.0033046   1.6010101  -0.2422204  -0.4039515
   0.7420142   1.1939156  -0.0745640  -0.2271219  -0.1969603  -0.0740543
  -1.0644377   1.2988332  -0.7589083   0.1837510   1.2768649   0.2350834
   0.0680296  -0.1281164  -0.1232162   0.2300342  -0.1938134   0.5427410
  -0.9007314  -1.6051070  -0.3024954   0.0321411  -0.1260973   0.2412999
  -1.0128335  -0.0739537   0.9390871   0.9286996  -0.4252572  -0.2472873
  -0.1057360  -0.0582639  -0.1042313  -0.2762216  -0.5219946   0.2279364
   0.3348008   0.4119985  -0.6384906  -0.1812322  -0.2783836  -0.0013002
  -0.8744624   1.0871517   0.8422826   0.0389206  -1.5160304   0.8813441
  -0.2083491  -0.0349896  -0.2971929   0.4897062   0.3040284  -0.9486595
  -0.5668293  -0.6970723  -1.0843362   0.0294244   0.1815700   0.2347111
  -0.4970576  -0.7321690  -0.9605167   0.1521234  -1.1925166  -0.4431669
   0.0052592  -0.2247206   0.2813760   0.2934757  -0.5223389  -2.3395580
   0.0462508  -0.9108421   0.3232655  -0.1676008   0.2284435   0.1424754
   0.0944487  -1.0013621  -0.3667748   0.2828302  -0.4322077   0.9605158
  -0.0642121   0.0329574   0.0347041   0.1229880   0.5253732  -1.0881151
  -0.7689456   0.7865665   1.2799802   0.0453018  -0.3972150  -0.0975977
   0.0563076  -0.8010720  -0.1538647  -0.1183103   0.0095740  -0.5407714
  -0.2059442   0.1019508  -0.3885526  -0.6423435   0.3817397  -0.1954769
   0.4798855   1.0537600  -0.3457876   0.0933497  -0.0019085   0.0491701
  -0.5005086   0.1785647  -1.4031519   0.8429973  -0.7682137   0.2853092
   0.0733583   0.1267559   0.0501749  -0.6071149  -0.6054335  -0.7182544
   0.2655202   1.5782730  -0.7449246  -0.2529944   0.1312346   0.2120944
  -0.8948067   0.8999859   0.3040086  -0.1551734  -0.1453502   0.8755015
  -0.0992106   0.0621023   0.0836326   0.5924232   0.0297634   1.2873166
  -1.0362303  -0.6061527   0.0161766   0.1877316  -0.0940633   0.0156285
   0.3434863   0.6433169   1.6249966   0.7216673   0.7871036   0.8109023
   0.0441698   0.0176578  -0.0253820   1.1665636  -1.0189344  -0.5349060
   0.3428468  -0.8527776   0.5235688   0.1574441   0.3731849  -0.0980512
   1.7414152   0.0520082   0.8389429  -1.2440170   1.1867053  -0.8662247
   0.2462146  -0.0826593  -0.2106118   0.5577368   1.1994276   0.0006022
   0.1691060  -1.0872521  -0.9375637  -0.1858658   0.0049457   0.2098996
  -2.3261721  -0.5388036  -1.3175115   0.2574104  -0.6841163  -1.8748781
   0.2729552  -0.1499232   0.1404891  -0.3298259  -0.1023104  -0.2493893
  -0.4772802   0.8397508  -1.1526142   0.2003422   0.0289051  -0.4150843
  -0.7120917  -0.2541666  -0.5716382   0.1175832   0.1396789  -0.6843584
   0.1393593  -0.1765678   0.0761941   0.4207894   0.7382951  -0.6066545
  -1.0463183   0.1799881  -1.1643385   0.0957249  -0.1580517   0.3029746
   1.2111359  -0.1975421  -0.1677060   1.6359413   1.2801757  -1.7709639
  -0.0880834   0.0005070  -0.0761371  -0.4136548  -0.1183267  -0.2526655
   0.8916246  -0.5047477   1.5123681   0.0943030   0.0705376   0.3595189
   0.0002135   1.0543221  -0.7137393   1.5865467  -1.4593908   0.2894679
   0.0990300  -0.0628322  -0.3939477   1.1571670  -0.9708296  -1.1697765
   0.3380136  -0.2983831  -1.4712563   0.0523700   0.1541433  -0.0494609
   0.0668895  -0.6737511  -0.6706703  -0.4209038  -2.1158363   0.6682159
   0.1333972   0.1031336   0.0465070   0.2941572  -0.4390665   0.4109916
  -0.3543690  -0.1170754  -1.1701486   0.2369342  -0.2974587  -0.1322597
  -0.5352823  -0.8510326   0.2204716  -0.7775139  -0.0271757  -0.6326801
   0.0374429   0.0039538   0.2253844   0.4875786  -0.3665232   0.2958726
  -0.4542683  -0.6254801  -0.1813485  -0.0596112   0.1621022  -0.0396185
  -0.3377257  -0.0724218  -0.7233052   0.9722521  -0.3951303  -0.2722699
  -0.1205949   0.0957013  -0.3459101  -0.9806066  -0.4906625   0.0606439
   0.4514771  -0.9223756  -0.0066613  -0.0208989   0.0607299   0.0100308
   0.3243580  -0.5642355  -0.3284790  -0.2829674  -0.7338462  -0.0636519
  -0.2507133   0.1109284  -0.1254408   0.7171388   0.1694563  -0.1786762
  -1.2636275  -0.3115380   1.0415978   0.1971250  -0.0771225  -0.2473752
  -0.4709323   0.4418248   0.2600369  -0.9748956  -0.2374334   0.0272874
   0.1364217  -0.0865194  -0.0060150   0.3811247   0.9449657  -0.5640309
   0.3839654  -0.4339405   1.4459707  -0.2246640  -0.2270918   0.0373872
  -0.2645653  -0.3060368   0.0635230  -1.0393748   0.0124024   0.8452721
   0.0783457   0.0186324   0.1643222  -0.2145342   0.1936162  -0.8272561
   1.1539901   0.9940286   0.8079516  -0.1535038   0.2865380   0.0561800
   0.4170853  -0.0377209  -0.9534689  -0.4868877   2.5210043  -1.0950953
   0.1007989  -0.0833946   0.0079242  -0.1760265  -1.1651790   0.2935414
  -0.8233994  -0.0024442   1.4730086  -0.0232960  -0.2154575  -0.1419386
   0.6575877  -0.4263692   0.6575531  -0.0684928   0.6571233  -0.2787411
  -0.1646442  -0.0233101   0.3531341  -0.1420519  -0.5937041   0.7956213
   0.3002828   0.0646143  -0.0696844   0.1439258   0.2600711  -0.2906191
   1.4800108   0.4832587   0.7044865  -1.7210235   1.6181311   0.1146204
   0.2387201  -0.0508772   0.2702013  -0.6246622  -0.2516563   1.0893851
  -0.0807789  -0.1149647  -0.6733353  -0.1837323   0.1611186   0.3239186
  -0.2616952   0.6366604   1.0555272   0.5815132  -0.0425754   0.6096251
  -0.4059027   0.0115756   0.3426297   1.0287881   1.5223356   1.1384577
   0.5039242  -0.5598445  -0.3210602  -0.1219933  -0.2088832  -0.2631131
   0.7726201  -0.8565488  -0.7243802  -0.3143550  -0.6724077   0.9269304
   0.1356498   0.0209556   0.0915311   0.1811177  -0.7568679  -0.1158750
  -0.1693409   0.4488761  -0.1306033  -0.3871833  -0.1117504  -0.2039543
   1.7339333   0.6911775  -0.7993656  -1.2362384   0.5765074  -0.4899071
  -0.0859143  -0.0091374   0.1291756  -0.5414688  -1.2939522  -1.0588975
  -0.0201178  -0.7229897   2.6724772  -0.1074705   0.1879723   0.1016836
  -0.6058194   1.2895627   0.4717169  -0.9396687   0.2000258  -1.3182017
   0.1157401  -0.3409134  -0.0232231   0.2986211   0.5579932  -0.3414640
  -0.9479588   0.0184750  -0.2753881  -0.0324231  -0.1719154   0.0922088
  -0.0589472  -0.1654519   0.6053383   0.3556502   0.6290741   1.2142183
   0.1724847   0.0305754  -0.2445904   0.0828855  -0.4668633   1.1529704
   0.0387489   0.0151366   0.8313077   0.0021828   0.0756686  -0.1912729
  -0.3350550  -0.4501970  -0.4003727   0.0869562   0.9604647   0.0308961
   0.3319105   0.0930943  -0.0623179   0.3632183  -0.0017654   1.3776138
   0.0599299   0.0656762  -1.2335772  -0.4214019   0.0322542  -0.2819730
   0.4476520   0.2901742   0.2278577  -0.3434811  -0.8444831   0.8052540
   0.3748935  -0.0184292  -0.0766693   0.4232004  -0.3833201  -0.4807210
   0.2893200   0.0328462   0.8319896   0.3467094  -0.1459123   0.1358317
   0.5518480  -1.1774761   0.5009757   0.5100506  -0.3585039   1.1015274
  -0.0580328  -0.3050804  -0.0792255   0.4899337  -0.5805388   1.4669450
  -0.7598965   0.5806394  -0.6618728  -0.3030153  -0.2596770  -0.0797747
   0.3305481  -0.5113249   0.6072334   0.4368258  -0.0431087   0.5830686
  -0.0939702   0.0817648  -0.0828145  -1.2577671   0.1886424  -0.2013871
   0.7730497   0.0634356   0.0873389   0.0441631   0.0825510   0.0767104
  -1.7131104  -0.7691924  -0.3546533   0.6546688  -0.2651443   0.8337979
   0.0919729  -0.2382644  -0.0196595  -0.0504553   0.3843771  -0.0204065
  -0.1013483   0.0128324  -0.8921277  -0.0676608  -0.1919441  -0.2936322
  -0.6963895  -0.5288869   0.0692664   0.5704851  -0.3253149   0.0356809
   0.0734324  -0.2124856   0.1293202   0.0689416   0.3085386   1.9879962
   0.1464070  -0.6479687  -0.8407096   0.1303982  -0.0946090   0.1734581
  -0.2683008  -1.1355004   0.1179697   0.2353032   0.8565854   0.6931942
  -0.1556399  -0.1325652  -0.0692610   1.4086477   2.3311416   0.5452358
  -0.6835505  -0.9071726   0.8739600   0.2474031   0.1397490   0.0497386
  -0.3763204   0.0810583   1.2701616  -0.8394198   0.5833818  -0.9687861
  -0.0468880   0.0650484   0.0783770   0.3525185   1.1659561   0.9642216
  -0.5470185   1.2763421   1.3996871   0.0007487   0.0869743   0.1386948
   1.4135012  -0.4171175   1.6376598  -0.8556687   0.1219375   1.5343981
  -0.1538557  -0.2613563  -0.3032353  -0.9398238  -0.5557955   1.8774468
  -0.6359210  -0.4953401   0.2380086  -0.0676835   0.0736455   0.4315899
   0.2444583  -1.5882292  -1.2752133  -1.0984373   0.5860365   0.3985931
  -0.0540231   0.1872780  -0.1080212   0.0279051  -0.2136161   0.7681454
  -0.9052191   0.3444089   0.4598617   0.4095571  -0.1248521   0.0315759
   1.5890445   0.7715006  -0.6393065   0.3521565  -0.8637742  -0.8784061
  -0.1565737  -0.0924368  -0.0582616  -0.1718299   1.0324099   1.7493019
  -0.8798445  -1.0373969  -0.6553733   0.1405248  -0.1965725  -0.1110786
   1.7832237   0.5106825  -0.9450464  -0.4945368  -0.9116831  -0.4348201
  -0.0603682  -0.3724426   0.3456225  -0.5369854   0.8073094  -0.8802070
  -0.4109789  -0.7613618  -0.0028570  -0.0320201   0.1576790   0.0443877
  -0.4797306  -1.3699220  -0.3903040   0.9322701  -0.8459273  -0.1170234
  -0.1570689   0.4419702   0.0065841   0.0631952  -0.2188017  -0.5527600
  -0.2635623  -1.3478224  -1.1383711  -0.0600577  -0.2627494  -0.1495179
  -1.0500881   0.5767787   0.7063034  -0.6815270   0.1034180   0.1563141
  -0.0342928  -0.0931079  -0.0826822  -0.0408658   0.2565439  -1.8900020
  -0.3159667  -0.9098091  -0.6142804   0.0101895  -0.3435861   0.2910969
   0.7483511   0.5294464   0.5271975   0.0108548   0.7064637   0.4953120
  -0.2523939  -0.1644498   0.1088825   0.1483940   0.6626647  -1.2811731
   1.0207909   0.3537078   0.1435190   0.0489580   0.0385654   0.0095671
   0.8407175  -0.8859593   1.2321646  -0.9418557  -1.1710601  -0.1098745
   0.1850906  -0.0397217  -0.0088695  -0.2395349   1.1400912   0.7002809
  -0.2104385  -0.2834577   0.3620042   0.1427462   0.1924731  -0.0050624
   0.3453474  -0.5262007  -0.8511299  -0.2619893  -0.1400103  -0.5404795
   0.0762345  -0.4360339   0.0427254  -0.8330036  -1.1985335   0.0262313
   0.7609891   0.2017326  -0.4909862  -0.0671698   0.2317647  -0.1133042
  -1.5622379   0.6359710  -0.7438230  -1.4114266  -0.1414741  -0.3184553
  -0.4254313   0.0900035   0.0833440   0.5816948  -1.0187510   0.8558067
   0.1174970   1.4822748  -0.4091657   0.1023304  -0.2900412  -0.0005185
   1.4178361  -0.8602294  -0.7254487   0.2024820   0.1227672   0.0841294
   0.1382884   0.1091952  -0.0236696   0.0628137  -0.0711760   0.4132145
   0.2282597   0.2706977  -0.1429529  -0.1493338  -0.4599731  -0.1815862
  -0.8682990  -0.6882888   0.0093443   0.1905108  -2.0606569  -0.5053402
  -0.3422852   0.0916555  -0.1642764   0.4973576  -0.0304089  -0.5388409
   0.1458385  -0.3796916   0.4856961  -0.2677196   0.0295379  -0.1906300
   0.7597522  -1.1484182  -0.4561120   0.1332472   1.6085936   0.2865149
   0.0463444  -0.1008772  -0.1202180   0.4786693   0.3731727  -0.0170843
   0.2141707  -0.0242702   0.3398235   0.0593892   0.0140005  -0.0688120
   0.7440927  -0.6227285  -0.2279227   0.1085830   0.6002499   0.8688004
   0.0192684   0.2065590  -0.2287740   0.8618672   0.4068806   0.7292235
   1.1296714  -0.0396292  -1.1799206  -0.0505842  -0.0293425   0.3498143
   0.2194816  -0.0013937   1.0542077  -0.5982872   0.4504630   0.2543648
   0.0770140  -0.0239931  -0.1771698   0.5708118  -0.8495691  -0.4384988
   0.2621879   1.4838181   0.1770775  -0.0743827  -0.3423464   0.2325297
  -0.5792133   0.5128266   0.3676807  -0.9358664   0.2296139  -0.9184969
  -0.0259048   0.5845813  -0.4277474   1.2305556  -0.2439553  -0.1180802
   1.3603020   0.5465004  -0.3889042  -0.2925346  -0.0855094   0.1712811
   0.0785156   1.4823323   0.3748580  -0.4450388   0.3663371  -0.2458232
   0.0009786   0.0260971   0.3406799   1.1263877   0.4314734   0.5809513
  -0.1535480   0.8511931  -0.6402751  -0.0157203   0.0573306  -0.0150208
  -0.1068088   0.5362614  -1.0212207  -1.0107967   0.4580422  -0.3173934
   0.0246221  -0.0590484  -0.1035280  -1.6461298  -0.2817149  -0.5947933
  -0.0997996   0.0207015  -0.3725622  -0.4160256   0.5599890  -0.0820843
   0.9644376   0.2214257   1.1629615   0.6569716  -0.3220467  -1.7415625
  -0.1008202   0.2316816   0.0434594   0.3286865   0.0340024   0.0776914
   2.0073628   0.4480946  -0.0164983  -0.0310814  -0.0858754   0.2119977
  -0.5914954   0.7595358   0.5819062   0.9718429  -0.3372757   0.7737914
   0.4473440  -0.0096919  -0.0902940   1.1915033   0.5472714  -0.3076721
  -0.9734935  -1.1208965   0.3070705   0.0476190  -0.2851040   0.2495914
  -0.6320507   0.5898681   0.3687197  -0.2119281   0.5209853   0.1791372
  -0.1962922   0.2693784   0.1167950   0.6852182   1.0388541   0.4443254
  -1.1529404  -0.0778948   1.0349240   0.2232087  -0.1931757  -0.2427540
  -1.0585659  -1.7515744   1.4179008   0.3836732   1.2504127  -0.4852408
  -0.1283960  -0.3444135  -0.1884598   0.9539821  -1.2417896  -0.3187225
   0.2413013   0.1475378   1.8792235   0.0688463  -0.0450841  -0.1655913
  -0.2587546   1.4352460  -0.0388007   0.0019907  -0.3586027   0.1618713
   0.1644133   0.0119718  -0.3203175   0.0320197   0.0417887  -0.4668305
  -0.4541969   0.6942222   0.7732405   0.3250112   0.0244582  -0.1371280
   1.7269218  -0.6808661   0.6187187  -0.2011615   0.9009992   0.5983413
   0.0267941  -0.0608971  -0.0762900   0.0838974  -0.6043073  -1.4250687
   0.0699999   0.2311407   0.5360828   0.0668451  -0.1287654   0.6458319
   0.7301110  -0.1121517  -0.1749252  -0.4904624  -0.5390895   0.2656591
  -0.1943086   0.0789866  -0.1326072  -0.1840650   0.3690572   0.5804128
  -0.0619181  -1.8319956   0.9815870   0.0554401  -0.1425446   0.1472383
   0.1623762   0.2334119   0.2786972  -0.7195553  -1.0081362  -0.2267650
   0.0914826  -0.2490859  -0.3943706  -0.6282719  -0.1134175  -1.2842751
   1.5489381   0.1715229   0.0911310  -0.1134366  -0.0163454  -0.0916351
  -0.5676177   0.9893528  -0.0070619   0.0416844  -0.7153660   0.6153718
   0.2556871   0.2820827  -0.0491231  -0.8884199  -1.6246575  -0.1148793
   0.2613339  -0.8953612  -0.7500202  -0.0196425   0.0855330  -0.2353323
   0.3490360   0.3840372  -0.2978390   0.9017108  -0.9601148   0.4692248
  -0.3600179   0.0982915   0.1621845  -0.3191174   2.1751723  -0.3212639
  -0.2931418  -0.6635274  -0.0181814   0.3104551   0.1893173  -0.0002332
  -0.2542805  -0.3479560  -0.0345288   0.1864697   0.7293217   0.1547695
   0.5505029   0.0451977  -0.2241035  -0.6591822  -0.8330048   0.1751657
  -0.6698617   1.7249882   0.6605860  -0.3902513   0.3932013   0.0754634
  -0.4570403   1.8220552   0.4713496  -0.1689738   0.3661597   0.2024838
   0.0051598  -0.0318063  -0.2174352   0.6856817   0.7812989  -0.5444093
  -0.2561252   1.0157582  -0.0024099  -0.0354575  -0.0183173  -0.0296012
  -0.6757781  -0.3335863  -0.3723988  -0.0682306   0.3783814   0.2761159
  -0.0690865   0.1600170   0.1286532  -0.7849502   0.0891371   1.6643613
   0.2594600   0.2582016   0.1566868  -0.0525387   0.1557858  -0.0357099
  -0.7029620   1.0998530  -0.0857681  -0.7050535   0.6214641  -0.3675872
   0.0656265  -0.0232211   0.0866723  -1.1683654   0.0667879   0.6449180
  -0.2689147   0.9298394  -0.9228391  -0.0855941   0.3012568   0.0451708
   0.2304767  -0.5572604  -0.5665518  -0.3427306   1.2411381   0.1776993
   0.1848846  -0.3325651   0.0770618  -0.0991786  -0.4555184  -0.2867932
   0.7381656  -0.4568281  -1.1907919  -0.2964655  -0.0952515  -0.2376892
   0.6039359  -0.4698364   0.3001615   0.5174376   0.1855622   0.0269345
   0.0804543  -0.0593856  -0.0666896  -0.4128312  -0.6315371  -0.9486248
  -0.1173857   0.7534609  -0.2973888  -0.1632440   0.1200975   0.1810557
   2.3714245   0.2257738  -0.3130504  -0.6336227  -0.0777282  -0.7112578
  -0.3257789   0.1982229   0.0640369   0.7025184   0.7479259   0.1050655
   0.3115982  -0.6973881  -1.0849724  -0.2819306   0.3297246   0.1744078
   0.3808469  -0.7048628  -0.1924750  -1.0609758  -0.2159871   0.7367138
   0.0031484  -0.1528671   0.1874083  -0.2080279  -0.9894262   0.0629584
   0.0114710   1.5809918  -0.4411577   0.0685353   0.3165913   0.0853105
   0.3248885  -0.1736188   0.6610421  -0.6415009  -0.8898085  -0.5372273
   0.2894654  -0.2907492  -0.1546517  -0.8708571  -0.2770375  -0.1418495
  -0.2069913   0.8285607   0.2571330  -0.2173786   0.2220960  -0.0485494
   0.1751786  -1.2845905   0.0405146   1.1157414  -0.2704810  -0.3533350
  -0.0355593  -0.4040519   0.0977010  -0.4284802  -0.0670427   0.1099236
  -0.2138334  -0.0763130  -0.3501085  -0.1375685  -0.1169749   0.1206784
  -0.0417948   0.2900815   0.8255659   0.5101544  -0.0024548   0.9934246
   0.3564637   0.1714622  -0.0122254  -0.5116006   0.7139758  -0.3470245
  -0.0773540   0.1594853   1.0919023   0.1210008   0.0977228  -0.2091598
   0.0588224   1.1846169  -0.5370144   0.0505207   1.2300535  -0.8199375
  -0.2412637   0.1043106  -0.0869945   1.3616997  -0.6303208   0.3895489
  -0.6324573  -0.6687138   0.0290817   0.1087571   0.1176689  -0.1042852
   1.2537540   1.1168590   0.3792308   1.0223411   0.5834994  -0.4716996
  -0.0057264   0.0832644  -0.1141805   0.8915440   0.4095545   0.0638366
  -2.1684661  -1.6917781   0.4981938   0.2177570   0.0184357   0.1842416
  -0.3566205  -0.4143956  -0.6550347   0.1781095  -0.0514856  -0.6886329
   0.1930506   0.0332454  -0.1613060  -0.5599248  -1.6381266  -0.5720087
   0.6634008  -0.5736708  -0.8940778   0.1680669   0.2400993  -0.3285306
   1.1755421   0.5487075   0.0188231  -0.0121310  -1.1554040   0.2842754
  -0.0000541   0.0960946  -0.1224019  -0.0474626   1.5210303  -0.2683514
   0.3399958  -0.4509253   0.2903654   0.2165080   0.0300315   0.0358526
  -0.1939320   0.3262611  -0.7155707  -0.3137338  -1.2922558  -1.6652197
   0.0423824  -0.1402468   0.0293010   0.7022637  -0.1393088  -0.9293376
   0.8069276   0.2827908   0.7931531   0.0244419  -0.0785377  -0.1616909
  -0.0943233   0.1500316   0.3721204  -0.4774569  -0.9275649  -0.1526948
   0.0645998   0.1147915   0.0944185   0.4586181  -0.3057106   0.1393190
   0.3427547  -0.6941353   0.8719230  -0.2087309  -0.0347951  -0.0874527
  -0.6029122  -0.2416726   0.8216728   1.1291240  -1.3686120   0.9236832
  -0.1820572  -0.1074649  -0.2774304   0.9347286   0.5037979   0.8570985
   2.1642537  -0.5851775  -1.1875511   0.1624519   0.2570044  -0.0020801
   0.6999386   0.5784731   1.0649934  -0.6302008  -0.0178440   0.2333076
  -0.1090823  -0.1492804   0.1192042   0.2629445  -0.1039581  -0.3606977
  -1.7200776   0.8313750   1.0853332   0.0068710  -0.1311147   0.1082441
   0.2863322  -0.0504282  -1.2876997   0.4251221   1.0041698  -1.0599874
   0.0929789   0.1144949  -0.0164308  -0.3076495   0.5438396  -0.4287665
   1.5583516  -0.3406746  -0.0455443   0.1093798   0.3470035   0.0625984
  -0.1864321   0.1223360  -0.7696818  -0.1863080  -0.8708905  -0.6129304
   0.1523170   0.3197683   0.0507653   0.2450543   1.3891345  -1.7685929
  -0.2070329   0.8436922  -0.2937870  -0.1787788  -0.0468899   0.2567689
  -0.4020700  -0.3905096  -0.8342463   1.0174981  -0.3146974  -0.4517358
   0.0647618  -0.0368754  -0.1921735   0.7257663  -0.4783356   0.5474796
   0.3117922  -0.7179670   0.0318365   0.1412382  -0.0624384  -0.0523594
  -0.7099203   0.3344333  -0.8022053   0.2284813  -0.6498085  -0.1648093
   0.0128708   0.2925741  -0.1345058   1.9287076   0.5252319  -1.1580314
  -0.2089333  -0.3354611  -1.5708304  -0.2575911   0.3010484   0.0071175
  -0.2102733   0.6056364  -0.1825719  -0.0831100  -0.5073870  -0.3475978
  -0.1112391   0.2494413   0.0142896  -0.4549185   0.0793652  -0.0394215
  -0.3803423  -1.2032646   0.9418565   0.0281056   0.1530095  -0.0709518
  -0.5958657   1.0477376  -0.5503338  -0.2220506   0.0454154   0.1356613
   0.1724445  -0.0434220  -0.1114689  -0.5938778   0.5711246   0.7328114
   0.9895543   1.4127383  -2.2678015  -0.0304782  -0.0027842   0.0889618
  -0.1314111  -0.4824347  -0.1571955  -0.3928769   0.1418732   0.2359026
   0.1164289  -0.1217757   0.0324104   0.9606606  -0.0439454   0.5637591
  -0.1868381   0.7209694   0.4861558  -0.0664073   0.0870349   0.1120333
   0.4743601  -0.2025141  -0.9277106   0.3274619   1.2140228  -0.1769121
   0.0532360   0.3927720   0.0657273   0.8067874   1.6149672  -0.8425921
  -1.2001405  -0.7899177   0.5586541   0.0951015   0.0499592   0.1976924
   0.6673080  -0.3256756   0.0211897   0.1116704   1.1060487   0.7694424
   0.0828691   0.0954258  -0.0851278   0.0129418   0.3584747  -0.8190802
  -0.6273812   0.8503797  -1.0294316   0.2722626  -0.0482591  -0.0522661
  -0.4517724  -1.4590745   0.3373368   0.2241661   0.1733480  -0.7833005
   0.2183607   0.0211833   0.1729683   0.1260549   0.6830227  -0.9299520
  -0.3628096  -0.8137971  -0.1350864   0.4536893  -0.0509404  -0.2051790
  -0.6024624   0.2911520  -1.3484346  -0.2247852  -0.0972558   0.1036070
  -0.0171325  -0.0472063  -0.0404729  -0.1523307   0.2848627  -0.1711755
  -0.1361358   0.8428416  -1.9914600  -0.0917384   0.1103890   0.0721893
  -0.1339973  -0.0054927   0.5505635  -0.3447323   0.2011855  -0.0410181
   0.2142325  -0.3798700  -0.3433635  -0.8865272   1.1738570   0.3111758
  -0.0148984   0.2111522  -0.1664966   0.0325070   0.0927121  -0.0854325
  -0.1078081   0.8363990   0.5052385   0.6472548  -0.1341376  -1.6546591
   0.0730550  -0.0804701  -0.1479127  -1.0374945  -0.8803104   1.3530594
   0.8522829  -0.4305777   0.2778915  -0.1522723   0.2453791  -0.2164597
  -0.4939642   0.8719657   0.2765049  -0.5049679  -0.3743948  -0.6485059
   0.2197533   0.3453146   0.2535396  -0.6382766  -0.3717261   0.4612071
   0.2193960  -1.5159138  -1.0308464  -0.0061939  -0.2399654  -0.1941510
   0.8257204   0.4002956  -0.9355076  -0.5930987  -0.1977245   1.0947266
   0.2919672   0.4061166  -0.1763961   1.0838438   0.8432209  -0.4515223
  -0.4138059  -0.7965591   0.8147522  -0.0355194   0.0926365  -0.0894302
  -0.1255486   0.3174675  -0.6855894   0.7998897  -0.6185981   0.5225982
   0.0081812  -0.5518923  -0.1153203   1.0623210   0.0956911  -0.8603131
  -0.5078521   1.3276767  -0.9991196   0.2497050  -0.0396495   0.0153714
   1.6945436   0.7156633   0.4781485  -0.8303786   0.5877796  -0.2020688
  -0.1123185  -0.1702555  -0.1540224  -1.1972334   0.8939716  -0.3316163
  -0.1780682  -0.0715872  -0.2070192  -0.1028531  -0.1312878  -0.1113288
  -0.1105737   0.7669566   0.4358380   2.5913831   0.9884372  -0.2515213
  -0.1848953   0.0202429  -0.1018276  -0.4244964  -0.4840890   0.2468432
  -1.0258603   1.1789785  -1.0688499   0.1913229   0.0607339  -0.0989759
   0.2166641  -0.5725396   0.1317906  -1.3015474  -0.4774326   0.9241306
   0.0951772  -0.1235623   0.0507052   0.4839172  -0.5868818  -0.5219808
  -0.2200364  -0.8002886  -0.2057963   0.1957454   0.1257290   0.0701317
   1.2558310  -0.5400870  -0.3683976  -0.5073186  -0.0669610   0.2546119
   0.1785786   0.2990502  -0.2619562  -0.2203725  -0.5667232   0.7418842
  -0.6761988   0.2222928   0.3047426   0.1556185   0.4178586   0.0361204
  -0.8123930   1.0885366   0.1326372  -0.2410935  -0.2423273  -1.4750398
  -0.2242758  -0.0421207  -0.0159116   0.5692691  -0.5828787   1.7145806
   1.4967953  -0.4852376  -0.5758633   0.3177713   0.0239618  -0.2899435
  -0.5191450  -0.4635416  -1.2109377  -0.0931192   0.0979837   0.4088960
   0.1794581  -0.0762723   0.1435077  -1.4191589   0.1353369   0.4453157
   0.2630973  -0.0734619  -0.7789926  -0.1271646   0.1718233  -0.0198511
  -0.4553301  -0.1761106   1.3160913  -0.6215962  -0.7771669  -0.5902332
   0.1041827  -0.0702290   0.0151246   0.6847922  -0.9186925  -0.6972655
  -1.1236736  -0.9170784  -0.6472441   0.0183492   0.2063510   0.0808082
  -0.1457616  -0.2726838   0.3733864  -0.2649208  -0.1805719   0.3170719
  -0.1881522   0.3662454  -0.0045642  -1.8665031   0.2544514  -0.5229430
  -1.3596319  -0.2474228   0.0198918   0.0484345   0.5271647  -0.1939377
  -0.4579760   0.2362701   0.1371049  -1.2370346  -0.9874286  -0.1476719
   0.0881890   0.0517317   0.3888565  -0.1181787  -1.3159968  -0.1182498
  -1.0268945  -0.0437935  -0.6189752  -0.2315944   0.0910506  -0.2635375
   0.7221810  -0.5263750   0.3015378  -0.0387448  -0.7676237   0.5829650
  -0.1622045  -0.2511621   0.0341146   0.7163127  -1.1460266  -1.0133734
  -0.1609910   0.2851929   0.3835807   0.1058112   0.4107233   0.0888562
  -0.7043772   0.4341660   0.9887725   0.5480244   0.5027376  -0.8073159
  -0.0311034  -0.1303662  -0.2092992   0.1066395  -0.2788513   0.2058317
   0.5519210   1.2144115   0.7960967  -0.0477508  -0.1068349  -0.1890812
  -0.1221482  -0.4571385   0.3564776  -0.0915330  -0.8089190  -0.4126565
  -0.0662700  -0.2291749   0.2150483   0.0235447  -0.4460754   0.5949302
   0.7457063  -0.5907461  -0.2226313  -0.1124575  -0.0577855   0.0067254
  -0.0544667   0.8437755  -0.6851199   0.5752164   0.3959992   0.9444006
   0.3662849   0.0032333  -0.1708866  -1.1510468   1.0569828  -0.4458035
   1.0625443  -0.6075328  -0.4677567   0.2788302   0.1779396   0.3056264
   1.4585494   0.9870769   0.0049541   0.2545746  -0.2604051  -0.3086406
   0.1992147   0.1904013   0.0298701   0.0759100   0.5332608   0.3004796
  -0.4076813  -1.9466664   1.7628512   0.1429044  -0.1737201   0.1528836
  -1.5328409  -1.0786311   0.7802485   0.7305529  -1.2443707  -0.8171644
   0.0201400  -0.3286085  -0.2436085  -0.3196024   0.2028779   1.2457746
   0.0748738  -1.5536831   1.2093208   0.1204406   0.2762154   0.0831228
  -0.3932129   0.3008874  -0.3229763   0.5171963  -1.7880809  -0.9921135
  -0.1056516  -0.2169961  -0.1641394   0.4433076   1.1192183   0.3768980
   0.1061063   0.4334787  -0.0516582  -0.0087159   0.1895438   0.4282983
   1.5842947   0.5936309   1.1890253  -0.7595575   0.6713823  -0.1707015
  -0.0233805  -0.0515689  -0.0202026  -0.6233426   1.2436565   1.0341347
  -0.1100139   0.6709428  -0.7289938   0.0404446   0.2988144   0.1141635
  -1.2609516  -0.8258833   0.3053258   0.1381718   0.0571711   0.2414815
  -0.0396092   0.2454221  -0.0296786  -1.5130641   1.0427773   0.2613111
  -0.8601135  -0.2369555  -0.4123882  -0.0833928  -0.0013652   0.3167251
   0.4368780   0.6870785  -1.1517315  -0.3591039  -0.7886997   0.5100035
  -0.2577967   0.1575388   0.1179811   0.3496760  -0.2654690  -0.4477396
   0.5622347  -0.6540145   0.2109677  -0.1633177  -0.1145213   0.3005841
   0.8907808  -0.9959945  -0.9416733  -0.0791305   0.2107111   0.1102020
  -0.1860847   0.1911643  -0.1078478   1.3345436   0.3244714   0.0018509
  -0.0717991  -0.5414758   0.4785951  -0.3766099  -0.0217232   0.1294269
   0.4957310  -0.1417315  -0.1656792   0.2795634   0.2325726   0.2827146
   0.0142074  -0.1479158   0.2996811  -0.2660330   1.8699397  -0.9422594
  -0.0758595  -2.0040095   0.4084812  -0.2981358  -0.2341402  -0.0267907
   0.9472648   0.0700448  -0.9446530  -1.7330351   0.2355225   0.8459149
  -0.2463597   0.1566269  -0.1268738   0.3536361  -0.2025486   0.9410287
   0.7055455   0.4493991  -0.3801607  -0.0835668  -0.0023977  -0.2187472
  -1.1409254   1.3449550  -0.1616758   0.7899069   0.0551189   0.8955381
   0.1298152   0.3017933  -0.4492768  -0.7071096  -0.5739881   1.0213800
  -0.0957460   0.1872596   0.4840376   0.2951072   0.1207613   0.3151664
  -0.9407339   0.4921343  -0.0697074   0.6557271   0.5951294   1.2667288
   0.2243170  -0.4419060   0.1865030   0.6310375   0.3609063   0.7856756
  -1.1525907   0.7553528   0.6853680   0.0865701  -0.0952478   0.0284262
  -0.1841988   0.1755573   0.0881400  -0.0844506  -0.6709580   0.1127479
  -0.5528565  -0.1208448   0.3630169   0.8198690  -1.7279299   0.2912786
  -1.0852737   0.7767377   1.0146711   0.1126654   0.3558057  -0.5651055
  -0.4302533  -0.6254942  -0.1405717   0.4535401  -0.9566959  -0.9968506
   0.1708613  -0.1283048   0.1015376  -0.2377486  -0.7886483  -0.8825451
  -0.4051081   0.3302092   0.1922100  -0.0894301  -0.0898833   0.3939499
  -0.1511454   0.7302397  -0.4313887  -1.5045053   0.6940131   0.3141852
  -0.1562206  -0.1232606   0.1585867  -0.6488487  -0.3643384  -0.0363311
   0.8652214  -0.2388277   0.1219837   0.1222557   0.1449393   0.3639009
   1.7253942   1.5129330   0.7563815  -0.3407138  -0.4034605   0.2054488
   0.1150674  -0.2710837  -0.1610177  -0.8272843   0.0134082   1.2936801
  -0.6834314   0.4199881   0.2282500   0.0107543   0.1041232  -0.2834721
   0.3455391   1.1066219   0.0279419  -0.3977678  -0.7887192  -0.3202128
   0.1176469  -0.0344157  -0.1068601   2.1178459   0.4336953   0.6772186
  -0.9039027  -0.1390309  -0.0684795   0.0193572  -0.0332429  -0.0294932
   0.4772346  -1.0639648  -0.5027895   0.0537207  -1.9217699   0.8595997
  -0.0579367  -0.1724667  -0.2668448   1.1035729  -0.6398974  -0.7532019
  -1.4040453  -0.9399380   0.0841847   0.0151297   0.0581031   0.1035791
   1.0952216  -0.6630919   0.4995110  -1.5144786   1.2889164   1.1085245
   0.3540845   0.3605539   0.1195468  -0.2242732   0.8944248  -0.8813185
   0.4579727  -1.5044743   0.2236071   0.1479974  -0.2208976   0.1492032
  -1.8061858   0.7229619   0.6382520   0.2072655   0.2060250  -2.0269515
   0.3242266   0.2128248  -0.0285571   0.0156920   0.0691519  -0.4615797
  -1.3451660  -0.8822008  -0.2236155   0.1954264  -0.0420259  -0.2305605
  -1.4096418  -0.0767253   0.1874776   1.1173705   1.5128403  -0.2041177
   0.0397601   0.1826571  -0.0882853  -0.2069741   0.3747916  -0.6633446
  -1.6619977   0.1430695   0.3682375   0.2953227   0.2343443  -0.0524413
   1.5738766  -0.3607968  -2.0678472  -0.0994560   0.9975519   1.6774056
  -0.0878248  -0.4504063  -0.1639694   0.8477168   0.6990896   0.1979234
  -0.0369310  -0.0600334  -0.4470855  -0.1299144  -0.2999717  -0.3116147
  -0.3695435   0.7419998   0.0562053  -0.0759099  -0.7371376  -0.5176869
  -0.1192880   0.1671214  -0.3140477  -0.0748076  -1.1087592  -0.8026773
  -0.7863608  -0.5291168  -0.3735291   0.0456627   0.0845137   0.1469543
   0.3132859  -0.7082060  -1.1088669   0.6717706   0.2934328  -1.3586295
   0.1619293   0.2346896  -0.0488908   0.1656527  -0.3828511   0.4993846
   0.0520379  -0.3196591  -0.3821004  -0.3216828  -0.2039551  -0.1337925
   2.1495153   0.1129902   0.1827453   0.1385172   1.1364694  -1.1897988
  -0.2530003   0.0777633   0.2351633  -0.2472424   0.8342684  -0.9330774
  -0.1915302   0.7306924  -0.2058331   0.2290323   0.2246378  -0.1851075
  -0.9157241  -0.2468035  -0.2288276   1.7945702   0.6452189   0.0632952
  -0.2147535   0.0393906   0.3747941   1.0763788  -0.6599379   0.2091555
   0.0337138   1.3426353   1.1517390  -0.1780021   0.0322555   0.1230943
  -0.0627156  -0.1496634  -0.5420974  -0.4567899   0.2691088   1.0792946
  -0.2969266  -0.0333560   0.2088240   0.0256503  -1.9947859  -0.1243128
   1.2069903   0.0996874  -0.1668395  -0.0162305   0.0273755  -0.1709452
   0.5908737  -0.8844054  -1.1944366   0.0031418   0.3719530   0.4673589
  -0.1170316  -0.0875852  -0.3338411   1.3571469   0.7936275   0.4736728
  -0.0566393  -0.1601138  -0.1939550  -0.0229212   0.1316263   0.0386416
  -0.8028618  -1.0834453   1.0738187  -0.1140246  -0.0473997   0.2854728
   0.1873137   0.4448327  -0.0909784   0.7488291  -0.2412096  -1.0292854
   0.6362917  -0.2979047   0.4049152   0.2110889   0.0816670   0.1704675
  -0.6157231  -1.2873596  -0.4557237   1.2661896  -0.7068036  -0.8094519
  -0.2528816   0.1289028  -0.1825177  -1.1298709  -0.2830364  -0.6152964
  -0.1880735   0.2415324   0.8251527  -0.1352292  -0.2593423   0.3667679
  -0.8448809  -1.9305022   1.4505079  -0.9153669   0.0664070   0.9435802
   0.2120806  -0.0996654   0.0216579  -0.0896309  -0.2938094   0.4810726
  -1.9929644  -0.1289222   0.7351757   0.6791777  -0.4109355  -0.1264472
  -0.6930967  -0.2205180  -1.3234184  -0.2006485  -0.5037530  -0.3030825
  -0.2155261   0.1031020   0.1101637   0.2954690  -0.4353014  -1.4314364
   0.0307789  -0.5430127   0.9934005  -0.0336880   0.0708362   0.2126620
   0.1739079   0.8633729   0.6155601   1.1324385   0.3596795  -0.3385742
   0.0051167   0.0894327   0.0756217  -0.1549922  -1.5659583  -0.0262706
  -0.0723242   0.7380174   0.0853932   0.1985447  -0.0175953  -0.3109529
  -0.2822382  -0.7105892   0.4254388  -0.0968907   0.0929522  -0.6754147
   0.0090204   0.1435182   0.0398437   0.3879140  -0.8384942   0.2876175
   0.6722527   1.0503333  -0.6759538  -0.1349344  -0.0162437  -0.4952930
  -0.1200270   1.3277667  -0.5758769   0.5254051  -0.9291365  -0.4567019
  -0.3351808   0.2857999  -0.1155469   0.8765886   0.1489430  -0.4285877
  -0.6613161  -0.7184730  -0.5384564  -0.0493086  -0.2391340   0.1182128
  -0.5623387  -0.7848189   0.2921497  -0.0570125   1.5671372   0.4827836
   0.0667454   0.1431650  -0.0624807   0.3708934  -0.0893084   0.6655398
   0.9763820  -1.4050283   1.0656222  -0.3841441  -0.0199970   0.2232947
   0.3843108  -1.0274581  -0.5595019  -0.9580178  -0.3590527   0.3613329
  -0.2288121  -0.0638858   0.2112022   0.1991719   0.9041798   0.3885059
  -0.3952605   1.1256546  -0.3894580  -0.2527394   0.0361189   0.0223136
   0.1127965  -0.4717628  -1.0302781  -0.8178975  -0.5002050  -0.4527192
   0.1746365   0.2446280   0.1549746  -0.4065628  -0.5074051   0.0535564
  -0.4641572   0.5435315  -1.5635423  -0.1567489  -0.0234758   0.0162857
   0.7216443  -1.2892307  -0.8169400  -1.0344157  -0.8674908  -0.5200529
  -0.0921525  -0.2710252   0.1482499   0.3700727   1.1298291   0.3314933
  -0.1079494   1.9886884  -0.0506494  -0.0481392  -0.0746292   0.1159962
  -1.1790436   0.2425293  -0.1665958  -0.3058586   0.0319295  -0.0772516
  -0.0961656   0.2497164  -0.2447554  -0.0990586  -0.5432513  -0.0569599
  -1.1574190  -0.1777424   0.5264269   0.1546923   0.0580602   0.0842871
  -0.3593171  -0.5222793   0.1565024   0.3311181   0.0190555   1.9923267
   0.0126921   0.2861615  -0.1010998   1.0089943  -0.5652249  -0.2935580
   0.1584636   1.2805567  -0.2338492   0.0094125   0.2582123  -0.0533270
  -0.5771127   0.9308398  -0.1061186   0.8816123   1.0153699   0.7355317
   0.0596207   0.1040663  -0.0148275  -0.0014398  -1.2308569  -0.6893770
  -0.9175766  -0.3616405  -0.5646980   0.3904090   0.2081931   0.2116491
   1.3085433  -1.6336867   1.4628461   0.3192290  -0.7871895   0.6385062
   0.0627467   0.0694513   0.3502216  -0.0346659  -0.1830976  -0.1680649
  -0.0817172   1.2457886  -0.5463098   0.1043622  -0.1383224   0.0103620
  -0.2523133  -0.0121501   1.2165428  -0.5526666   1.4894483   0.6086514
   0.1527914   0.3011571   0.2454327   0.7476854   0.0739925  -0.9650157
   0.5441785  -1.1419494   0.2064662   0.1016747  -0.3171079  -0.0004764
   0.6565965   0.3846401  -0.5998041  -0.1871299   0.0535859  -0.3917922
  -0.0999556   0.2381458  -0.0576625  -0.4422924  -0.0756590   0.3685884
   0.4053948   0.5913898  -1.3182370  -0.0663600   0.0494946  -0.0826778
  -1.0001567   0.7711441  -1.0740593  -1.6221753   0.4212764   0.5223532
  -0.0661659  -0.1746795   0.1774392   1.2262822   0.0775323   0.0374652
  -0.3092084  -0.2329093   0.4822956   0.1744654   0.0254073  -0.3151328
   0.0891293   0.3377468  -0.4358139   0.3484876   0.0966487  -1.4233227
  -0.0230910   0.3635369  -0.1766466  -0.1638942   1.4640768   0.4227071
   1.6510449   0.5435149   1.0064403   0.1838108  -0.0062661   0.0734712
  -0.2235261   0.3464910  -0.3063258  -0.2230648   1.1809465  -0.2959977
   0.1173775  -0.0648055  -0.0829802  -0.8041554  -0.2877922  -0.3561264
  -0.4719629   0.5897952  -0.1064776   0.1628818   0.0089111  -0.0995276
   0.0869549   1.1212274  -1.0290469   0.6294763   1.1479292  -0.2699294
   0.1589669   0.2394718  -0.3463756  -1.3380937   0.7263272   1.0174278
  -0.3540781  -0.5588758  -0.0116575  -0.0646037  -0.0684174  -0.2897252
  -1.1148359  -1.3746032  -0.2103455  -0.8576449  -0.9061859  -0.7139875
  -0.3155657  -0.2014716   0.2742933  -1.5408349  -0.6552086   0.3050963
   0.5761305   1.0377320  -0.1110092   0.3034637   0.0853930   0.0571475
   0.3790634   0.3161747   1.5845192  -0.4276709   0.0636212  -1.9966460
   0.0102784  -0.0965139  -0.0799860  -0.9623192   0.0983892  -0.5216520
  -0.1471523  -0.2942647   0.7270411  -0.0619826   0.1484638   0.2171346
   0.8380446  -0.6281135  -0.8059427  -0.2431203   0.0049071   0.3652061
   0.3184554   0.1331763   0.1800647   0.3604208  -0.6725663   1.0552980
   0.1818910   0.1377876   0.2233501  -0.2114863  -0.0418161  -0.1239511
  -2.1386889   0.0957172   1.0371228   0.1177331  -0.4872719  -0.4251655
   0.6863224   0.0815463   0.0945517   0.5822884  -0.0808426   0.4560973
  -0.0509210   0.1856571   0.4196639   0.0722567   0.0813764  -0.0110987
  -0.0582106  -0.8421448   0.3066227  -0.5092387   0.4171556   0.1071532
   0.0471760  -0.1695836  -0.0796354  -0.8506987  -0.3477581  -0.2801978
  -0.3162738   2.6182563   0.6215756   0.3287983   0.1230193   0.1193679
  -0.1370754  -0.5092436  -0.3046837  -0.0911118  -1.0978292  -1.2294468
  -0.1142488  -0.2015027   0.0273582  -1.3283703  -0.0799362   0.4965971
  -0.6241634  -0.8936713   0.4443685   0.2946412   0.0039371   0.0152665
   0.5608591  -0.9302983   1.5732086   0.6390212  -0.3725157  -0.4273546
   0.0332677  -0.1979243   0.1426426  -0.0403544  -0.1044344  -1.6026424
  -0.2873680   0.5340019   0.3667446  -0.4131725   0.0736026   0.3863463
  -1.0440475   0.3739806  -0.7915478   1.0079022   1.5444059   0.6624872
  -0.1473521  -0.0658167  -0.0594522  -0.2169883   0.1577745  -1.3607785
   0.8201920  -0.0866827   1.5038410   0.3041671  -0.1946475   0.0061505
   0.5149418   0.9066275   0.2253857   1.1449286   0.9297775   0.3431331
  -0.0335847  -0.0856445   0.0617017  -1.6616565  -1.2532954  -0.6336971
  -0.1165959  -1.8549987   0.8327856   0.1340692  -0.1371031   0.6047227
   0.8045806   0.4218729  -0.3407353   0.0898561  -0.3314757   0.7350378
   0.0529926  -0.0552326   0.0788616   1.1075133  -0.3147649   0.8274783
  -2.2153476   0.5615725  -0.2617191   0.1095351  -0.0724539   0.0014293
  -0.7227225  -0.0705537  -0.0927576  -0.0223700   0.5003647   0.5105052
  -0.0273783  -0.2562854   0.1244702   1.0688974   0.4599926  -1.3753990
  -1.1909314  -0.0555642   1.1045176  -0.3780251   0.1279790   0.3174127
  -1.4209244  -0.3414024  -0.9294954  -0.9433425   0.1228442  -0.3945320
  -0.0457933  -0.1032123   0.2008395   1.5989232  -0.0019284  -0.7015625
   0.3465127   1.4433812   0.0859199   0.0400376   0.2247126   0.4475710
  -0.9116917  -0.6860258   0.4795361   0.5881736   0.9809274   0.2712846
   0.1874524   0.0071155  -0.0376253  -0.3590371  -0.4597803  -1.3034251
   0.6654494  -1.2900747  -0.0985980  -0.2871342   0.0389707  -0.1427856
   0.6150152   0.5409458  -0.1313815   0.0003363   0.0491597  -0.6459475
  -0.1327752   0.0140362  -0.0256100   1.4313951  -1.6856400  -0.6811248
  -0.2309287  -1.1757461   0.1354131  -0.1764839  -0.0818240   0.1590357
  -0.4296995   0.3119485  -0.9266896   0.5851551   0.0448077  -0.9021902
   0.0162111  -0.1131253  -0.1593062  -0.6830372   0.4742673   0.2704381
  -0.5410498  -0.5859090  -0.0862855  -0.0201924   0.0521561  -0.1382303
  -0.4627808  -0.6738382   0.7538677   0.3583916  -0.9901647  -0.0432318
   0.0053457   0.3673079  -0.5073568   0.0858179  -0.3497910  -0.1334992
   0.0419076   1.2561252  -1.1310037  -0.0414332  -0.0491747  -0.1658181
  -0.8270159  -0.5896892  -1.1291267  -0.1665965   0.3757344  -0.8199753
   0.0292972   0.1050034   0.1831557   0.1703258  -0.5043579  -1.3645410
   0.1390894   0.0019066   0.3651668  -0.1108412   0.1316407  -0.0589357
  -0.7674437   0.1491012  -0.3777458   0.1699305  -0.1577660  -1.2206828
   0.2051097  -0.2439580   0.1404759  -0.1982846  -0.8158991   0.0165814
  -0.8561768  -0.6793328   0.1395797   0.0090572  -0.1648723  -0.0308927
   0.1281091  -0.8363063  -1.7761211   0.7731374   1.4804489   0.8490786
  -0.3508606  -0.0526064   0.0090312  -0.4546514   1.4927923  -1.4542100
   0.2275025  -0.2699857   0.3614398   0.3926948  -0.1050257   0.0487736
   0.3812497  -0.8635283   0.9195170   0.1799547  -0.1505589   0.2879837
   0.0991306   0.0459731  -0.0963731  -1.7956554   0.9280527   1.1456427
  -0.8844482  -1.1856184   0.5851000   0.0491955  -0.0115918   0.0440331
  -1.0240007  -1.7497234   0.0591270  -0.9315442   0.9538543   1.3229732
  -0.0409626   0.0493753  -0.1034651   1.3153212  -1.6834546  -1.6558487
  -1.1388534  -0.0280772   2.0627769  -0.2528217  -0.3954101  -0.0896939
  -0.1118268   1.2416029   0.1704270  -0.9326949  -0.4903396   0.0029420
  -0.0805491   0.2257232   0.1155755   0.5075755   0.8077342  -0.7646608
   0.1256625   0.6538574   0.9698358  -0.3053086   0.0917115   0.2460039
   0.5983953  -1.0273954   1.0888062  -0.9866638   1.2211674   0.1390988
  -0.1490911  -0.1861480   0.1918409  -0.2472213   1.0735853  -0.6792331
   0.0819453   0.0213858  -0.8293215  -0.3499928  -0.2313979  -0.1560745
  -0.5468690  -0.0566193   0.2930129   0.0692723  -0.0633493   0.3867102
  -0.1795320   0.0712651   0.2855450  -1.1285340  -1.6233752  -0.8740766
  -0.0662791  -0.9612895  -1.4547495  -0.0195920  -0.1706657  -0.0289679
   1.1940614   0.7203274   0.8178610   1.7616651  -0.7004973  -1.5432764
  -0.1979020   0.0610367  -0.2331480   0.3772993   0.2174852   0.7558790
  -0.8851467   0.7218938   0.9219360  -0.3371201  -0.2393918  -0.1199245
   0.7200217   0.9136041   1.1141759  -0.3678400   0.2749984   0.0877618
   0.0185811  -0.2482124   0.0950465   0.2827587   0.0120254   0.3605320
   0.6718491   0.1045520   0.3867239  -0.0524892  -0.1722824  -0.2523074
  -0.0148489  -0.6734758  -0.6178623   0.8506690   0.0376502  -0.8878777
   0.0938783  -0.0575978   0.0548637   0.6079791   0.2039287  -0.1692319
  -0.2874066  -0.4784683  -0.1182801   0.0291506  -0.2519428   0.1361267
  -0.3137792  -0.1560086  -0.9249352   0.4178774   0.1517636   0.6922703
   0.1447069  -0.0947307  -0.1388604  -0.2461406   0.5436376   0.5917236
  -0.5719257  -0.8366803  -0.1362534  -0.0618157   0.1140224   0.2415784
  -0.1084044   0.3842180   0.8603982  -0.4556117  -0.0824532   0.1940037
   0.2332393  -0.0097789  -0.0360817  -0.2403813   1.1208015  -1.2397284
  -0.1332499  -0.6219957   0.7650848   0.0981883  -0.0598966  -0.1207664
   1.0744755   0.5717134   0.5581971   0.5510930   0.2758140  -1.3543345
   0.0382060   0.1385444   0.0476597  -1.5671247  -0.0151127   0.6420302
   0.3473778   0.2970695   0.7419559   0.0231214  -0.2539807   0.1021048
   0.9785539  -0.8572673  -0.6191878   0.5405699  -0.1097749   0.5598424
  -0.2102130   0.0340628  -0.0525475  -1.1130919   0.0707349   1.0591556
  -0.7664297   0.5077879   0.8315098  -0.0098609  -0.3068390  -0.0473859
   0.0650407  -0.5745498  -0.2389440   1.3904055   0.3719123  -1.0700431
  -0.1685659   0.0669546   0.2770687   0.9215228   1.0314649  -0.1865378
  -1.4576264  -0.7877504   0.7275670   0.1711908  -0.3577165  -0.0722476
   0.1244106   0.1818624   0.4145788   0.2672118  -0.3667810   0.1588377
   0.1399733   0.3201892  -0.0535085   0.3796037   0.9374324  -0.3466712
  -0.0103848   0.1755182   0.8680354   0.2365190   0.0172145   0.1107989
   0.1155290  -0.7993149   0.5838920   0.0541167  -0.1278376  -0.4668334
  -0.3687493   0.1438477   0.0533308   0.0828275   1.5587146   0.1853753
  -0.8703727  -0.0843830  -0.2424425  -0.3937668  -0.2361890   0.0141844
   0.5549911  -0.3770513  -0.3939639   0.6368296  -0.6427622  -0.0055616
  -0.0856883   0.0740722   0.0666950  -0.3096954   0.2464422  -0.1531704
  -0.8645781  -0.6762578  -1.9581739   0.2838720   0.2154914  -0.0458233
   0.2555280   1.4886291  -0.5365972   0.3949800   0.4827935  -1.5217842
  -0.0561499  -0.1105276  -0.1202408  -1.6907941  -1.3748136   0.6664501
   0.1818892  -0.5655218  -0.8018336   0.1188446  -0.0121551   0.1953736
  -0.9792065   1.7491309  -1.1127904   0.9614340   1.2325730  -0.3692929
   0.2382203   0.2278420   0.0678243   0.0047788   0.5281973  -0.2279718
   0.7185600   1.2214910  -1.3447759  -0.0158836   0.0204288   0.2597803
  -0.0943760   0.1062506   0.2532414   1.0352356  -1.9718697  -0.2239235
   0.0015616   0.2508579  -0.2473578   0.5049794   0.6844898   0.9443873
   1.1921990  -0.9946261   1.0018344   0.0116452   0.2414913  -0.2398088
  -1.0753132   0.9248593   0.6682639   0.8400419  -0.3360275  -0.2709651
  -0.0091005   0.1419365   0.0171625  -0.5883950   0.9074141  -0.4233683
   0.2356470  -0.4416457   0.0173225   0.3713167  -0.1645138   0.3238420
   1.8163195   0.2031124  -0.1936802   0.5876770   0.7754117  -0.0997544
   0.2952243  -0.1249260  -0.2287579   0.4078440  -0.3190774   2.2836924
   1.6205009  -0.0967492  -0.1277442  -0.3918256   0.0885613   0.0847065
   0.5379991  -0.4989070  -0.6281878  -0.6269985   1.7954920  -0.2447284
  -0.2551760   0.0046092  -0.2795744  -0.2943289  -0.9318576   0.1695077
   0.2207673   0.0196553   1.5051026  -0.0461134  -0.2316320   0.0411037
   0.2139798  -0.3043890  -0.8494420  -0.6930934  -0.2255994  -0.6246890
  -0.2609354   0.2941162  -0.0113617  -0.5485893   0.4224903   0.5822103
  -0.2649590   1.4350620  -2.1568651   0.1505325   0.0903966  -0.0237140
  -1.2560332   0.6762093  -0.2523129  -0.1033071   0.2252252  -0.2355683
  -0.2127499   0.0645850   0.1669600   0.1460685   0.4458221   1.0761171
   2.2541627   1.0608902   0.6573647  -0.1300065   0.2090361   0.1322216
  -0.6066438   0.9849815   0.1325121  -0.9175977   0.4174791   0.0961643
   0.0976093   0.1845785  -0.1204329  -1.5898493  -0.3731137  -1.3150776
  -0.9401227   0.8697423   0.5988530   0.0106076  -0.2613275  -0.0274758
   0.2465626  -0.5726955  -0.4602788  -0.0282042   0.6912206  -0.4194654
   0.3568296   0.0484028  -0.2392599  -1.1221617  -0.0553495   1.5037188
  -0.4130946   0.5181208  -0.7098127  -0.0918091   0.0930042  -0.1433591
  -0.2149636   0.7495661  -0.4957024   0.2793603   0.8048957  -0.6471249
  -0.1194777   0.1027979  -0.3633464  -0.8509246  -0.1542799   0.6361750
  -0.3994615  -1.3394786  -0.3970146  -0.0660266   0.1114650   0.1580259
   1.1032454   0.2618930  -0.5352496   0.9289628   0.8867426  -0.1715930
  -0.1676148  -0.6236590   0.2342965  -0.0854748   0.8560974   1.0182445
  -1.0316219   1.8635366   0.1524447  -0.0608331  -0.2721555  -0.1583983
   0.2211574   0.4999207   1.0666809  -0.6994895   1.1540416  -0.8899770
  -0.2699797   0.2725070  -0.1047560   0.2762608   0.8310358  -0.5740720
   1.2975980  -0.8787636   1.9332718  -0.0219571  -0.1172740   0.4155656
   0.8894021  -1.5937360  -1.1964214  -0.0965081   1.5853429   1.0322503
  -0.0395011   0.4465567   0.0845723  -0.9144551   0.0320210  -1.0919111
   0.6285462  -0.0598580  -0.0712874   0.2574153  -0.3761592   0.1301808
  -0.9488588  -0.8857638   0.1754740  -0.2273363  -0.8577629  -0.2895778
   0.4344978  -0.0525451  -0.2049258  -0.4091065  -0.2947184   0.4022596
   0.0943670   0.8848265   0.0622526   0.1367627   0.0923697  -0.2063853
  -1.6974553   0.0182840  -0.2146287   1.8123626  -1.4989881   0.6749995
  -0.0308417  -0.1186235   0.2438322   0.7254196  -0.7722635   1.2888369
   0.4847471   1.2547246   0.3209324  -0.0208980  -0.0889407   0.2409094
   1.0436826   0.5164328  -0.8382805   0.1456180   0.7573313   0.0707634
  -0.2334362   0.2501616  -0.1029227  -0.5466721  -0.0122157  -0.4254474
   1.2885090   0.3995416  -1.0387317   0.1692701   0.6225047  -0.1369966
   1.5774708  -0.4171380   0.9163107  -0.6608638   0.9736842   1.0163636
  -0.1058874   0.2285994   0.1082968   0.3861666  -0.8555725  -0.2907047
   0.0902459   0.7162712  -0.1562126   0.1462750   0.0533818   0.1510761
   0.4065817   0.8463827  -0.2079290   0.1161359   0.4129825  -0.2573901
   0.0169836  -0.1437264   0.0115833  -1.4487242   0.4096753   0.8718783
   0.4797298   0.0666970  -0.1333374   0.0703307   0.0468945  -0.2205025
  -0.2111194   0.8043357  -0.7566702   0.9432059  -0.0192941   1.4595801
  -0.0143885  -0.0562438  -0.0932133  -0.5118798  -1.2719517   0.5156775
  -0.0739836   0.5355988  -0.8489261   0.1163972  -0.1971859  -0.1958677
   0.5506601   0.0627233  -0.4239016   0.6034621  -0.2672157   0.9024555
  -0.0285329  -0.0149856  -0.2352871   0.3250014  -0.2545964   0.4527847
  -0.0218968  -1.2243404  -0.0573204   0.2592453  -0.0497719   0.2355083
   0.3167881  -0.1704642  -1.5493125   0.8919791   0.5030392  -1.1345303
   0.1563086  -0.2075528   0.0470860   0.2418966  -0.1547712   0.9018026
   0.7897259   0.2167650  -0.4096222   0.2607171  -0.0154376  -0.4821272
   0.7834199  -0.2840391  -0.3366036   0.2811169   0.7186558  -0.3483245
  -0.2940313  -0.0584242  -0.0342273  -1.1879397  -1.7386247   0.6977663
   0.7554108  -0.0306119  -0.8439794  -0.1348053   0.1873354  -0.0950958
   0.1008182  -0.9694127   1.5321334   1.0484883  -0.1068692   0.6529783
   0.0551938   0.5338864   0.0873763  -1.7683031  -0.4668654  -0.0849937
   0.5298841  -0.5383851  -0.4277567   0.0755254  -0.3861510   0.2660890
   0.7514236   0.0884268  -1.4338050  -1.1082236   0.3305696  -0.8346584
   0.1073371  -0.0215727  -0.0650671   0.6459127  -0.2352315   0.6867584
  -2.3488824   0.0132753  -0.2185526   0.1242706  -0.1170447   0.0523582
  -0.1376951   0.2662759   0.7995271  -0.7839579  -0.3473733   1.1215311
  -0.0022869  -0.0141300  -0.1476038  -0.3929520  -0.0432498  -1.5131302
   0.4999195   0.3184225   0.1718497   0.1786666   0.0670319  -0.2752575
  -1.3521624   1.1869810  -0.1767693  -1.2419590   0.6779163  -0.8164151
   0.0211256  -0.0046953  -0.2465741  -0.5219671  -0.6379989  -0.3316931
  -0.6288422   0.1229449  -0.1428950  -0.1320097  -0.0030171   0.1614979
   0.4370122   0.2431571   0.5235403   0.7344619   0.2502662  -0.5875302
   0.1492323   0.3143951   0.0378132  -0.0981912  -0.9817735   0.0188013
  -0.2896403  -0.6190085  -0.7447660   0.0280351  -0.0543830  -0.0619411
  -0.9647320   0.4255671   0.9552749  -0.5161555   1.3829241   1.3616084
  -0.1013328   0.2030882  -0.2532745  -0.2192022   0.0787198  -0.7227694
  -0.1772766   1.4483466  -0.7874086  -0.0372058   0.0709451   0.0985285
  -0.0993003   0.5927624  -0.1153547  -1.2174148  -0.3242369  -0.2116455
  -0.0018665   0.1078133   0.1613678  -0.1698950  -0.3551292   0.4875544
   0.8097948   0.8199819  -0.2862617   0.2279587   0.1741136  -0.1007713
  -0.0640016   0.5950855  -0.0370388  -0.5477486   1.1219486   0.5707454
   0.1030053   0.2858859  -0.0578314   0.4095851   0.1169984   0.5639154
  -0.3079978   1.3589396  -0.2666217  -0.0780380  -0.0203258   0.1541315
   0.0795280   0.4671733  -0.5705052   0.8830278   0.6007321   0.6280607
   0.1414926   0.1152868  -0.0106731   0.6895181   0.2268809   0.1596282
  -0.6517533  -0.5978961   0.3568607   0.1299136   0.4501031   0.0892638
  -0.1777136   0.6776465   0.6276540   1.2800090  -0.7119828   0.9897402
  -0.4942312   0.1798558  -0.1173842  -1.3033815  -0.2040974  -0.4448651
   0.2888020  -0.8131662   1.5258149  -0.1342738   0.0199332   0.1408484
  -1.1650280  -0.1224187  -1.4609940   0.6802688  -1.0201621   1.1354920
  -0.1163407  -0.1789227   0.2757112   0.1763413  -0.6196382  -0.1732749
  -0.7923984  -0.6411122   1.4169128  -0.0062015   0.0882553   0.0827239
  -0.2940680   0.2522793   1.8997039  -0.5988786  -0.7597775   0.7875424
   0.0054012  -0.1739819  -0.1064935  -0.5167953  -0.6352809   0.3190084
   0.2580675  -0.2894766   0.0447875   0.1950469   0.0177367   0.0620696
  -0.5370463  -1.2954244   0.7520916  -0.4506064  -0.7564656  -0.4738795
  -0.1885437  -0.1588658   0.0034243   0.9486496  -0.5133364   0.4429773
  -0.5916197   0.6618779  -0.4598995   0.0192975   0.2830662  -0.0336942
   1.1053787  -0.8710906   0.2933275   0.4427706  -1.8953946  -0.0155750
   0.1753769  -0.2736750   0.1814142  -0.9871440   0.6661914   0.0463465
   1.3794559  -1.4936226   0.6836228   0.2661785  -0.2168992   0.0627371
  -1.8784084  -0.5634934  -0.7757688  -0.1670346   0.5806120   0.3464210
   0.1086613  -0.0141261   0.2174578  -0.3772164  -1.0145112   0.3609791
  -1.0704331   0.8935257   1.0573670   0.1546371  -0.2496515   0.1661747
   0.9867004   1.1471446   0.8174939  -1.0870523  -0.2019421   0.9794045
  -0.2514504   0.0075364  -0.1273856   1.4056454   0.7737559  -0.0151286
  -0.0455774  -0.0958372   0.1691728   0.1775120  -0.2863890   0.1736935
  -0.0431191  -1.0803995  -1.4309468   0.2167995  -0.5503867  -0.3937233
   0.3286749   0.1540033   0.3044561  -0.4187008   0.8155552  -0.7456299
  -0.2769417  -0.8261522   0.9301866   0.1615161  -0.0668427   0.1401563
  -0.4420416  -1.4201310   0.6358097  -0.0174788   0.1499806  -0.3495503
  -0.1420516  -0.0540733   0.0642954  -0.7525837   0.9873505  -0.0924644
  -0.4776001  -1.7954653   0.9951880   0.1164489   0.2784011  -0.0199784
   0.4930635  -0.3840028   0.8128249   0.2405148   0.6471261   0.2936137
  -0.0438610   0.1571649   0.1521981  -0.7924894   1.3396204  -0.1142219
  -0.8368501   1.0868270  -1.1536856  -0.4562381   0.5280014  -0.1817833
   0.9809048   0.6337450   0.4497763  -0.7535269  -0.5501270  -0.0222698
  -0.0371391  -0.0976270   0.3870342  -0.4646462   0.2066144  -0.6614654
   0.0662444   0.2767290   0.3715536  -0.0834772   0.2270602  -0.1217392
   1.1189232  -0.6717048  -1.4984703  -0.1697239   0.7815493   1.1097699
  -0.1527584  -0.1169745   0.0989076   0.4713941   0.6089264  -0.1784839
  -0.8780642   1.0441142  -1.8569386   0.0299799  -0.2579502   0.1580050
   1.1941828  -0.5018709   0.2532805   0.5014446  -1.3567554   0.0923315
   0.3220356  -0.0023925   0.1961053   0.2398295  -0.1612152  -0.4501368
   0.3051203  -1.0689015  -0.4435675  -0.4011506  -0.0767682   0.3999734
   0.3766094   0.8744916  -0.6042773   0.3485727  -0.3363999  -0.2528147
   0.0992620   0.1405616  -0.0757971  -0.2853818  -0.6391077  -0.3521329
   1.2601409  -0.0630491   0.3479830   0.1276767   0.1270009   0.0688314
   0.1041772  -0.6395294  -0.6272459  -1.3382357  -1.1409175  -0.3735793
  -0.1560184   0.1822596  -0.1841008   1.2071252  -0.5716865  -1.1430354
   0.5276471   0.3279112  -1.6655106  -0.3687385   0.0253140  -0.2930953
  -1.2967220   0.1062098  -1.0021680   0.7468057  -0.2666221  -1.0034061
   0.1352853   0.0705557   0.2924084   0.2708541   0.7884592   0.1407997
   0.4791356  -0.6705607   0.0127131  -0.1693547  -0.0529276   0.0133053
  -0.2552166   0.3988769   0.0776965   0.0749588   0.3034179   0.2243423
   0.1262219   0.0402447   0.0666639  -1.5667841  -0.1261005   0.2067456
   0.4554392   0.3137421   0.0208640   0.4266203   0.0130308   0.1082881
   0.0710332   0.1794139  -0.8314478   0.3496005  -0.4783599  -0.2793303
   0.1885558   0.3053219  -0.1378298  -1.0511337   0.1302660  -1.7903487
  -0.6204902  -0.6425251   0.1070126  -0.0796935   0.0631200   0.0394064
  -1.2257404   1.9715638  -0.3160978  -0.3013435  -0.1640243  -1.0711179
   0.0964567  -0.3052951  -0.0079232   0.1000290  -0.8903708   0.4617669
   0.1041210  -1.4692323   0.2411016  -0.0746502   0.0990291   0.1172003
   0.0189642   0.4044015  -0.2687316   0.0262193  -0.7936798   1.8908470
  -0.2148773  -0.0391563   0.2894122  -0.6344721   0.3587859  -0.8534737
   1.1909699   0.0768431   0.1191346   0.2610096   0.1296301   0.1681457
   0.1716425  -1.3036456   0.1792007   0.3850526  -0.0535265   0.6227668
   0.1505297   0.1106141   0.2923285   0.2998554  -0.0223076  -1.1299101
  -0.3267439  -1.3322265  -1.1355662  -0.0556134   0.0782908   0.2358554
  -0.6971930  -0.6573526  -0.3244658   0.8596235   0.1617329  -0.3291357
   0.1452947  -0.1580614  -0.0275735   0.7513785  -0.2101165   0.7952322
   0.7293735  -0.0029991   0.6851078   0.1186569  -0.1997476   0.3927503
  -0.3572523   1.0951567   0.9167886  -0.2403046   0.6530502  -0.5928259
  -0.1279735   0.0594480   0.1900364   1.7237071  -0.5680829  -0.0586897
  -0.6610137  -0.8384166  -0.7941009   0.0732553  -0.0133572   0.0574683
  -0.3230760  -0.2205032  -0.2045646  -0.7226573  -0.5760877  -0.7565395
   0.1520346  -0.2455194   0.2803441   0.7593133  -0.2483145  -0.3360682
   1.2077580  -0.2750812  -0.4811846  -0.4170546   0.0647510   0.2521742
  -0.5145767  -1.2127723   0.1758282   1.0221536   0.4666387   0.1638973
  -0.0554280  -0.1840651  -0.1624235   0.0425009  -0.6788560  -0.7333567
  -1.0380350   0.1167870  -0.5987959  -0.1089814  -0.3881618  -0.3042145
  -0.1356210   0.5634756  -0.2368345   0.6055943  -0.0281132   0.7090145
   0.0338825  -0.3260422  -0.0582595  -0.0891419   0.2991589  -1.0809867
   1.1061264   0.7853186   0.2642349  -0.1850082   0.0360788   0.5315503
  -0.4656548  -0.1680660   0.0725052  -0.0387042   0.3689635   0.4702284
  -0.0888022  -0.0613330  -0.4977161  -0.1728027  -0.2299641   0.3132516
   0.5939198   1.5726419   0.2209413   0.4880086  -0.2206909  -0.0421211
  -0.4682407  -0.1893708  -1.5511128  -0.0964484  -0.6557237   0.0065451
  -0.2910135  -0.0096159  -0.0154337  -0.4099947   0.9209194  -0.7429331
   0.7433257   0.5121374  -0.5465239   0.1498891   0.2586017   0.1113231
   0.0196517   1.4235096  -0.0624474  -0.2646764   0.7802525   0.6549324
  -0.0758254   0.0366543  -0.1312665  -0.3755848   0.5035896  -0.2534349
  -0.5700979   0.7236123  -0.7847736  -0.1452986  -0.1644852   0.0295369
   0.6489172   0.6418655  -0.6689814  -1.1315204   1.0001085   0.3975872
  -0.3565816  -0.0810648   0.1487691  -0.4580768   0.1397415  -0.1974646
  -0.5345964   0.6929090  -0.4292232   0.1107338   0.0832880   0.0039725
   1.3429940  -0.3854217  -0.4511199  -0.3863194   1.5029846  -0.5443515
   0.3415985   0.1829493   0.4352161   1.4439858  -0.9087716   0.8770004
  -1.5148042  -1.2483975  -0.9520796  -0.1127229   0.2122194   0.1170880
   0.3195788  -0.2218303  -0.9032044  -0.2859689  -0.2720878   0.4438666
  -0.0319997   0.1650788   0.0993700   2.3309689   1.2802283  -0.0982595
  -1.3641412  -0.4345225  -0.5144923   0.2592363  -0.0077977  -0.0926852
   0.6638714   1.1523564  -0.2244577   0.6358477   0.0697221  -0.7654615
  -0.1505592  -0.2087366   0.0761099   0.5054652  -0.3261137   0.0997973
   1.3339816   1.0666054  -0.4886418  -0.1880558  -0.2523697   0.0491319
   0.6955221   1.4833038  -0.3410279   0.2740847   1.1656137   0.1865019
   0.4287078  -0.1394162   0.2266490   0.5240695   0.9981795  -2.1748051
   0.3513322  -0.8489043   0.3164607   0.0469853   0.0018855   0.0769861
  -0.3532995  -0.9066821   0.6530545   0.2757648   0.0767553  -2.2818886
   0.2161012   0.2007745  -0.0252603   0.2563965  -0.0310130  -0.9291827
   2.0659956  -0.4887692   1.6811010  -0.0369771   0.1633319  -0.0402939
   0.3015510  -0.2925675  -0.4234929   0.3100472   0.7593408  -0.6628230
   0.4352032   0.1139180   0.1599050  -1.0667883  -1.5219344  -0.7620170
   0.0470185   1.0636194   0.4048587  -0.0201260  -0.0320328   0.1091718
   0.2109261   0.4770890   1.3000330  -0.5856529   0.6536788  -0.4221878
   0.2346369  -0.2006714   0.0922080   0.0379024   0.1590359  -1.5253459
   1.8876880   0.3750645   0.0855467  -0.1980578   0.2602098  -0.0207614
   1.2695843   0.2701800   0.2749577   0.8063109   0.4028555  -0.4627388
   0.0464929  -0.1678612   0.2297897  -1.8125842  -0.8088912  -0.6313220
   0.2078434  -0.5127610  -0.8982198   0.0474064  -0.0105901  -0.1536869
  -0.1550568   0.2445639   0.2818372   0.8771229  -0.5683930  -0.2949094
  -0.2743576  -0.1280975  -0.0473976   0.5338453  -0.6409275   0.2451018
   0.3715112   0.1869474  -1.0759678   0.0316368   0.1070225  -0.1294537
  -0.0844631   1.2086283  -0.6734924   0.7867165  -0.3451864   2.1861940
   0.0047866   0.3701080   0.5315071  -0.6612144  -0.1078064   0.2541589
   0.3272818  -0.5066754   0.0627283   0.1709391   0.0013218  -0.1010068
   0.0943946  -1.0000290   0.8800276   0.5711094  -1.0918150   0.3836644
   0.2266703  -0.0598375   0.0237759  -0.0439387  -0.1101759   0.1870125
   0.4378347   1.3208870   0.1062094   0.0138278   0.1435449   0.2214678
  -0.0431037   1.4063232   0.5392333  -0.7069462  -0.4518885   0.6468511
   0.1062291   0.1067262   0.1492387   0.4267888  -1.1188128   0.7253864
   1.1794293   0.4692217  -1.0726117  -0.0959152  -0.1416141   0.0721130
   1.0065148  -0.8512141  -0.2249380   0.1445121   1.3215072  -0.7649933
   0.2048469   0.0476152  -0.2708152  -0.5287918   0.0120850   0.4807857
   0.8835987  -0.9036688   0.9180765  -0.1088004   0.0000022   0.0412916
  -0.8000482   0.6094970   0.6937079   0.1539240  -0.5806050  -0.6851569
  -0.3504904  -0.0980429   0.1993164   0.3917681   0.9342600   0.9880878
   1.2553767   1.2888168   0.0462201  -0.3029432   0.1904850   0.0313037
   0.6750217   0.2654682  -0.9628969   0.6630104  -1.2043721  -0.7082590
  -0.1578269   0.0343302   0.1168813  -0.9855246   2.5948535  -1.1191166
   0.0072718   0.0827741   1.4046785   0.1621837  -0.0839165   0.0593092
   0.2323055  -0.1917738  -0.2221333  -0.5446491   1.2031440  -0.1045548
   0.1575103   0.1572686   0.0169335   0.7067561  -0.1316312   0.9161223
   1.6113963  -0.5298387  -1.1237332  -0.3030444   0.2379384  -0.0612851
   0.3313164  -0.8147455  -1.2529128  -1.1754997   1.6189505   0.9493794
  -0.1438079   0.2111347   0.0693412   0.0308576   1.3695871  -0.7025463
   0.5094188  -0.4655487  -0.2604599  -0.2230981   0.2185223   0.0209382
  -0.4673171  -0.2033020   0.9333759  -0.7746889  -0.4403202  -0.6043238
  -0.2407555   0.0505824  -0.0400855  -0.0686936  -1.2872123  -0.1686786
   0.0428459  -0.8510674  -1.5734934   0.0339093   0.1629283  -0.2940991
  -0.0179175   1.1455865  -0.4914613  -0.4205881  -1.0079945  -0.2292499
  -0.1323612  -0.2422173  -0.1160622   1.5038434   0.0329577   0.5722285
   0.0849759   0.3717493   0.4645947   0.0726719   0.1383511  -0.3757013
  -1.1092416  -0.9063309  -1.6365318  -0.0452671   0.3447236  -0.2528134
   0.2251835   0.3209057   0.1283225   0.7269582  -2.4406589   0.1193302
  -0.0984938  -0.4183736   0.7528426  -0.0294155   0.1209491   0.2793159
  -0.3633153  -0.3230609  -1.5135783   0.7254563   0.2632248   0.0918588
  -0.1125703   0.0358936  -0.0378939  -0.0407337  -0.4838159   0.1318451
   1.2335056  -0.3940233  -1.1868070  -0.0820684   0.0220414  -0.2247303
  -0.7912773  -0.6798761  -0.4127034  -0.1089470   0.9823817   0.5150902
   0.0535399   0.0647301   0.1614519   0.2052321  -0.3902511   0.5786838
   0.4498353  -0.2494854  -0.5761070  -0.0063501  -0.0732523  -0.1768379
   0.6896030   1.1848736  -1.1644251  -1.1564915  -0.0723714  -0.0343216
   0.1065754  -0.2277123  -0.0093787  -0.7190169  -0.1218848  -1.9816994
   1.2876316  -0.0493516  -0.5276248  -0.1016855  -0.1441038   0.1754545
   0.2350334  -2.0674506   0.9489138  -1.4275057   0.2054511   0.0132445
  -0.1039762   0.0299222   0.1408535   0.2906913  -1.3756667   0.9230041
  -0.2897456   1.2842392  -0.9191795  -0.0679677  -0.0526067   0.1857605
   0.0661259  -0.0325466   0.8717981  -0.8669009   1.0039944   0.9809385
  -0.3056818   0.0569871   0.2662783   1.6968471   0.4812078   0.5665428
  -0.6946417  -1.0729108   0.0286218  -0.0351887   0.0612671   0.1561797
   0.2661388  -0.5929498   1.5318306  -1.0421853  -0.4917148   1.4527467
   0.2514612   0.0089175   0.2640755   0.4785683  -1.0000232   0.5881793
   0.2530316   0.1264654   0.5581050   0.1100309   0.4712486  -0.0461873
  -0.3804158   0.3362337   0.4819978   2.0434735   1.1472349   0.1440246
  -0.1087699   0.0293532  -0.0646903   0.4502039   0.4427474   0.2018983
  -1.1953279  -0.4075453  -0.9581829  -0.1817006   0.0075456   0.0294388
  -0.0561916  -0.0552244  -2.7716883  -0.2014768   0.1546541  -1.3154052
   0.0398541  -0.2758687   0.0165496  -0.4269635  -0.1474308  -0.2633545
  -0.4645266   1.3288674   0.6290355   0.2279561  -0.0113374  -0.2687476
  -0.4740277  -0.0452600  -0.0253346  -1.8724217  -0.9614899  -1.0331061
   0.0554100   0.1527487  -0.2491570   0.4109476   0.4064651  -1.7024423
  -1.3031617  -0.3510507   0.3167931   0.3520665  -0.1077889   0.0349840
  -0.3924780   1.8645251   1.6249776   0.6418947   0.5664282  -0.5864026
  -0.4288107  -0.2911895   0.1200495  -0.3737708  -0.3575651  -0.5485351
   0.7257044  -0.3907291   0.5262337  -0.0339906  -0.0503769  -0.0237091
  -1.0094007   0.4063899  -0.2701299  -0.1549798   0.7802959   1.1005123
  -0.5036077   0.0130637  -0.1300997   0.0033244  -1.0994528  -0.5825969
   0.7304124  -0.5442257  -0.6917263   0.2121044  -0.1269247   0.0870816
   0.8955648   0.5186790   2.1180172   0.2364227   1.5661823  -1.2282478
   0.0404651  -0.0089706   0.0878549  -1.1277839  -1.7017388   0.3519154
   0.1844170   0.0564950  -0.7944421   0.0554505   0.2247498   0.0331518
  -0.0228119  -0.6032147   0.1965557   0.1531372  -0.0364562  -0.9504726
   0.0033957   0.0119591  -0.0190696  -1.8285284   0.1631500  -0.5786614
   1.5153056   1.5300891  -0.6790948  -0.0015552  -0.1094763  -0.3651627
   0.7349749  -0.5311162  -0.5185743  -0.7512728   0.8434250  -0.9579591
   0.0853226  -0.0752817  -0.1637565   0.6474049   0.5775114   0.2482480
  -0.8789228   0.0478317   0.4564002  -0.2432523   0.2129690   0.1606561
  -1.6263769   0.8477729  -0.2670669  -0.0247968   0.5051511  -0.1528744
  -0.0972379  -0.4789486  -0.1944257   0.2370965   0.4087439  -0.5325693
   0.1947506  -0.3350269   0.7804293  -0.2552055   0.2736491   0.3238838
  -0.8253076  -1.0022916  -1.0439612  -0.4164177  -1.3146690   0.5667475
   0.1291567  -0.0136316  -0.3045105  -0.4969909   0.0359423  -0.6726752
  -1.2564734   0.7487433  -1.0232253   0.1395904  -0.0672435  -0.1200658
   0.4803771  -0.2523850  -0.2630299   1.9475772   0.3653110   0.8405704
   0.3353592  -0.2925297   0.1146852  -0.2016528   1.3299020  -0.9910049
  -1.3516266   0.1159523  -0.3023805   0.0049394  -0.3126872  -0.1072754
   0.3609751  -0.3617168  -1.1560018   0.2491378  -0.1626267   0.0402477
  -0.1483035  -0.1759335  -0.2817099   0.6645212   0.5811541  -1.3195314
  -0.8894064  -0.1468414  -0.2348106  -0.3027353   0.1946547   0.0387454
   0.4946968   0.1561046   0.7037278  -0.8686068   1.6280408   0.8158122
   0.1306017  -0.1084010  -0.3332760  -0.7040042   1.0084008   0.3008760
  -0.8932039   0.2767695  -0.2934282   0.0200844   0.1532620  -0.4142264
  -1.1692883   0.8074888  -0.6274348   0.0978622   1.4690480   0.5342515
  -0.0262958   0.2066673  -0.1977713  -0.5596225   1.2633589  -0.2950938
  -0.1797028   1.3985462  -0.6898736   0.1760436  -0.1606406   0.1075310
  -0.1729769  -0.8790996   0.1561915   0.0140971  -0.6492146   0.0648551
   0.0359436  -0.0084527  -0.0656966   0.4119132  -0.1151768  -0.0673788
   0.5897859  -0.2377242   0.4888779  -0.3614892   0.1420389  -0.0821437
  -0.4788051   0.3650771  -0.6225082   1.3938233   0.0960204  -0.4534031
  -0.1060549   0.2685047   0.3165860   0.4557890  -0.7876540  -0.0238587
  -1.8921461   1.8868263  -0.2251879  -0.0565195  -0.4290287  -0.0049838
   0.9099785  -0.3350554  -0.6525775   0.3145154  -0.5227010   0.4783386
  -0.4526245   0.0921706  -0.0015347  -0.7240794   0.6238017   0.0712918
  -0.0353907  -0.1915989  -0.0891404   0.2872293   0.0892002   0.0993789
   0.4224288   0.5946211   0.0588393  -1.0201591   0.1233075   0.0458610
  -0.3063727   0.0191660  -0.1784990  -0.3899734  -0.2322788  -0.6276132
   0.9339602   0.8458092   0.5947875   0.2466417  -0.1959070   0.1176317
   0.1060459  -0.1968329   0.8517757  -0.1687915  -0.9363472  -0.3791493
   0.1187835  -0.1703699  -0.0759301  -0.8195961  -0.4665878  -0.0934800
   0.5035493   0.3972153   0.3562856  -0.1372273  -0.3925201  -0.0627692
   0.8610907   0.1940248  -1.4217708   1.2505902  -0.8043839  -0.9491782
   0.1042623  -0.0833744  -0.0043055  -0.2122089  -1.8529548  -0.5977668
  -0.7484518  -0.2729335  -0.3298823   0.1332720  -0.0702692  -0.0279408
   1.3896965   0.4382604  -0.5164898  -0.0021929  -1.2728883  -0.5084278
  -0.2682224   0.3238831   0.1047580   0.3709892  -0.4121042  -0.1991134
  -0.4174431  -0.0473511   0.7480855  -0.1030455  -0.2388268  -0.0725951
   0.0908383  -0.1778782   0.4251045  -1.4260573  -0.6768737   2.2677279
   0.0106485   0.0701233  -0.0245970  -0.0804002  -1.3488272  -0.6755450
   1.8119224  -0.4653051   0.8664340   0.4079962  -0.0990212  -0.4621444
   0.9454897  -0.8013568   0.5929221  -0.0770858   0.5001294   0.4707909
   0.1778985   0.2956550   0.0712781  -0.8848466   0.8549805  -1.9496644
   1.2751392   0.2436969   0.9972398  -0.2906287   0.0815036   0.2553984
   0.0918335  -0.0514043  -0.5337553  -0.4962945   1.4254715   0.4733393
   0.1036934  -0.0780283  -0.1854533  -0.9880032  -0.2694581  -0.0380062
   0.6758667  -1.2288269  -0.5006755  -0.1262753   0.0223295  -0.5211198
  -0.2069903   1.1474361   0.3720160  -0.1272569  -2.0066725   1.1258841
  -0.0831004  -0.2841976  -0.1453518  -0.0205742  -0.5468258   0.6586406
  -0.6766766   1.3792375   0.3996677   0.2362816  -0.3089823   0.1755785
   0.2539889  -1.6442708  -0.4077785   1.7376044  -0.0726296   0.4031490
   0.0083163  -0.0347796  -0.0425041   0.8064792   1.4299710  -0.8149673
   1.0254570  -0.9533124  -0.6319661   0.0044045   0.1394355  -0.0142524
  -0.6773022   0.7698805  -0.4869068  -0.0190699  -0.2760260  -0.6649588
  -0.1347070   0.0913683  -0.2088731  -0.0893284   0.3163496  -0.2319623
   0.9612556  -1.7234489  -0.0526671   0.0715743  -0.2221935  -0.1698320
  -0.6757860   0.4348865  -0.7192149   1.1876904   0.5703252  -1.2197231
   0.0644538   0.0392543   0.1374488   0.8621910  -1.3242703  -0.0749585
  -1.1419674  -0.8396351   0.4105543  -0.0633053  -0.0055715  -0.4419251
  -1.7567584  -0.7385448  -0.9576865  -0.0987727  -0.0787771   0.3561213
   0.3164289  -0.1991870   0.0691429  -0.1127816  -0.6427009   0.2339439
  -0.3342908  -1.3422251   0.5844622   0.3525428  -0.0257640   0.0372474
  -0.2621598  -0.2246640  -0.1759161   0.0688505  -0.4184513  -0.0282167
  -0.1614053  -0.2724826  -0.1777277   1.3870285   0.2834566  -0.0944700
  -0.3237844  -1.1440310   0.3269978  -0.2034824   0.1729320  -0.3261644
  -1.2356267   0.1524509   0.0071759  -0.5701893  -0.9846231  -0.1022576
  -0.0023973  -0.0038137   0.4083094  -0.9642454  -0.7050567   1.0395067
  -0.3183222  -0.1778052  -2.1180748   0.2444570   0.0267054   0.1456867
  -0.0063019   0.2978500  -0.0865067   0.8657237  -0.9297888  -0.2919779
   0.2989278  -0.0023859   0.0211176   0.4093130  -0.3732505  -0.5148747
  -0.3745657  -0.4794428  -0.4382358  -0.0646008  -0.2951209   0.0565923
  -0.3426033  -0.0986403   0.2565396   0.6693857   0.2777198   0.4130760
  -0.1145379  -0.0969835  -0.0953603  -0.4229336   0.7356854   0.0852559
   0.0012812  -0.0590750   0.8070913  -0.2194023  -0.0129509   0.2179202
  -0.5709812  -0.1098013   0.4240606   0.9710831  -0.8077372   1.9349948
   0.3475967  -0.0089576  -0.3119310   0.6770512  -0.7421193  -0.5343512
  -0.9114434  -0.4662242   0.0501017  -0.1077823  -0.1117888   0.0108551
  -0.7113740   0.5157193  -0.1487532  -0.4288933  -1.2940757   0.7743639
   0.2608863   0.0677665   0.0269934   0.5291308   0.7056972  -1.2601206
   0.1457571   0.8624131   0.8885990   0.2425425  -0.1388123  -0.2160161
   0.5953294  -0.2885045   0.4882988  -0.0456501   1.4392750  -0.8989235
   0.0377126  -0.1238346  -0.1106003   0.0079714  -0.7235379   0.5008205
  -0.8214503  -0.0801603  -1.2275167   0.0487973  -0.2795015   0.2346078
  -0.6673376  -0.3290022   1.2522534   0.2978341   0.5725402  -0.3438608
   0.2446038   0.1303449  -0.6252610  -0.7894390  -0.2020646   0.6437806
  -0.4657910  -0.3931647   0.6755167  -0.0511369  -0.0221449  -0.0578002
   0.2147416  -1.7107935  -0.4150019  -0.7718683   0.3690009  -0.3191982
  -0.0417387  -0.1947246  -0.0499877  -1.0815935  -1.2064271   0.1987572
  -0.4807782  -0.5964660  -0.7779107  -0.5413411  -0.0136286  -0.0847853
  -0.4350729   1.1387093   0.1374880  -0.5824299   0.0014101   0.1382969
  -0.0212334   0.2871346   0.1241286  -0.3705305  -0.3119908   0.6174024
   0.1023365  -0.0506197  -0.3737002   0.1538277  -0.0722064  -0.1957557
  -0.6655395   0.5545788   0.5441341  -0.0905578  -0.2665711  -0.6594912
   0.1878585   0.2107362  -0.0339423  -0.3949787   1.8074523   0.1463009
   1.3406729  -0.3227111   0.8349917   0.1243421   0.0495482  -0.1011753
  -0.0098834  -0.3495770  -0.7994561  -0.0181839   0.7476993   0.2042053
  -0.0594294   0.2733296  -0.0480173  -0.8004805   0.0029278  -0.1340573
  -0.2191785  -0.3640503  -0.9243375  -0.1437821   0.1479422   0.2151269
   1.3114533   0.3436357   0.4347655   0.4414571  -0.9749266  -0.7790325
  -0.0584736   0.0420689  -0.1025843  -0.1202431  -1.6186260  -1.2206965
  -1.5754970   0.6761043   0.3262123   0.0048341   0.0841454  -0.0920827
  -0.6537645  -0.2298848  -0.7524594   0.1875781  -0.2399913  -0.1447744
  -0.3481007   0.1031660  -0.0660554  -0.2772491   0.0662476  -0.8933957
   1.0510192  -0.6746467   0.4199878   0.0888496  -0.5078316   0.0423618
   0.4181544  -0.6031212  -0.2570310  -0.3522405   0.8805930  -0.0437286
  -0.0965631  -0.0580459  -0.1886706  -0.3313105  -1.9954500  -0.7318401
  -0.4340633  -0.5662408   0.6684042  -0.1381173  -0.4130839   0.0210229
   1.1284736  -0.5011477  -0.1557603  -0.2277236  -0.7675096   0.9089488
   0.1808240  -0.5018656   0.1923359  -0.4827331   1.0212952  -0.5371990
   0.2493208  -0.2724868   0.0506054  -0.1034084  -0.3065914  -0.3301079
  -0.6631293  -0.3066837   0.3076754  -0.2126640   1.0170179   0.0600288
  -0.2124499   0.0119332  -0.0042909   1.0597346  -1.3814427  -0.3207470
  -0.7940069   0.5815931  -0.2079741  -0.2285784   0.1856722  -0.2355595
   0.2587649   0.9359440   0.0054556   0.0783086  -0.9958379  -0.6055573
  -0.1925162  -0.0397022  -0.0077670  -0.3045449   0.1678613  -0.3447467
  -0.3586573   0.8956818   1.6953760  -0.0899632   0.1757122   0.1152067
  -0.1661947  -2.2568071  -0.5034938   0.7748425   0.4837285   0.6054052
   0.1933056   0.1645101   0.1984998   1.1057194   0.6463581  -0.9145213
  -0.2816399   1.3037123   0.0831210   0.1009739  -0.0858718  -0.5049234
   0.5234199   0.8504511   0.2362087   0.5935679  -1.8190491  -0.4726389
  -0.0143945   0.1831645   0.0644197  -1.1850911   0.0503809   0.2263909
  -0.7483816  -0.5465146   0.4279984  -0.2148509   0.0513832   0.0788942
   0.8795211  -0.2005747   0.6705783  -0.5354280   1.1598024  -1.4809434
   0.1864963  -0.2287587   0.0383059  -0.8857579  -0.5198390   0.4190802
  -1.3454629  -1.5949574  -0.5330725   0.1338013  -0.1715675   0.2072619
   0.5787270   1.5929223  -1.0068267  -0.1441785  -0.9122675  -0.6236554
  -0.3498039  -0.2262423   0.0487858   0.1227679  -0.3707413  -1.1536295
  -0.1085084  -1.0049916   1.2718490   0.0002409  -0.0784309   0.1736356
  -0.3912567   0.1939798  -0.7463223   0.3641852  -0.6119913   0.2413062
  -0.1681561  -0.0972466   0.0893906  -0.6187925   0.0981437  -0.7904888
  -0.3269153  -0.9090538   1.5126017  -0.1830835  -0.2435973   0.3149727
  -0.6905246  -0.1821413   1.6893095   0.1973556   0.8681009  -0.9470942
   0.3707678  -0.0207040  -0.1025831   0.5976441  -0.9507455   0.3358382
   0.2599024  -0.1848242   0.8029368   0.1322625   0.0474906  -0.2263080
   0.1450653  -0.0194655   0.6829855   0.0187551   0.3572419   0.2221410
  -0.3464360   0.1990901  -0.4827207   0.3171636  -0.0082959   0.0041846
  -0.1250181  -0.6110927   0.6735980  -0.1344408   0.3062795   0.1037206
  -0.7790553  -1.0794583   1.1677038  -1.8383649   0.8355707   0.7693073
  -0.0271528  -0.0910128  -0.1311985   1.1966151   0.0692817   0.5969517
   0.0518719   0.0335346   0.5933530  -0.3030093  -0.1386653  -0.1318234
  -0.0335308   0.0841750   0.1850056   1.1670224  -0.3221190  -0.6899849
  -0.0968325  -0.1583282   0.2786454  -0.3854672   0.2085917   0.0271023
  -0.0091772   0.2404345  -0.0331806  -0.5260213   0.0447180  -0.0124409
  -0.0734815   1.3752380   0.2945560  -1.4219074  -0.8751103  -0.6625102
  -0.2568262   0.0468562   0.0885612   1.2909803   0.2595048   0.8324768
  -1.2646215   0.2141042   0.4099582   0.1751872   0.0801963   0.2740817
   0.1368991  -1.2849072  -0.3606839   1.0395881   0.8152332  -0.1531689
  -0.0228694   0.5038739  -0.1651729   0.4036434  -1.1563612   1.7832232
  -1.2465422  -1.1612121  -1.0023747  -0.0222046   0.1560855   0.1296097
  -0.1049016  -0.2804765  -1.1002895  -0.4489725   0.4706355  -1.5384937
   0.4159705  -0.1204702  -0.0070087   0.3985018   1.6882509   0.1482822
  -0.0995579   0.5094565  -0.5278199  -0.1784619   0.1299753  -0.3122183
   0.6476013   0.4175112   0.7828703  -0.2740843  -0.1553397  -0.9180145
  -0.0614119  -0.1995759   0.1406374   1.1361735   0.4841639   1.1949601
   0.8618009   0.4558924  -0.2367030  -0.1679416   0.1980869   0.0726397
   0.7259137   0.4475460  -0.5102252  -0.1814345  -0.7446613   0.7580199
  -0.1062136  -0.1454671   0.1483101   1.2258956  -1.3591473  -0.5095163
   0.1198155   0.0888220   1.0395697   0.3990795   0.2244447   0.1027731
  -0.4460605  -0.6580771   0.0496533  -0.0453417   0.1167665   1.4536310
  -0.3990561   0.1443559   0.1348171  -0.2480204   0.8134934   0.2850266
  -1.4372684   0.2533137  -0.1948581  -0.3859473  -0.2540986  -0.3604544
   0.8563790   0.8689175   0.5354099  -1.0714971  -0.9356929   1.5374604
   0.0310617  -0.1304921  -0.3520975  -0.1527606  -0.4151833  -0.1150835
   0.5408457   0.7009743   1.1833953   0.0853711   0.1442012   0.3720136
  -1.2345512   0.1558430  -0.3725120  -0.7311074  -0.3792814   1.0303755
   0.0300734   0.1488178   0.0323998  -0.3365457   0.2300660  -0.2322735
   0.3882885  -1.0704535  -0.9043688   0.0363698   0.3552310   0.0945527
  -1.4475381   0.8116656  -1.0337782  -0.6078689   0.2739032  -1.1374906
   0.0063839   0.3614014  -0.0437365   0.3377241  -0.7115056   0.3990131
   0.1592358   0.0944829  -0.0346349  -0.2609176  -0.1897825  -0.0494272
  -0.9919190  -0.4674892  -0.4002180  -0.4860725   0.6810392  -0.7256563
  -0.2801474  -0.1262432   0.0999898  -1.4666970   0.3758753   1.0581454
  -0.4369694   1.0798927  -0.7566800  -0.1292773   0.0208925   0.0456925
   0.2435638  -1.2482018   0.1355319   0.7339079   0.1181813   0.1970882
  -0.0881680   0.2663585   0.2770013  -1.0092062   1.4535208   0.1635365
  -0.9458849  -0.1501615  -0.2992701  -0.2511280   0.1793329   0.0815141
   1.0290671   0.5792565   0.8828146   1.2280748   0.4218626   0.7694703
  -0.3738895  -0.0867431   0.2144812  -0.5719805  -1.0376245   0.4235576
   0.4000224   0.1098868  -0.8522664   0.1547200   0.0765519   0.0030075
   0.4395509   0.4241878   2.2918187  -0.7275856   0.5727305  -0.3189786
   0.3653277   0.0416888  -0.0789563   0.1546841   0.4498033   0.7772365
  -0.2753739  -0.0982785   0.7159881   0.1528933  -0.1527035  -0.0161737
   0.8176883   1.2649424   0.4126659   0.2033825   0.5776920  -1.2409241
  -0.0041148   0.4889393   0.0149935  -1.8568514  -0.5607935  -0.8605806
  -1.4749493   0.4651664   0.1629895   0.1044836  -0.0810505   0.3717524
  -0.8706677  -0.8377951  -0.0477432   1.0922783  -0.3967704  -0.7309510
   0.2660895  -0.2315731  -0.0442491   0.7397530  -0.4222831   0.1477892
   0.3794446   0.1043410  -0.1299223   0.0356207   0.1828451  -0.0536523
  -1.1770210  -0.1529883  -0.0891508   0.3821791  -0.0905236  -0.4336016
  -0.1052979  -0.0693071   0.2986656  -1.4969502  -0.1435833  -0.4618825
   0.1542197  -0.8773208  -0.3680722   0.1165419  -0.1406981   0.0403899
   1.3726025  -0.6217209   0.5877259   1.3206236  -0.2737278  -0.0645215
  -0.0969110   0.2931539   0.3220826  -0.0861494  -0.5634126   0.1722489
   0.2787917   0.0940757  -1.1590588  -0.0374933  -0.6796042  -0.2435559
  -0.6941797   0.3668257   0.2583089  -0.5363851   0.1084918   0.8274880
  -0.1365081  -0.4328241   0.0858230  -1.3103220  -0.1482744   1.1944780
  -0.5670332   1.7822027   0.0167048   0.1344120  -0.0545898   0.3460938
   0.8350438   0.0414354   0.5704559   1.1831227   0.7774933   0.0226254
  -0.0930272   0.2459867   0.1750949   1.8516840  -0.8722847   0.1949084
   1.0237490   1.2575289   1.4979173   0.2871340  -0.0725946  -0.0730707
  -0.5306289   0.6986730  -1.1015738   0.2325451   0.5664204   0.2614678
  -0.0308156   0.4794897   0.2651466   0.0792091   0.4820544  -0.5330425
  -0.6607369  -0.3615427   1.2615438  -0.2571178  -0.0104532  -0.0674263
   0.5985076   0.2779864  -0.7799678  -0.2273089   0.6842842   1.0320680
  -0.2236558   0.0537171   0.2068584   0.5615224   1.0316585  -0.8710212
   0.8505931  -0.2959580   0.1827067  -0.0516883  -0.0873803   0.0425414
   0.3772725   0.0806547   1.4538923   0.7129697  -0.1868249   1.3915171
   0.0869169   0.0836733  -0.3480389   0.4930064   1.2397316  -0.1005520
   0.4420294  -0.2647145  -1.1513528   0.0394372  -0.1920553  -0.0169266
   0.6037875  -0.2536909  -1.1518730  -0.5842719   0.4463162   1.2229946
   0.0435336   0.4149317  -0.1083701  -0.3011498  -0.0673399   0.2757048
   0.0804739   0.2499431   1.0358767   0.1727900   0.0998454  -0.3485053
   0.1905458   1.1103254  -0.0124463   0.9306311  -0.2271012   0.4554856
   0.0498408   0.1544263   0.2012426   0.1794710  -0.0569545  -0.0450838
   0.8015947  -0.4450624   1.2793272  -0.1066259  -0.0384224  -0.3127520
  -1.3037299  -0.0335908   0.0550286   0.5111523   0.6948901  -1.4095687
   0.2887966  -0.1031594  -0.0974057  -1.7484415  -0.0021166   0.6682937
  -0.6230725  -0.2345619   1.0162060  -0.2533459   0.2005770   0.1961726
  -0.4280942  -0.9513205  -0.2823518  -0.2666960   0.8903110  -0.8602368
  -0.2243785   0.1626800   0.0183845   0.0128856  -1.2963616  -0.5873216
  -0.2559650  -1.0903738   0.6257563  -0.0788223   0.0160673   0.0703481
  -0.4398896   0.2694594   0.4664065  -0.1449461  -0.2817902  -0.5285856
   0.2527230  -0.1703330   0.3073111  -0.9739942  -0.8126876  -0.8584283
  -0.4249416  -0.8852732   0.6046259  -0.1249858   0.2053867   0.1490761
   0.0079281   0.9935904  -0.1661769   0.5298804  -0.8172504  -0.4217399
  -0.1197257  -0.2779657  -0.3387101   0.0061399   0.1161338   0.0626560
   0.2572221  -1.4353798  -0.6385550  -0.2559085   0.1690168   0.3542706
   0.0636392  -1.0631589   0.8756913   1.8191134  -0.1518450  -0.0953751
  -0.0313925  -0.1595531  -0.1787661   0.4569036   0.1170794  -0.7755102
  -0.5167206   0.6327320  -0.5954704  -0.0618699   0.1403276   0.0318680
   0.9818821   1.1509438  -0.0174366   0.0862819  -0.7341531   0.9606698
  -0.0178654  -0.2501811   0.2130158   0.3116896   0.8835639   0.0847058
   0.1615701  -1.2098822  -0.4582833  -0.2083720  -0.0785542   0.0375820
  -0.3319506  -0.7147571  -0.5387577   0.7426113   0.4964965  -0.4169280
  -0.0233652  -0.1087412  -0.3304287   0.8726495   0.4496915  -0.8215078
   0.5961521  -0.8541059  -0.5744592   0.0112200   0.0337389   0.2834458
   0.2952015   0.6050470   1.6456301   0.9793695   1.1080188   0.7373045
  -0.0708370  -0.1888928   0.1612539   0.6519555   0.8880098   0.3751406
   1.2356480   0.0629226   0.7114365   0.0667361  -0.2170327   0.0983815
   0.4157577  -1.8950324   0.4619411   0.2026353   0.2455782  -0.0507219
  -0.1483672  -0.0420061  -0.1164830  -0.3106136  -0.2116425  -0.4666863
   0.6897004   0.0843687  -0.3883991  -0.1447557   0.2192748  -0.1816582
  -0.6626084  -0.8721839   0.0587132  -0.0266519   0.1184217   0.0243214
  -0.2794812  -0.0210107   0.2502640  -0.3200453   0.4175822   0.5566572
  -0.8410157  -0.4263946  -0.3205832  -0.0228465   0.2312909   0.0271908
   0.2133144   0.4059699  -0.2046425  -0.6401432   0.6594540   0.1340922
  -0.4015406  -0.0047919  -0.2995093  -0.3748452  -0.4794703   0.2464906
  -1.8957531   0.6904225  -0.4444234   0.3176762   0.1483745  -0.0135882
  -0.0628291  -0.7772927   0.6035276   0.3576966   0.3187731   0.3886986
   0.0674447  -0.0919532  -0.3576587  -0.4168605  -0.4739972   0.7371593
  -0.3768341   0.0448208  -1.6810479  -0.1259023   0.0401451   0.2608097
   1.7354331   1.3821136   0.5459479  -0.0645824   0.8543585  -0.9203317
   0.2009942  -0.2267317  -0.0616746   1.3128119   0.3758646   1.0141797
   0.6453162   0.2562595   1.6972809  -0.0485787  -0.1677872  -0.0228286
  -0.8220550  -0.7718099  -0.9683344   0.5168470  -0.2821227  -0.1214445
   0.0785061   0.0636514   0.2143992   0.9611847  -1.2289005  -0.0083741
   1.1827612  -0.0649659  -1.2479128  -0.2109304  -0.1772392   0.0426741
   1.8019510   0.6239448  -0.2548959   0.3237237  -1.1168440  -0.2834569
   0.0400174  -0.1490193  -0.0721551  -0.5435650  -0.2959478  -0.2405354
   0.5543243  -0.3913647   0.0386049   0.0639485   0.0481934   0.0845721
   0.8601600   1.1101480   0.1894321   0.2071759  -0.8843072  -0.8220533
   0.5229884   0.1313799   0.3006548   0.5722529  -0.0742104  -0.8919712
   0.2248605   0.9341898  -0.1815146   0.0982654   0.0678708  -0.0491051
  -0.7835213   0.0247066   1.0569200  -0.0886060  -0.5870479  -1.4984362
   0.1215990   0.0697320  -0.2773583   0.6084252  -0.8872984   0.6335931
  -0.0355325  -0.0026729   0.0204470  -0.3372857  -0.1854262  -0.2349554
  -0.5436220   0.5058289  -0.4840556  -0.6267867  -0.9731497   0.4440298
   0.3201562   0.3268245  -0.0574448  -0.0986832  -1.4712299   0.3614665
  -0.1694381  -1.0005284  -0.6502127  -0.2307011   0.3040016  -0.0518416
   0.0973117   0.2606464   1.6181027   0.2232502   0.8318804  -0.7265725
  -0.0389985   0.1064132   0.1110087  -0.9937954   0.4240957   1.2816201
  -0.5645977  -0.1791314  -0.0510093   0.1132386   0.2897833  -0.0191517
  -0.5359148  -1.2632138   0.4099117   1.3985376  -0.8585295  -0.1623059
  -0.0357130  -0.0904490   0.0402041  -0.5515834  -0.0872937   1.0644753
   1.2680819   0.3260129   2.3063408  -0.0288644  -0.0328419   0.5166625
   0.7073791  -0.0846190  -0.3625671  -0.5306487   0.5697389   0.0344279
   0.0199123   0.0187892  -0.0533486   0.3882594  -1.7950714  -0.6168750
   1.0486996   0.1061164  -0.1320310  -0.2359052  -0.2875054  -0.3786569
   0.3869101  -0.8562890   1.1062991   0.7383664  -0.8673523   0.8568402
  -0.0129526   0.0100017   0.0818499   0.6040214  -0.2421243   0.4206687
  -0.0883379  -0.6623040  -0.1482672  -0.1893043   0.2302170   0.2424435
  -0.9366683   0.1781602  -0.4489822  -0.0105725  -0.1845783  -0.4660177
  -0.1610589   0.2044557   0.1985992   0.5436272  -1.7661862   1.4103971
  -0.6788408  -0.6626084  -0.1920838   0.0836167  -0.1317324  -0.2984814
   0.3931028  -0.6157360   0.9014433   0.9219592   0.0496490  -0.1133315
  -0.0054190  -0.0134168   0.2677422  -0.3358473  -0.4343572   1.0066912
   0.4419550  -0.8934020   0.6725224  -0.2090059   0.0495891  -0.1784087
   0.2651203  -0.3373543  -0.8161546  -1.8652466   0.3351042   0.1031680
  -0.1370272  -0.2051482  -0.0013753  -0.4948403   0.6543751  -0.6843686
   0.2606513  -0.3475439   1.2641982  -0.1872867  -0.0172808  -0.3429489
  -0.4067189  -0.5858560  -1.2732018  -1.8991436  -0.5578693   0.3226757
   0.0338660   0.1029027  -0.0594191   0.8288238  -0.7721584   1.2927853
  -1.0161360   0.1049313  -1.2253587  -0.2326286  -0.2798121   0.1574630
   0.7350648  -0.2818148  -0.8137073   1.4022495  -0.0234168  -0.3110290
   0.1933598  -0.0080299  -0.2411197   0.3710638   0.4234247   2.1070389
   0.2554323   1.2430811  -0.5108810   0.0386414  -0.0667755   0.1295656
   0.4743868   1.8655723  -0.1436100   0.0208978   1.0853704  -0.3854101
  -0.0232495  -0.2156611   0.4083758  -0.1525687   0.3792682   1.5531968
   0.0411889   0.3971122   0.1003041  -0.1215878   0.0205540   0.2138654
  -1.3216674   0.5970920  -0.2150549  -0.9111140  -0.3035320   0.5401768
   0.1127263   0.3128092  -0.1951393  -0.4819925   0.5252506   0.1334608
  -0.0032501  -0.3871554  -0.3217194   0.0881537  -0.0541072   0.2702748
  -0.3711760   0.5559003   0.1346772   0.6696234   0.7371295  -0.3860138
  -0.0858107   0.4070397  -0.0747152   0.3774980  -0.3700400   0.6832071
   0.5110863   0.6685429  -0.2999760  -0.0195382  -0.0050440   0.1230161
  -0.8740637  -0.2557566  -0.3945743  -0.8861284   0.4515149  -0.5453584
  -0.0073344  -0.0137607  -0.0679222   0.6664979  -0.4285420   0.3877003
  -0.5979684   0.1882871  -1.2475596   0.1703577   0.0297121  -0.0066208
   0.2403323  -1.1820587  -0.1907272  -0.2062948  -0.8658315   0.2754771
   0.0744547   0.0162746   0.3426712  -0.8801966   0.1014888  -0.2327745
   0.4130211  -0.2651127   0.5920571   0.1493137   0.1262587  -0.0375135
   0.5161315  -1.7243952  -0.7124154  -0.1027301  -1.3810748  -0.0868002
   0.1619500  -0.1732211  -0.2585845   1.0631143   1.3726593   0.4504579
   0.3458599  -1.1294868  -0.5754701  -0.1179448   0.0472830   0.0099454
  -0.3872353   0.8130333   0.2803283  -0.4417926   0.3098907   0.2867807
   0.0077617   0.1634447   0.1426718   0.1975572   0.9334944  -0.0585556
  -0.1787934   1.0639895   1.2539880   0.2335840  -0.3559120  -0.0229472
   0.1014920   0.8237671   0.3270051   0.1386066   0.1391902   0.0459671
   0.4199407  -0.0178471  -0.2523224  -0.5503298  -0.3838455  -0.5468538
  -1.5901793   0.1449185  -0.3058281  -0.0150883   0.0709553   0.0556851
   0.4291136  -0.7933124  -0.5318762   0.2087684   0.1432667   1.0908033
   0.0604758   0.1871650  -0.0649089  -0.0006666  -0.7304563   1.1786859
  -1.0931098   0.3663917   1.3820366  -0.1389468   0.2376086   0.1645733
   0.6037740   0.3910526  -0.8881017  -0.9432407  -0.5702346  -0.0167949
  -0.2251480   0.3156843  -0.1440481   1.0677319  -0.4958270  -0.3908532
  -0.0687895   1.3126253   0.0860976  -0.0686152   0.1003173  -0.0863317
  -0.0689302  -0.8683830  -0.0715523  -0.0707622   0.1274134   0.2846512
  -0.0322862   0.2226167  -0.1527157   0.4444350  -0.7471530  -0.3652790
   0.7279984   0.7526371  -0.2681060   0.1771746   0.0594035  -0.0712674
   1.0790045  -0.3533458  -0.2551747   0.3375959   0.8584806   2.2564205
  -0.1132820   0.1807495  -0.1903786  -0.4281722   1.4400800  -0.3286879
  -1.6057761   0.3801469   0.6158578   0.1847355  -0.3776800  -0.0153170
   0.6857892   1.2876950  -0.7391302  -0.3526635   1.6599156   0.8902767
   0.0590863   0.4308162  -0.2749792  -0.3155190  -1.3174149  -0.4469483
   0.6061970  -0.7155072   0.3515877   0.3636063   0.0680757   0.1263240
  -0.9274117   1.0894304  -0.5199906   0.3791969  -1.6048410   0.0796413
  -0.2809884   0.3781696  -0.1153294   0.0194089   0.5587769  -0.0276017
  -0.6651897  -0.1793577  -1.9796795   0.3893225  -0.1239895   0.3491462
   0.9281502  -1.4972861  -0.7901144   0.4577737  -0.1260230  -1.0555475
   0.0367610   0.1413900  -0.1497168  -0.1936863   1.5870399  -0.1206386
  -0.7960177  -0.1694246   0.5846761  -0.2007024   0.0279132   0.1533445
   0.4664087   0.1111985   0.1841877  -0.1553198  -1.0823423   0.5845411
  -0.0892956   0.0296375   0.1624446  -0.5019568   0.4810882  -0.8263810
   0.8902252   0.1350900  -0.2055241  -0.0602394  -0.1288777  -0.0701202
  -0.2458954  -0.8673931   0.7721932   0.2626689   0.8526250  -0.4579799
   0.0271443   0.0056649  -0.0578288  -0.4423270   0.1001809  -1.6488608
  -0.4019130   1.1084663  -0.7762891   0.2852669   0.0680567   0.0050425
   0.3744702  -0.0493717  -0.6395781  -0.6074657   0.2533479  -0.2753583
   0.1116844  -0.3033378  -0.0427115   0.6909467   0.4374511   0.5398698
  -0.1763542   0.7743578   0.3624254   0.3592042   0.1377149   0.0348210
   0.0798304   0.0514728   1.0611314   1.1133100  -0.2286205   1.2213974
  -0.1973731   0.2129766   0.2437544  -0.2498690  -0.8879417  -0.4709510
   1.3777527  -1.4941305   0.8888728  -0.0864469  -0.2416048   0.2817382
   0.8052225   0.0813697  -0.7208986   0.6965001  -0.6440883  -1.7373879
  -0.1454264  -0.0475045  -0.1753224  -0.0938082  -0.1135103   0.6491662
  -1.8106584   1.4681009   0.5542499  -0.1907027   0.2595138   0.0703903
   0.2841922  -0.8996892  -0.5816039   1.1367637   0.9615197  -0.4972053
   0.0350729  -0.2983323  -0.2113484  -0.5731547   0.0008779   0.4718814
   0.2599518  -0.1254115   0.6567867   0.3933462  -0.0686144  -0.0315810
  -0.7047557  -0.1825698   0.1867568   0.0600464   0.3119890   0.4645939
   0.1753658  -0.0934821  -0.0225630   0.0979011   0.3847651  -1.3937246
  -0.3705475   1.0365426   0.4932831  -0.1797532  -0.3414508  -0.0575598
   0.5580356   0.9969526   0.0416418   0.2615683   0.0144110   0.6601939
  -0.5987678   0.3370733  -0.0046502   0.4176026  -0.2435273  -0.1196381
   0.7994555  -0.0676335   0.5782398  -0.2510974  -0.1142303  -0.1417715
  -0.9189468  -0.6157861  -0.0253366   0.6055048  -0.2129703  -1.5199830
  -0.2292148  -0.2541939   0.0137234  -0.3949725  -0.9853077  -0.0273431
  -0.1449352  -0.6666313   0.3525768  -0.1791614  -0.3750037  -0.2484613
  -0.3296176  -0.5485894  -1.1211730  -0.3900376   0.9386021   0.0628374
   0.2170778  -0.2621413   0.0308107  -1.4832310   0.5889322  -1.0481328
  -0.0668691   1.1851716  -1.3762852  -0.2446447  -0.1959913   0.0614809
  -0.1149612  -0.3906988   0.5087757  -0.0361181  -0.6297297  -0.6254035
   0.1155086  -0.0030188   0.2833061  -0.8429532  -0.0150211  -0.0896116
   0.5773696   0.0862567   0.0733954  -0.0709353  -0.0095805  -0.1069819
  -1.3773487   0.2160351   0.3619758   0.2924308   1.3003027   1.8892382
   0.1138830  -0.0334004   0.0010087   0.6966564  -0.8588378  -0.5575039
  -0.6605514  -0.8878529   0.0670663   0.2230129   0.1830246   0.2289132
   1.1224000   0.2714247   0.6198726   0.2298028  -0.2184103   0.5815155
  -0.0853550  -0.0630013   0.1869987  -1.1161251   0.5463600   0.9478795
   0.5039655  -0.3239889   0.0486077  -0.2651242   0.1114162  -0.2484849
   0.6206613   0.3402161   0.2895097   1.3959505   0.2666758  -0.4777578
  -0.2869232   0.0719009   0.1174271   0.0056367   0.4351644   2.0593042
  -0.3518938   0.2897783   1.6507252  -0.0786731   0.3023986   0.1960995
   0.4395729   0.5135372   1.2781701  -1.2244645  -0.4248228  -0.4414253
   0.3005914  -0.0824408  -0.4599077  -1.5665400   0.2634825  -0.0275692
  -0.1411968   0.9561367  -0.8962258   0.2051063  -0.0276330   0.0707085
  -0.2110367   0.4169607  -0.1569237   0.8876815   0.1332128  -0.8140730
  -0.1015361   0.2323927   0.2143177   0.2095861  -1.9933014   0.7969198
  -0.9732751   0.5638661  -1.8879706   0.3361946   0.0776606  -0.1227524
  -0.4276659  -0.1822656  -1.6464067   0.7374912  -0.3638318  -0.2338134
  -0.2862907   0.1286260   0.0900720   0.4957209  -0.1506416   0.1144122
   2.2695860  -0.0599413   1.4232067  -0.2069481  -0.3113802  -0.2925906
   0.5101753  -0.3465904   1.0724734  -0.5624922   0.8208956  -0.0690298
  -0.2393593   0.0302547  -0.0262885   0.8493887  -1.0730589   0.1786265
  -1.8879671  -1.3258577   0.3799884  -0.0325215  -0.2837042   0.0368002
  -0.8935439  -0.7901330  -0.8689557  -0.0552612   0.7209914   0.2635855
  -0.2158953  -0.0526421   0.2494349   0.4407770   1.3581042   0.4313684
  -1.3140199  -1.0208659   0.0195048  -0.0467541   0.1438048   0.0232260
   0.1086838  -0.0751126  -0.3814714  -0.1479252   0.2751869  -0.1121332
  -0.0929922   0.1787958  -0.3235449  -0.3116808   0.3616976  -0.3475201
   0.7140291  -0.4840116  -1.3151916  -0.4675792  -0.4680767   0.0862298
   0.3348871  -0.4461768  -0.4002895   0.1067080   0.3568754   0.1883772
  -0.1392650   0.0128378  -0.1701054  -0.4549245   1.3631163   0.0617274
  -0.8375042  -1.0596570   0.1912525   0.0492563   0.5801267  -0.1373196
   0.5800407  -0.0147688  -0.3515690   0.0413495   0.0719578   1.3706230
  -0.1464938  -0.0445819  -0.2294288   0.9663898   0.1139708   0.9549738
  -1.3400956  -0.5427112   0.4909798   0.0695148  -0.0590881   0.1060342
   0.5196064   0.1612272   0.3488629  -0.4073445  -0.6283930  -0.0897664
   0.3659816   0.0333454  -0.2258897  -0.5577311   0.2963090   1.1289385
  -0.1761767  -0.2884872  -0.8735841  -0.2841292  -0.0115546   0.1218698
   1.3432277   0.4286929  -0.2769014  -0.6677660   0.5728369   0.2260474
   0.0479367   0.0008790   0.0123769  -0.2310345   1.3593124   0.1011982
   1.0439382  -0.6337816   0.7601367   0.1742885  -0.1061890   0.3034064
   0.0335880  -0.6641142   0.0222676  -0.8334018  -0.2856106   1.5924803
  -0.0190885  -0.0516756   0.0809961  -0.2703524   1.3945320  -0.0893872
  -0.7694625  -1.5241551  -0.5728659  -0.3841478   0.0567803  -0.1105084
   0.7448944  -1.4062401   0.1163610   0.4681358  -0.3900145   0.2821210
   0.2000430   0.3111119   0.2317677   0.8761753   0.6153936   1.3368337
   0.0020767  -1.0425288  -0.3169854  -0.1459527  -0.2959546  -0.0311508
   0.2389044   0.0257576  -1.4103523   0.3982541   0.2179747  -0.3762626
  -0.6472996  -0.2475069   0.2475996  -0.9858248  -0.8319777   0.1703001
   0.3174507   0.3713264   1.3169999   0.2156852  -0.0461895  -0.4611976
  -1.3630180  -0.4745583   2.2186416   0.1460453  -0.8350319   1.1722512
   0.0134603   0.1215210  -0.1097652  -0.8001470  -1.4403646  -1.6020639
  -0.1893272   0.2379124  -0.2623836  -0.1669655  -0.0407595   0.4661151
  -0.8774291  -0.2439388  -0.4627686  -2.0542134   0.1338746   0.1177230
   0.0029590  -0.1240467  -0.0660384   1.3126416   0.2892358   0.6384122
   0.3072647   0.0769948  -0.4256278   0.4169929   0.1693163  -0.3443667
  -0.0305832   0.1452872  -0.2169096   0.5853541   0.1468330  -0.3166765
  -0.0943343   0.1732512   0.2554956   0.5908322  -0.0928966   0.6390484
   1.1542538   0.0395495   0.4644702  -0.3472937   0.0441870  -0.4656828
   0.4539719   0.5111965  -0.5507408  -0.8333520   0.2714780  -0.2339141
  -0.2106597   0.0570375  -0.3452509  -0.5228032   1.0079161  -0.2019131
   0.0844325  -0.3369928   0.5990165  -0.1357395   0.1125817   0.2022650
  -1.4610925  -1.5952011  -1.0837590  -0.5907148  -0.3494828   0.5472396
  -0.0528633  -0.0306573  -0.3541310   0.8946104   0.6898114   0.3166002
   1.3007479   0.9682598   0.9615781  -0.0140199   0.3051533  -0.2202518
   1.0344982  -0.1037756  -0.5181073   0.7730731   0.5078123   0.0242964
   0.0551802  -0.3193551  -0.2779106   0.1319178   0.6226299  -0.6084486
  -0.0915528   1.3362940  -0.2682036  -0.2463740   0.0731193   0.4735862
   0.8687316   0.9247989   0.6052699   0.0168068   0.2400568  -0.2512853
   0.0891538  -0.0334633   0.3128519  -0.2420501  -1.5272565  -0.4275594
   0.3952221   0.3871463   0.8524673  -0.0708884   0.4268290   0.2130323
  -0.6685079  -0.8958389  -0.2260767   1.1132645  -1.7961685   0.3857647
  -0.0096407  -0.1406334   0.0189267   0.0491189  -0.1864350   0.6889581
  -0.6561302   1.0522922  -0.4147567   0.2067714  -0.3192176   0.0664798
  -1.3172813   1.2136973  -0.3641563  -0.1406126   0.2611167   0.4006486
  -0.2038523  -0.3063409   0.1076574   0.7814721  -0.5077194   0.0844969
   0.0931023  -1.8103968   1.2006012   0.1106350   0.2689612   0.3045718
  -0.7800782   0.5055831  -0.5988068   0.8057361   1.5097906  -0.0541953
   0.1165085  -0.2975095   0.1943293   0.3495873  -0.1701585  -1.0897281
   1.5023303  -0.3534660   1.2986974  -0.0607961  -0.0081357   0.0303290
   0.2109444   1.0926140   0.0794547   1.7373403  -0.1517707  -0.3845045
   0.1348304  -0.1590176  -0.3064748  -0.0382026  -1.2962685   1.2640205
   0.1099142   0.7446686   0.0196960   0.3331391  -0.1462593  -0.2294475
  -0.4940387  -0.0218951   0.0743080  -0.2073291  -0.3192314  -1.1858135
   0.1888631   0.0916755   0.1162087  -0.9528566   0.5609364  -0.5616920
   0.4940503   0.1612757  -0.0771295  -0.3273535   0.0496494  -0.0092057
  -0.0049425  -0.3026574   0.8801771   0.1022156   0.4697991  -0.8740107
  -0.2798483   0.0088041  -0.1122420  -0.7163604  -0.9070701  -0.0700036
   0.8378991   2.1089094  -0.7343082  -0.1246286   0.2430870   0.3676582
  -0.9369269  -0.1798881  -0.1372990   1.2594141  -0.3697183   0.1613134
   0.1566335  -0.0559055  -0.0097979   0.2825027  -0.6608020   0.6976433
  -0.8796561   0.3803631   0.0292260   0.2419052  -0.0836017  -0.1337431
   0.0619727   0.9777724  -0.6925722   0.8108920   0.2614873  -1.2590724
  -0.0230242   0.4060835   0.1981622  -0.3035411  -0.0808415   1.2405953
   0.6139685  -1.4731898   0.9740764  -0.0760011  -0.0672028  -0.0272980
   0.4976943   0.7011823  -0.9406588  -0.4730369   1.0768372   1.3994242
  -0.2500155  -0.1501344   0.4478777  -0.2141143  -0.2979510   0.1873687
   0.0542690  -0.3186748   0.2940419   0.1353040  -0.2951073   0.0578284
  -0.5175202   0.0674386  -0.5058874   0.4299166   0.4733806   0.2472914
   0.0523415   0.0172769   0.1111703   2.1780987   1.5980942   0.2728119
  -0.6498868  -0.3173810   1.6214674  -0.3174570   0.2757436  -0.1383275
  -0.7866606   0.2127763  -0.1310034  -0.6821249  -1.0890276   0.2343815
   0.1219898  -0.3446439  -0.0371974   0.7921943  -0.0706096  -0.0447449
  -1.1879082  -0.4064336   0.3109505  -0.0217525  -0.2998571  -0.0498784
   1.0674223   0.2554592  -0.2124562   0.3504632  -0.9312696  -0.3479038
  -0.0194527  -0.1253507   0.1119382  -1.2997106   1.0715727   0.4690735
   0.9396055   0.8723019   1.1702048   0.2810743  -0.2822058   0.1524788
   0.5316006   0.3630258  -0.7245807  -0.1298422  -0.3040361  -1.1137745
  -0.0821795  -0.0493591  -0.0997589  -1.4723794  -0.3684134  -0.4864672
   0.7657424  -0.4024090   0.0779076   0.0968098  -0.0724478   0.3374373
  -1.5022047   0.0457086   0.3619059  -0.4158411  -0.0722749  -1.9938124
  -0.0901020  -0.0495769   0.2917035  -0.5006524  -1.0393120  -0.2223448
   0.0455844  -1.4367659  -0.8770554  -0.1679961   0.1971119  -0.3696304
   0.4121138   0.2282275   0.3420367  -1.8768799   1.1499908   0.7500395
  -0.1804265  -0.0558531   0.1498669  -0.3874108   0.2691616  -0.3848560
   0.1478595  -0.2710718  -0.1678456   0.4297854  -0.5117901   0.0225203
   0.4169291   0.2920592   0.7327908  -0.8263241  -0.7516905  -0.3982686
   0.1239869  -0.1619706  -0.0746509  -0.2518657  -0.0694154   0.1987769
  -0.3584586   0.5181594   0.4799239  -0.0733875  -0.1306689   0.3729877
   0.4448731  -0.7865515   1.2829420   0.8980216   0.0349354  -0.9519928
  -0.6230810  -0.1652720   0.2281271   1.6322481   0.4356565   0.6991338
   0.7137802  -0.2024718  -0.6610377   0.0571932  -0.0851494  -0.3830584
   0.4574619  -0.7248055  -1.1232566   0.1863910  -0.2661792  -0.3911615
  -0.1742948  -0.1837050  -0.0960475  -0.3946579  -0.1348725   0.1124020
   0.2912420   0.5526479   1.1098378  -0.1585569  -0.1500717   0.2061658
  -0.2753589  -0.8693199  -1.6232905  -0.8916394   0.8216272  -0.4249462
   0.0888605   0.1544636   0.0941582   0.1129678   1.2315862   0.2020310
  -0.2738316   0.6777496   0.3622766   0.0282247  -0.0375123  -0.0106370
   0.5879073   0.2792002  -0.1643496  -0.8266377   0.0072386   0.4775917
  -0.0531044   0.1257884   0.1081608  -0.0863705   0.6340356  -1.1978420
  -0.9441367  -0.1011100   0.0061822   0.3707609  -0.2012377  -0.3777257
   0.8848225  -0.6452632  -0.4987921  -1.0306032  -0.4947406   1.8092047
   0.2199567   0.2505027   0.1094020  -0.3887131   0.9820969   0.7128696
   0.8502606   0.6491864  -0.0155360  -0.0277830  -0.0378905  -0.1508782
  -0.6102941  -0.5575220   0.5997822  -0.5305774  -0.6333729   0.0333731
  -0.1188965   0.1269422  -0.4256463  -0.7190108   0.9753474   1.2894507
  -0.2911298  -0.0860376   0.5485774  -0.1549156   0.1004360   0.1295837
  -0.2977309   1.0065337  -0.5405885  -0.9282297   0.6757913  -0.6776332
   0.3634813  -0.0721980   0.0812593  -0.5455823   0.7661399   1.1957138
  -0.2229133  -0.5395260  -1.5406460  -0.1142606   0.3741483  -0.1899613
  -0.7813282  -0.0444558   1.3073971  -0.1099938  -0.4614334  -1.8824754
   0.1938228   0.0946748   0.2701248   0.7029327  -0.6726244   0.9540575
   0.5919219  -0.9398633  -0.5492074  -0.0056625  -0.3149009   0.0449112
  -0.6116590   0.8870803  -1.5500433  -0.3033908   1.2968677   0.8865211
  -0.2834493   0.0816102  -0.0717606  -0.2006934  -0.4770162   0.8965419
  -0.8270129  -0.4267451  -0.3020986   0.0563977   0.1885518  -0.3683344
  -1.4695091  -1.1100192   0.4292804   1.8680772  -0.0873821  -0.3479244
  -0.0505072  -0.0347452  -0.1268001  -0.3416027   0.4251736   0.4308368
  -0.8087434   0.6573943   0.2725898   0.0555320  -0.0377091   0.2562158
  -0.3351369   0.5538351  -1.2716301   1.5089130  -0.2408559   0.1529125
   0.0128964   0.1444129  -0.0258853  -0.1692974  -0.7629087  -0.8503154
   1.8228346   0.3020514   0.1567920  -0.0155438   0.1856806   0.1613665
   0.8418802   1.2587378   0.9504171  -0.3542904   0.9851728   0.0759326
   0.0442186  -0.1599751  -0.2379569  -0.1668649  -0.3294592  -0.8757518
  -1.0854207  -0.4488082  -1.1497845   0.0992765  -0.2640069  -0.2110245
   0.4509667   0.8408002   0.2967117  -0.3612041   0.0866471   0.7559059
  -0.3288466   0.1532758  -0.1000082  -0.8987114   0.2167650  -2.2033856
  -0.3970966  -0.6643076  -0.5906517  -0.0727739  -0.0672970  -0.1103898
   0.3424291   0.3879375  -1.4482078  -0.0482963   1.8886106   0.4905085
   0.2655349   0.1782835  -0.2769707  -0.6894430  -0.6638403   0.8580675
   0.5581281   0.1479181  -0.5417702   0.1051500   0.3449880   0.0898844
  -1.0314278   1.1893747  -0.3421769  -1.2184726   0.4230601  -1.3807967
   0.1524675  -0.1404830  -0.2658109  -0.7375925  -1.1425847  -0.1928676
   0.7020444  -0.4652855  -0.7067259  -0.0249544   0.0269427   0.0168834
   0.1803896   0.7427892   0.7960273   0.4139378   0.9821156   0.1767443
  -0.0458936   0.1454610  -0.0481409  -0.7315909   0.7699780  -0.0357108
   1.3062335   0.4921169   0.9057819  -0.1363940   0.1299707   0.0261564
  -0.9223822  -0.4863898   0.2352693   1.5027699  -0.7153768  -0.4048197
  -0.0145078   0.2015841   0.2250831  -0.1377041   0.1246143   2.1402178
  -1.0927058   0.5521728   0.6880938   0.0794794  -0.1132824  -0.0145274
  -0.7294145   0.2194589   0.8809920   1.3198730  -0.8715552  -0.2210675
   0.1454463  -0.0786394  -0.2829226  -0.9222562   0.1552007   0.1826056
  -0.0798220   0.1176674   0.0523944  -0.1398437  -0.0262160   0.0130309
  -1.3830197  -0.1195013   0.0955303  -0.3156827  -1.1137709   0.7523960
   0.1529611  -0.1015837  -0.1022230  -0.2192234  -1.1717846  -0.4485138
   0.2218605  -0.2934411  -0.7479385   0.1515805   0.3300161   0.1104488
   0.9510110   1.0460588   0.0469192  -0.1528002  -0.5284127   0.2167449
  -0.1816930  -0.1658326   0.2331216  -1.6745516   0.0876154   0.4494911
  -0.4789609   1.0255845  -0.1828191  -0.1714104   0.0947845  -0.0930343
   0.6414987   0.5686277   1.0692798  -1.6708557  -0.6049122   0.5449753
  -0.0735235  -0.1447468   0.1141812   1.2934219   0.3922635   0.3249670
  -0.2769815   1.1439147  -1.2535010  -0.0792326   0.0232076   0.1933472
   0.2763019   0.3409129  -0.0271457  -0.0402738  -0.9107018  -0.1273744
  -0.3369868   0.2062470  -0.0873651   0.2360626   0.5908720  -0.1622739
   0.6553638   0.1556426  -0.6182593  -0.1866845   0.3363059  -0.0394610
  -0.6848552  -0.4936904  -0.0216883   0.1468671  -2.0637291  -1.4215106
   0.1101596  -0.0601317  -0.3627708   0.3253752  -0.1565471  -0.4051196
  -1.5545090  -0.1665725  -0.5431020   0.2417761  -0.0958209  -0.2638384
  -0.2646388   0.8317326   0.1889671   0.8538302   0.3594353   1.0762321
  -0.1644509  -0.0512085   0.2601087  -0.2862950  -0.7424757  -1.6194191
  -0.1457026  -0.4037423   0.0743293   0.3604025  -0.1808640  -0.2768760
  -0.2523253   0.9455730  -0.5231597  -0.2794305  -0.5425240   0.4900653
   0.1436742  -0.0769919   0.2696758  -0.1352232  -0.1135002  -0.8297410
  -1.1615083   0.6562577   0.3987005  -0.1103697  -0.1504636   0.0634694
   0.4781246   0.5642554  -0.1149030   0.8008818   0.7283736  -1.4375047
  -0.1970185   0.3838400   0.0184563  -1.0201764  -1.0181524   0.4223601
  -0.1830369   0.7644464  -0.2922210  -0.1319449  -0.0715505  -0.1459004
  -1.5285033   0.5229014  -0.2731690   0.4694678   0.2981497  -0.6763963
  -0.3275190  -0.1549028   0.1784439   0.4551769  -2.1732394  -0.1619461
  -0.1257499  -0.9349482   0.3639276   0.1071856   0.1648924   0.2879531
  -0.1146446   0.5339082  -0.0758656  -0.0531307   0.6788883   0.0718693
  -0.1305751  -0.1911403   0.1734456   0.0317752  -0.5615025  -0.9213292
  -0.1118398   0.9013948  -0.0020579  -0.1177814   0.2021199   0.0449173
  -0.0282252  -0.9448389  -0.8450389  -0.7378456  -0.6221309  -0.0481692
  -0.0769520   0.0465178   0.2247850  -0.3996269   1.1311116   0.2206394
  -0.6057710  -1.5252643  -0.8011602  -0.1335672  -0.0425760   0.1722291
  -0.3593558  -0.2518361  -0.3090089   0.2604492   1.1682795   0.4773443
  -0.1085627  -0.0906659  -0.0828401   0.5594875  -0.8976147   0.8277803
  -0.6874654  -1.1191947   0.3819392  -0.1678955  -0.1112455  -0.3271908
   0.3933173  -0.1954721  -0.5259294  -0.4212567   0.5119367   1.5550652
  -0.2336229  -0.1854907  -0.0110427   1.3890558  -1.7550438   0.4650438
  -1.2432407  -0.1468451   0.0208023  -0.0839131  -0.3370463  -0.0539689
   0.1626983   0.8559476   0.7780367  -0.1529079  -1.9088713  -1.0264801
   0.2860095   0.0049927   0.2035772   0.4603434   0.3986193   0.4343347
  -0.5736952   1.1456915   1.3628889   0.0861705   0.0335049   0.4651880
  -0.1033296   1.8898424  -1.1981396  -0.3939979  -0.1456438  -0.3535688
  -0.1374843   0.0947805  -0.2812842   1.4746773  -0.5579576  -0.1484026
  -0.2583984   0.1336036   0.7431681   0.0959946  -0.1703146  -0.2454037
   0.6827365   0.5887660  -0.9448326   0.9537226  -2.0998692   0.2225236
  -0.0604330  -0.2328285  -0.2998501  -0.9354861   0.6124079  -0.3089409
   0.1631215   0.2494031  -0.8516851  -0.3043991   0.4380526   0.1820618
  -0.2301333  -0.0456647  -0.7300436   0.6148895   0.2085525  -0.2149136
   0.4249668   0.1035055   0.1198266   0.3172360  -0.1371990  -0.2899500
   1.4005220  -1.5307064   0.1135760  -0.2212415  -0.1053581   0.1419912
   0.6379606   0.0890696  -0.0381443  -0.3074835  -1.7460628  -0.7633149
  -0.2691033  -0.4351719  -0.2449767   0.3589047  -0.1922863   0.6687718
  -1.5177493  -0.5677463   0.5676501  -0.0912798   0.0679747  -0.0378020
  -0.4111579   0.7520300   1.1626874  -0.0987877  -0.2949889   1.3743082
  -0.0087792   0.0489052  -0.0049234  -1.0783672  -1.3453694  -0.0043586
  -0.6097835  -1.1593296  -0.4032137   0.3187865   0.3043995  -0.1345551
   0.3521175   0.6220835   0.9378636  -0.9514485   0.5005955  -0.5637331
   0.0153741   0.3438354   0.1859090   1.3848581  -0.9306260  -0.1620085
   0.5268708  -0.4109539   0.0088282  -0.1864723   0.0779750   0.3487446
   0.5633399   1.1179639  -0.4463967   0.6140895   0.2993540  -0.5333867
   0.3203518  -0.0033128  -0.0957261   0.1540352   0.3472264   0.0429152
  -0.8459220  -0.4278759  -0.3653656  -0.0084056  -0.0439669  -0.0454739
   0.1724158  -1.7458291  -0.4954317  -0.1655192   0.8179327  -0.5635571
   0.2633327  -0.0509872   0.3153806  -0.5761768  -1.6789555   0.0157768
   1.0009595  -0.0811575   0.7808236   0.2816431  -0.0501728   0.0789273
   1.0752392  -0.4165208  -0.5765461  -0.0752087  -0.7080321  -0.0366016
  -0.3693613  -0.2260754   0.1735663  -1.2488676  -0.2658512   0.1871219
  -0.6724363  -0.6874188  -0.8058425  -0.1279261  -0.1718837  -0.0440413
  -0.8856520  -1.6383211   0.8415070  -1.0914548   0.2541476   0.8100984
   0.0080489  -0.1000346   0.0254166  -0.4138721   0.0542687   0.8143336
  -0.5039258  -0.4612285  -0.6384738  -0.0809182   0.0303881  -0.1696498
  -0.1299837  -0.1157590   0.3272317  -0.5223503  -0.7207988  -0.7034465
  -0.1007421  -0.1702530   0.0043590   0.3745043   0.2953840   0.5619607
  -0.5950920   0.0017351  -1.0223408   0.1014680  -0.2068926  -0.0818869
   0.3689437   0.5689190   1.4060324  -0.2633788   0.4222398   0.6150059
   0.1824366  -0.1559454   0.0464394  -0.3255882  -0.9133777  -0.0784754
  -0.0170035   1.1546991  -0.1832804  -0.1708748   0.0617970   0.2934771
  -0.6576232  -0.2079468  -0.4738479   0.9779201  -0.6533531  -0.4331151
  -0.1573110  -0.0674319  -0.1267161   0.0280070  -0.1771443   0.1073174
   0.3212685   0.2262157   0.0493704   0.0189456  -0.0813018  -0.0386044
  -2.4201208   1.5930705  -0.2778855   0.4137294  -1.2419356   0.1358447
   0.1646614  -0.1797178   0.1539921   1.0150186  -0.4291724   1.2368956
  -0.4734593  -0.4776261  -0.6969180  -0.1135612   0.0977406  -0.1417134
   0.5131896   1.6745848  -0.5718286  -0.8155175   0.3116453   0.4951490
   0.0372286  -0.3968611   0.4112697   1.2748056  -0.7032568   0.2125662
  -0.6211458  -0.8415197   0.6621433  -0.2718610  -0.1974982   0.2837250
  -0.2921358  -0.6806636   0.4164032   1.1997596   0.0524728  -0.5482427
   0.0404943   0.0077980   0.1369969  -0.2528456  -0.7326191   0.4697022
  -0.7500585  -0.2073742   0.1835118   0.1103161   0.1973496  -0.1853158
   0.8921798   0.1444190  -0.1546114  -0.4100290   0.4334508  -0.2858801
  -0.3083442  -0.1099221   0.3260630  -0.9664951  -0.9799080   0.4198682
   0.8669997   0.5067556  -0.7106469   0.0131555   0.2725490  -0.1980055
   0.3423094   0.2944000   0.1406962  -1.2148221  -0.1206438   1.5100461
  -0.0198174   0.3023580  -0.0733553  -0.1445553   1.1690534   0.3255984
   1.0146604   0.0800860   0.0716776   0.0977461  -0.0556561   0.0929251
  -0.2509376  -0.4882003  -1.1640643  -0.3554790  -1.1642848  -0.0632971
  -0.2038099   0.0977303   0.0502703   0.9190848  -0.9346423   1.0674444
   0.2328858  -0.3515751   0.9832619  -0.1774128  -0.1648208   0.0832684
  -0.6430203  -0.8882251  -0.5372540  -0.9461015   0.0841739  -0.4558201
  -0.0199020  -0.1006241   0.1463991  -0.5327284  -0.1105778  -0.6958445
   0.7013783   0.1991115  -0.6650088   0.0565233   0.2262715  -0.1763362
  -0.2693245  -2.0190721  -1.0672198  -0.3997674  -0.1471249  -0.1086839
   0.1212091  -0.0119662  -0.1948947  -0.1720611   0.3757124   0.3422240
   0.3219742  -0.2472594   0.8678286   0.1723112   0.2494290  -0.0766288
  -0.7517722  -1.8307371   0.7434552   0.2348084   0.3049205   0.3731763
  -0.0165391   0.1237863  -0.2278266  -0.5464846  -0.4222752  -0.3214881
  -0.3276704  -1.1712201   0.7924593  -0.0164490   0.2381971  -0.4528015
  -0.0873247   1.0447005  -0.5282024  -1.0875216   0.8040354  -0.6904241
  -0.0711017  -0.2858790   0.0952627   0.0042041  -0.5327259  -0.7356209
  -0.2610798   0.8284149  -1.2212303  -0.0586244  -0.3123476   0.1530183
   0.0435057  -0.7632646  -0.4293206  -1.3153515   0.5338137   0.0142407
   0.0773055  -0.1106603  -0.1601683   0.6869955   0.9300832   0.8966371
  -0.0599615  -1.0786703  -1.3576869   0.3046953   0.1303597   0.1032353
  -1.0975633  -0.6693695  -0.9056129  -0.6467513  -1.0296142  -0.8647391
  -0.1221015   0.0130615   0.2488182  -1.3652546   0.0860129  -1.0455073
  -0.8651109   0.9586876  -0.2888938   0.2249886  -0.0406130   0.1892590
   1.3373867  -0.2493540  -0.7727766  -0.7976047  -0.2772950  -0.4400022
  -0.4007101   0.0437172  -0.1677255  -0.4006962  -0.0829273   0.1246902
  -0.7921580   0.4935814  -1.7530558   0.1721371  -0.3642745  -0.0615566
  -0.3192135   0.5357037  -0.0836492  -0.3018950  -0.7374072   1.4048586
   0.0437769   0.0831133  -0.2557015   0.1459851   1.5411363  -1.3235958
   0.6471813  -0.8501150  -1.0631264   0.2774049  -0.2010241   0.1681118
   0.1526652  -0.1767890   1.6275666   0.5294997   0.4972483  -0.9433163
   0.3072837   0.3389962  -0.0230169  -0.0417678   0.2882368   0.1863130
  -1.2807351  -0.7580407   1.0653586  -0.1929812  -0.0593052  -0.1562835
  -0.0133419  -0.9621760   0.4229098  -0.3934434   0.1488573   0.4063992
   0.1137388  -0.0007599  -0.1706684   0.8464731   0.2822620   0.4111589
  -0.4152110   1.5715770  -1.6865133  -0.0456420  -0.0246852  -0.0084897
  -0.9879347  -0.1233273  -0.3738211   0.3192781  -1.4493225   0.0826557
   0.3417630  -0.2794888   0.0187887   0.5987131   0.1882611  -0.8408997
   0.9703437   0.4810729   1.1623151   0.3085675   0.0517222   0.1130549
   0.6165709   0.1760182   1.1269718   0.2971588   0.8526973   0.6569164
   0.0495039   0.1207110   0.6771731  -0.4488952   0.5391208  -0.3173558
  -0.6472404  -0.2264778  -0.0642318   0.0384898  -0.2794532  -0.3227324
   0.0169924  -1.5558088   0.9065208  -0.2902069   0.0001814   0.2467824
  -0.2718966  -0.0191256  -0.1173200  -1.0600059  -0.7023258  -0.4583584
  -0.2294021   0.3311728  -1.0774543  -0.0365980   0.1760695   0.1816021
   0.7939587   0.9947104  -1.4857529  -1.2023275  -0.0735966   2.0027489
   0.0025664   0.1094032   0.2774230  -0.7501846  -0.0274915  -0.0989250
   0.1879180   0.0414682   0.4371802  -0.1265900  -0.3474131  -0.2466033
  -0.4452644   0.9678589   1.2254527  -1.5892727  -0.5587216   0.2444625
   0.3426460   0.1403483  -0.1968526  -0.8279136  -0.0052071  -0.1157580
  -0.1806061  -0.7054713   0.5886949   0.1122533  -0.1568394  -0.2310552
  -0.8707615   0.9843321  -0.7286311  -0.5681162   0.3434186  -0.5506579
  -0.3416904   0.4138709   0.0713869  -0.0291383   0.2074008  -0.2841560
   0.6717518   0.5855334  -0.5093828   0.0373628  -0.2953212  -0.3577931
   0.6127372   0.6714557   0.7389029   0.2721448   0.8774936   0.3981037
   0.1456086   0.1317126   0.3090117   1.0598935  -0.7199015   0.6449736
   0.1015733   0.6637621  -0.0321989  -0.0027333  -0.0734584   0.0583551
  -1.1025333   0.8833398  -0.9236828  -0.1354470  -0.1855418  -0.6451676
  -0.0911349  -0.0205753   0.0155782  -0.1371383   1.6076767   0.0389540
  -0.7505780  -1.0200831  -0.6169080   0.1641671   0.2004436  -0.1299356
   0.2472923  -1.0130208   1.1424826  -0.6270643  -0.9577048   0.0959579
  -0.0849658   0.2667157  -0.1638628   1.8390493   0.3694390  -0.2424864
  -0.1402026   0.0574401  -1.3874949  -0.1786788  -0.0427401   0.0495510
   0.4636941   0.7758315   0.0779503   0.7154033  -0.7769509  -0.3925300
  -0.3554459   0.1886869  -0.1053250  -0.5630453   0.0194771  -0.5753927
   0.6919802   0.7294100  -0.3880529   0.0092629  -0.2768249   0.0103375
  -0.3861829  -0.1906572  -0.6135869  -0.2968634   0.6910716  -0.7572369
  -0.1061120  -0.3530236  -0.1025864  -0.7970692   0.0888929   0.3202525
  -0.7720979  -0.4710768   1.2126635  -0.2832844  -0.0726275  -0.1592731
   0.9429450   0.6068097   0.9607231  -0.5198636  -1.3472425   1.2360022
   0.2547604  -0.0603912  -0.0487521   0.2366119   0.0101696   0.3531068
   1.7676120   1.7582506   0.9120675   0.3310525  -0.0888359   0.1441583
   0.5101054  -0.6783612  -0.3311655  -0.3917931   0.2792618   0.2881281
  -0.2240329   0.1821859  -0.2063638   0.2609872  -1.1462935   0.4804076
  -1.5281295  -1.6564889   0.0978769  -0.3556911  -0.0088564  -0.1225962
   1.5609240  -0.1425303  -0.1844903   1.2905999  -0.4988432   1.2401159
  -0.0796006  -0.0794625   0.0401414   0.8261409  -0.7466485  -0.5752529
  -0.3064844  -0.9446154  -1.2867793   0.4573859   0.2542850   0.0324014
   0.6308127   1.7748879  -2.8774080   1.0977666  -0.6839239   0.5771765
   0.1730280   0.0760629  -0.1191030  -0.8997646  -0.6324545  -0.7381439
  -0.5672796   1.2404247  -0.3273894   0.1129773   0.1204060  -0.1083198
   0.0858846   0.3739148   0.5598093  -2.1321146   0.9993535   0.2110490
   0.0976636   0.0156683  -0.0799096   0.5172274   0.0442480  -0.4288814
  -0.4756016   0.6671919   0.4136866  -0.3950544  -0.1491141   0.0872160
  -0.7403944   0.0983628  -0.7983388   0.4074249  -0.0514730  -0.0780278
  -0.0116101   0.2202318   0.1975895  -0.3052109   1.2235876   0.2147314
  -1.5210596  -0.4564212  -0.0405786  -0.0965233   0.1964303  -0.1231448
   1.4287707  -0.2825898  -0.1507361  -0.6358347   0.0065897  -0.9780576
   0.0482174  -0.1822732  -0.2780943  -0.0549978  -0.5932878   1.2862636
  -1.1017627   0.0172979   0.4033206  -0.0580061  -0.0154218   0.0983301
   0.5009422   0.6990804   1.4112960   0.3239781  -0.4685716   1.3183927
  -0.2722818  -0.0447468  -0.0128283  -0.5998389  -0.7587485   0.1800173
   0.9491700   0.6560975  -0.7698047   0.0592931  -0.2555754  -0.1708719
   0.1360216  -0.0980880   1.2409876  -0.6137262  -0.3274285  -1.2527519
   0.0703271   0.1675581   0.0571603  -0.4092292   0.2360163  -0.4797222
  -0.3179255  -1.1255452   1.3851266  -0.0933381   0.2251842  -0.2348835
   1.2143141   0.2735806  -0.8922792   0.5398369  -1.2588339  -0.3509677
   0.0451704   0.2782544  -0.2284070  -1.8440120   0.1796190   0.2507970
  -0.2785963   0.3285137  -0.4363194   0.1459683   0.2729176   0.2887319
   0.9087171   1.2253947   0.7244669  -0.3736043  -0.0198846  -0.3807253
  -0.0400103   0.0203134   0.4684666  -0.3218486   0.8142495  -0.0928390
  -1.0477020   1.0245490   0.1198785  -0.0396787   0.1264648   0.0575309
   0.9046794  -0.9054861  -0.0913721  -0.1280398   0.6075404   1.0000066
   0.0195540  -0.3011419   0.0732352   0.6486844  -0.0103382  -1.0601129
  -1.4941910   1.1408444  -0.9823292   0.0757145  -0.0909916  -0.0384434
   1.0555563   0.1176829   0.4327903   0.0377351  -0.3215695  -0.0177519
   0.0308500   0.0130501  -0.1592514  -0.4213969   0.8762863   0.8293707
  -0.1337305   1.5732178   1.0236207  -0.1548954  -0.1403991   0.1997384
   0.9090983  -0.6186169  -0.0305510   1.5714476  -0.2187846  -0.0694304
  -0.2775303   0.1907558  -0.2923619   0.0259792  -0.2970646   0.1486634
   0.8446590   0.3137106   0.4971434   0.3695757   0.0812863   0.3074007
   0.1541795  -0.6882512  -0.5840091  -1.5867952  -0.3584145   1.2450309
  -0.1277754  -0.2808426   0.0110933  -1.1760082   1.2886247  -0.4561806
   0.6628822  -0.1559831  -0.2697820   0.0410531   0.2757931   0.1881668
   0.6986644  -0.9759531  -0.2485989   0.5938265   0.1610180   1.3834840
   0.1495226   0.1865878  -0.0009510   0.3997929  -0.2997576  -1.3835089
  -0.6579594  -0.4832248  -0.7249618   0.3358890  -0.0762850  -0.0478991
  -0.1347550  -0.8175607  -0.7038405  -0.1961298  -0.5915218   0.5638106
   0.3561325  -0.1831070   0.0718655   0.8505900  -0.1656102  -0.2898267
   0.2142656   1.4401733  -0.0723615  -0.0333109   0.1386028   0.3842263
  -0.1565018  -0.0098315   1.6406187  -0.2071800  -0.1421463  -0.6599395
   0.3253807   0.1185844  -0.0487042  -0.1056491   0.1349087  -0.7999120
   1.0066341  -0.6301157  -0.0119672  -0.0522601   0.0189248  -0.1108778
  -0.2857704   1.3168591  -0.7683879   0.0488381   0.3379473   1.5924144
  -0.0727298   0.3094764  -0.1385543  -0.3374706  -0.9038101   0.0564798
   0.1581475   0.5326461   0.8077006   0.1469335   0.2345672   0.0503198
  -0.2789757  -0.3373604  -0.2160471  -0.0153383  -0.1333455   0.8253659
   0.1173955   0.3149135  -0.2077826  -0.1379729   0.3356368  -1.4236470
   0.1776350   0.3866928  -0.8586965   0.0176105   0.1241660  -0.1413662
   0.5221667  -0.2944688  -0.7319002  -0.5133780   0.8085475   0.6563077
  -0.0709535   0.0245913   0.2100619  -0.2579498   0.0972560   1.3205644
  -0.3347501   0.8434803  -1.0354965   0.1739218  -0.1142818  -0.3217192
   0.0976598  -1.3712511   0.4271715  -0.0462848  -1.3916234   0.4231291
  -0.3228830  -0.0337521   0.2428764   0.5807460   0.4236841  -0.2741469
  -0.3358567  -0.4637206   0.4162902   0.1020749   0.0463233  -0.1882532
  -0.2418740   1.0908055  -0.1388695   0.5567459   0.4634450  -1.2394257
   0.0707938  -0.4046710  -0.2066658   0.2688468   0.5613599   0.9545847
   0.0301349   0.7055246  -0.2548768   0.0034881   0.1600313   0.0471934
   0.8128689   0.7114986   0.6323905   0.4663273   1.0335879   0.5999725
   0.1552659   0.2749049  -0.1271381  -0.2055475  -0.6922340  -0.2768915
  -1.0133199   0.0720546   0.0562405   0.0964281  -0.2807294   0.0621819
  -0.2110879  -0.0312968  -0.2990699   1.0066476  -0.8663364  -0.4662724
   0.1587926   0.0528558  -0.0388298   0.3483991  -0.4018312   0.0416325
  -1.1877048   0.5499382  -0.7461126  -0.1670668  -0.1116860  -0.1762188
   1.1946701  -0.3083819  -1.3962126  -0.3278510   0.2796382   1.1487725
  -0.5514550  -0.0613224   0.1748335   0.1513843  -0.8521475  -0.0947052
   0.5139046  -1.0077841   1.7442692   0.1186048   0.0537582  -0.0826563
   0.7218495   0.6647399  -0.8930623   1.3066966   0.1971407  -0.7353845
   0.4711452   0.0253877   0.2985187   0.7556563  -0.1203236  -0.1436953
   1.1017099   0.6957472  -0.1358151  -0.1558503  -0.1444926  -0.0205833
  -0.3094294  -0.1314983  -2.4146745   0.6532103   1.4082746  -0.4458889
  -0.0872495   0.1384176  -0.1925080   0.8234463  -0.2180555  -0.0975063
   0.8425280  -0.4163714  -1.6671321   0.1423327  -0.0564891  -0.3445172
  -0.6751695   1.1749979   0.1281360  -0.4090346  -0.2478797  -0.9995173
   0.1043257   0.3410236  -0.0234640   1.5667910  -0.1248548  -0.4062951
   0.3200963   1.6510380   0.2360122   0.1641285   0.0405160   0.0835626
   0.4110570   0.2328072   0.3234201   1.2972305  -0.2203568  -0.8445304
   0.0717220  -0.4470841  -0.1412448   0.4240560  -0.6716456   0.9430567
  -0.8362787  -0.7124279  -0.6840206   0.0963332  -0.0425771   0.2727315
   0.5087162   1.3525725  -1.0356820   0.5359210  -0.8190770   0.8946312
   0.2543829   0.1019341  -0.3326530  -0.7381811  -0.0407107   0.4127920
   0.9094681  -0.7272160   1.3064482   0.1940012   0.0501202   0.0666318
  -0.3212926  -1.1217025  -0.0838522  -1.6590386  -0.7190762   0.3259751
   0.0946098   0.0978874  -0.0697036  -0.4881359   1.7074041   1.5204391
  -1.4382668   0.3068770   0.1169721   0.0707799  -0.0806573   0.2903101
   0.0441813  -0.1960036  -0.7692282  -0.4207900   1.1272664  -0.4027709
   0.1914896  -0.2755766   0.2136550  -0.0735701   0.3976373  -0.0228870
  -0.6209836   1.4966969  -0.6460695   0.0104896   0.2645591   0.0752085
  -0.2483676  -1.1561316   0.3812647  -1.3163153   0.2023955   0.2375620
   0.0047095  -0.1063153   0.2056207   0.4492612   0.7163730   0.2631346
  -0.2922853  -1.1095506  -0.3041384  -0.2269710  -0.0115589  -0.4001970
   0.5954565  -0.5857897  -0.1232483  -0.8287589   0.3432710  -0.2672150
  -0.0006331  -0.3856606  -0.0212135  -0.3691248  -0.6480977  -0.4347759
   0.3058227   0.7410600   1.0306375   0.2523572   0.0837119   0.0023927
   0.5211912   1.4380288  -0.7120659   1.1702981   0.4847281   0.3889607
   0.0880636  -0.1500797  -0.2441791  -0.5221022   0.1800758  -1.1303902
  -1.0051061  -1.0845995   0.0173613  -0.1157136  -0.0063435  -0.1599139
   0.1449541  -0.1593094   0.6791728  -0.7151480   1.3993590  -0.0170488
  -0.3031353   0.1328452   0.0122161  -1.3074993   0.4684613  -0.3926564
  -0.0325923  -0.4781828   1.2469639   0.1129540  -0.3311425  -0.0591364
   0.7619907  -1.2656103   0.3591513  -0.4494344   0.1088647   0.1912595
  -0.1564442  -0.0523750   0.3861412   0.6760303   0.4215710  -0.8714993
   1.4351946  -0.5479706  -0.7524426  -0.2459063   0.1249093   0.1820497
  -1.6019376   0.6488734  -0.9560784  -0.0615371   1.6471304  -0.3029003
   0.1155772  -0.0585683   0.2550717   0.6280021  -0.1620333   0.1302447
  -0.8691989   1.0830909   0.6956886  -0.3354055  -0.0225829  -0.0062824
  -0.0574633  -1.3303863   0.5325053   0.8281861   0.1889641   0.6429587
  -0.1799139  -0.1592539   0.0382339  -0.2427787   1.1067031  -0.1104300
  -0.7090636  -0.7297109   1.3414253   0.0515955  -0.0235856  -0.0241333
   0.7335801   0.3932052  -0.5639804  -0.7440203   0.6468543  -0.0261645
   0.1206161  -0.1731244  -0.0859054  -0.0064282  -0.2525596  -1.0241020
  -0.4488138  -0.3217628   0.1693295  -0.2640084   0.0564907  -0.2289960
   1.0320784   1.4156647   1.0471572   0.8716237  -1.2547437  -0.6646957
   0.1402111  -0.1798975  -0.3616220   1.2747755   0.3838691   1.0300415
  -0.3942362  -0.5285071  -0.1439119   0.0903689   0.4869065  -0.1171388
  -0.6923368   0.0237902   0.6773615  -0.4766731   1.1176459  -0.8544470
   0.1027224  -0.1694930   0.0674485   0.1544271   1.5668733   0.2388658
   0.0264941   0.7763255   0.5857176   0.0402343   0.0533809   0.0047606
   0.2710163  -1.4719810  -0.3832503  -0.9414746  -0.1975701   0.5304617
  -0.0044616   0.3282523   0.3432183   0.4360845   0.0946185  -0.1190381
   0.7640326  -0.5304299   0.6324654  -0.2468958  -0.2962131   0.1875486
   0.3267978   0.4707903  -0.8529178  -1.0389759  -1.5878922  -0.6608896
   0.0413989  -0.1753847  -0.2972998  -0.4743587  -0.3362819  -0.8652549
  -0.6257097   0.3504805  -0.4335677  -0.0025918  -0.1298379  -0.0122543
  -0.2379239   1.6382833   0.7527554   0.1654348   0.6519930  -0.3100612
  -0.3313807  -0.0421840  -0.3059860   1.0921502   0.6931869   0.4571636
  -1.2745595   0.2324289  -0.1722955   0.0321783  -0.1924016  -0.1514171
  -0.6783240  -0.2342540  -0.5161346  -0.6433271   1.9719483   0.3228297
   0.3439514  -0.1806468   0.0030583  -0.1917802  -0.4353946   1.2903507
   2.1228373   0.3284919  -1.0165271  -0.1525248  -0.0384543   0.1178385
   0.3224260  -0.8163852  -0.5412208   1.8026344   1.2145622  -0.1783171
   0.1906035   0.1483377   0.2608008   0.3039590  -0.0197361   0.0153518
  -0.1242948  -0.2550139  -0.8542003   0.1340417  -0.3795352   0.1491210
   0.2967293   0.3339285   0.9691347  -0.8811549  -0.0604588  -0.0874698
   0.3946230   0.0166095  -0.3648017  -0.8461494   0.2796242  -0.0480915
  -0.1609067   0.2669797  -0.5200722   0.0649185   0.0029220  -0.1052565
  -0.9872828   0.9292388  -0.7071601   1.0960054   0.3349991  -0.2556706
   0.0682861   0.1290015   0.1415664  -0.9899237   0.0646653   0.1194735
  -0.4674239   0.8326527   0.2871692   0.3276048   0.0698174   0.2259434
  -0.7796579  -0.4681060  -0.2885798   0.8142015  -1.1746195   1.0413070
  -0.1058061   0.1062255  -0.2710219  -0.1023412   1.1813302   0.4928366
  -0.7281655   0.0144111  -1.0507836  -0.1919890  -0.0387153   0.3401548
  -0.0671952   0.1002767   0.0614486   0.8994896   0.1899762  -0.2113155
  -0.0575636   0.2803652  -0.0836360   0.0883623   0.4237212   1.2281560
  -2.3663386  -0.8842180  -0.0603994   0.0140024   0.1083208  -0.3813064
   0.4862644  -0.1207621   0.0463659  -0.1512068   0.0478901   0.0827103
  -0.2959050   0.2060671  -0.0265957  -0.7618011  -0.8542102   0.4205751
   0.1264047   0.7359980   0.5732281  -0.1682939  -0.1561284   0.1527998
   0.4250698   0.9660912  -0.1275889  -0.8659547  -0.3177508   0.1390139
   0.0517010   0.1552447   0.2671968  -1.4785395   0.4174194  -0.3262606
   1.7482889   0.6977254  -0.2647959  -0.0174731  -0.2185899  -0.2807672
   0.7207411  -0.9908518   0.7063354  -0.7152839   0.8342866  -2.1215503
  -0.1852887  -0.2817098  -0.1521216  -0.3115881  -0.5344488   0.3223907
  -0.9635835   0.1875343   0.4748340  -0.3995572   0.1807819   0.1736308
   0.3929676  -0.6233083   1.2089701  -0.5017215  -0.2236833  -0.2386827
   0.1214995   0.0228782  -0.0517268   2.2754425  -1.3451071  -0.9585588
   0.6090008   0.9431084   0.2635472  -0.3020211  -0.0110911  -0.2135252
  -0.3529431  -0.6564393   0.8749684   0.5509406  -0.4343334  -0.2765871
   0.2347378  -0.2024594   0.0916485   0.6141807  -0.6912492  -0.6356555
  -1.1686219   0.2606152   0.9952032   0.2812758  -0.0251038  -0.0877948
  -1.1389888  -1.1991076   0.7604178  -1.5249618  -0.1220194  -0.9424484
  -0.1731281  -0.2313624  -0.2976642   0.3590268   0.8642312   0.7579668
  -1.8462446   1.4406740  -0.9754673   0.0153210   0.1413970  -0.3233912
   0.2236194  -0.6372676  -0.4976487  -0.5558970  -0.2580993  -0.7544913
   0.2072115   0.1576640   0.0313227  -0.2160063  -0.1804753   1.4348829
  -0.8081627  -0.1571556   0.4521165  -0.0371421   0.3314528   0.1431628
   0.8921118  -0.1438532   0.8178633   0.5288685  -0.0937354  -0.8725971
   0.2636656   0.3260276  -0.1014159  -0.3925863   0.4974780  -0.2102248
  -0.6144814  -0.1290432   0.5003014  -0.1866549   0.3130669   0.1162281
   0.6646312   1.3150674  -0.9462240   0.3460556   0.6595885  -0.4537284
  -0.0116449  -0.1011884   0.0058853   0.2965599   0.6642216  -0.2038285
   1.1670698   0.4177020   0.5190186   0.1451362   0.1080965  -0.1160142
   0.6186628  -0.9568850   0.9924112   0.0929610  -0.3055339  -0.6722058
  -0.0499841   0.2121223   0.2307504   0.0976928   0.4983001   1.5378074
   0.5830325  -0.2985223  -0.0824749  -0.1785938  -0.4781293  -0.1211829
  -0.1324208  -0.6472605  -1.1719570   0.1994485  -0.3029606   0.0418735
  -0.2682684   0.0705378   0.0630364   0.7587579  -0.5475599  -0.0122418
  -0.0264497  -1.7486637   0.6883243   0.1228670   0.0000251   0.0541638
   0.5125055   1.0725086  -0.2455502  -0.4429103   0.3608522   0.4248586
  -0.0677236  -0.1064636   0.0031243  -1.0711382  -0.1055468  -0.1489118
   0.4387008   0.1063422   0.5220722  -0.1850618   0.1635939   0.1003477
   1.0635326   0.1639527   1.0319762  -0.4308600  -1.4094086   1.3213703
  -0.1715689  -0.1737347   0.1896255   0.6792446  -0.0317291   0.7935469
   0.2135223   0.3159456   0.4236259   0.1405254   0.2941802   0.0275457
  -0.0384678   0.2806522   1.5091399   0.2246045   1.0011863   0.7506102
   0.1316078  -0.4252782  -0.0785425   0.8598173  -0.4724819  -0.2132381
   0.7884190  -0.1174489  -0.0606651  -0.1172423  -0.0868704   0.0278341
  -0.5551320  -0.8991459   1.1042464   0.9176445  -0.3146928   0.1462070
   0.0969289  -0.1357454  -0.1191658  -0.0846741   1.5018373  -0.0788327
   1.9618971   0.0057706  -0.3758508   0.0105116   0.1938735   0.0831553
  -0.2484524   0.2013006  -0.1299981  -1.1465047   0.0967073   1.1344473
   0.2231583  -0.1151943  -0.5552577   0.2047146  -0.6271613   0.1722595
  -0.2246361   1.6660240   1.4139197   0.3223297   0.0231685  -0.3202628
   0.3779784   0.0450479   1.1483272   0.6441800  -1.2784990  -0.3165603
  -0.0376653   0.2439192   0.0967017   0.5464454   0.5228199   1.3296505
  -0.1692634   2.2659365   0.3577124  -0.2188706  -0.1312465   0.2957379
  -1.2873672  -0.1108010   0.2816867  -0.1514108   1.4878238  -0.6391939
  -0.0062195   0.1700511   0.3559668  -3.1853758   0.2968330   0.3790075
  -0.0799344  -0.8340758  -0.7461794  -0.1487871  -0.1128786  -0.1090471
   0.0282956   1.4024782  -0.7786414   0.3662969   0.3500727  -0.0447158
   0.1265823   0.2197016  -0.0339337  -0.2706542   0.3801572   0.9712827
  -0.3464568   0.5408585   1.6094026   0.0269813   0.2516592  -0.0457786
   2.0204372   0.7910609   0.7911874  -0.1919172   0.7780165   0.1499248
  -0.1807778   0.3625224   0.2720514  -0.0218180   0.1408397  -0.1472921
   0.1438516   0.3653253   0.6056857  -0.2394599   0.0420255   0.0773724
   0.2122104  -0.3290893  -0.5006866  -0.2918718  -1.3959404  -0.8317780
  -0.5405364   0.0803796   0.2182682   0.1074370   1.3255688  -0.1695642
  -0.0260116   0.2343270   0.5793147   0.0095662   0.2374515  -0.0203609
  -0.6202707   0.3871690  -0.7288319   1.4833177  -0.1805244  -0.7569159
  -0.0689897  -0.1298911  -0.0198563  -0.2869097   1.5558058  -1.5829956
   1.3890417   0.3046322   1.2344673   0.2763900   0.3099882  -0.0622593
   1.1490981   0.8953195  -0.4680407  -0.0064195  -0.0552642  -1.6879228
   0.1686857  -0.1636966  -0.1064771   0.5234143  -1.1206866  -0.2036071
  -1.7307484  -1.4731391  -0.1115721  -0.2888183  -0.2371102   0.1381171
   0.0343271   0.7536504  -1.1238530   0.4626629  -1.2787426   0.6386513
  -0.2343857   0.1969095   0.1889267   0.7729871  -1.4707034   0.3421386
   1.9828418   0.2663885  -0.7591409  -0.0389836   0.1935109   0.1199171
  -0.5252738   1.3643700  -0.2991175  -0.2587785   0.1494664   1.2728103
  -0.1511757  -0.4423311   0.1591435   0.7090763  -0.7995381   0.8958253
  -1.1185740   1.1708949  -0.0601159  -0.0096055  -0.1320692   0.0219056
  -2.5055363  -1.3120701   0.6514677   0.6095384  -0.3219102  -0.2335139
  -0.4366176  -0.0209039  -0.1536564   0.7523724   1.3549235   0.3255459
   1.1212096   0.3620447   0.0390368   0.0476503  -0.2738187  -0.5951595
   0.0447180   0.7484384  -0.7240754  -0.5635004  -0.3313238  -0.5736628
   0.0138109  -0.1139659  -0.2452422   0.2871855   0.6422715  -0.0451959
  -0.3691585  -1.7569325  -1.6803434   0.0753805   0.2177260  -0.1876100
   0.8773743   0.2348156   1.6614352  -0.8571669  -0.2534765   0.6147454
  -0.1309141   0.2743939  -0.0945192   1.2839554  -0.3582218   0.3850299
  -0.1770883   0.5581803  -0.5604714  -0.5953268  -0.1027558  -0.0322467
   1.1018651   0.1748314  -0.0280777  -0.6689218   0.1006857  -0.1200509
   0.2880939  -0.2080287   0.2110588   1.0822010  -0.2323365  -0.2477897
  -0.9021844  -0.5237983  -0.5778415   0.0635465   0.0866481   0.1948237
   0.3984348  -1.9891221  -0.8158741   0.7927883   0.0704561  -0.2784063
   0.3898379  -0.0712280   0.2018354  -1.5283784   0.3111425  -0.4956257
  -0.5709178  -0.1660613   0.8753828   0.1791410   0.0578899  -0.0109664
  -0.6615724   0.5810000   0.2017148  -0.7433094   0.6829689  -0.6015886
   0.1093411  -0.3545317  -0.1760234  -0.0626265   0.3299768   2.1534112
   0.6127240   0.1723337  -0.8299304  -0.4331364  -0.1084202   0.0097680
  -0.4977620  -0.4587132  -0.9916134   0.9615101   0.7105065   0.0056344
   0.1742868  -0.0137942  -0.0268909   0.1571855  -0.7619714  -0.2550362
   0.4855092   0.4445838  -0.8048318   0.0433290   0.1848291   0.0624619
   0.4418540  -0.8444480  -0.7643749  -0.5522078   1.1123582  -0.1112459
   0.1079085   0.0937491   0.1481237   0.9719287   0.0583616  -0.3529524
   0.9250550   1.0801492  -0.3868814  -0.1201275  -0.0170704  -0.1016699
  -0.4632081   0.0826524   0.5681232   0.8787761  -0.2938998   1.0737888
   0.0243350   0.0861549   0.1190242  -0.1543851   1.5465363  -0.8823925
  -0.6593099  -1.1239191   1.4133022   0.2808500   0.0356585  -0.0091683
   0.0146535   0.2054196   0.4933263  -0.7295582   0.7522957  -0.3584862
  -0.0939447  -0.2480123  -0.0049375  -0.1911624   0.2816960  -0.5373453
  -0.5071192   0.7093668   0.8155780   0.1493737   0.1061550  -0.1465735
  -0.0425515  -1.6283927   0.0129768   0.4476005   0.3606227  -0.8366819
  -0.2426537   0.4349443  -0.2094149   0.6858943  -0.2073122  -0.2152529
   0.0014501  -0.8122601   0.5127874  -0.1556584  -0.1819872  -0.2190403
   0.5071807   0.0769358   0.5253902  -0.8088422  -1.1807479   1.2216383
   0.2743340  -0.0868105  -0.2221366   0.2535113   0.4077756  -0.8948421
  -0.3570818  -0.0089856  -0.8889388   0.2199775   0.0562518  -0.1332355
   0.8206363   0.4937756   0.0872741   0.1482178  -0.9505304  -0.2399893
  -0.3358987  -0.0990337   0.0404216   0.5727522   0.0705908   0.1654892
   0.1897307  -0.5583225  -0.6567777  -0.2883113  -0.1089618   0.2864473
  -0.2517652   0.3134025  -0.4933843  -0.9499370  -0.4089241  -0.4901709
   0.1029543   0.0579346  -0.0925803  -0.9025236   0.4544813  -0.7077929
   1.0956945   1.7073102  -1.2225960  -0.0951696   0.2480025  -0.1862316
   0.2992060   0.5846610   0.1556066   0.5597170   0.0109243  -0.7074575
   0.0208061   0.0917415   0.3440094  -0.3990166   0.9999350  -0.4263447
   0.2086531  -1.3317453  -0.9513205  -0.0334460   0.0304402  -0.2002507
  -0.4867817  -0.9861405   1.5426402  -0.9763947   0.0043959  -0.9765313
   0.4289782   0.0890344  -0.0146016   0.0499523   0.6173146   0.3944925
  -0.4102746  -0.2951226  -0.1839605   0.0432185   0.0388252  -0.0447946
  -0.6049687  -0.6545132   0.3307710  -0.0930349  -0.9093508  -0.6065420
   0.0826055   0.2199389   0.1134674  -1.1270371  -0.4326210  -0.7088937
   0.7284937   0.5979102   1.6662194  -0.1403663   0.1040645  -0.3862184
  -0.5505232  -1.1377978  -0.3339166  -0.2615186   0.0342112   0.1639296
  -0.1347468  -0.0103172   0.1328037  -1.0046201   0.1336452   0.4224228
  -0.7682578   0.7503471   1.6439011  -0.0341938   0.1505468  -0.1481898
   0.6033007  -0.3450976   0.7482057  -1.4407544  -0.2969771  -0.5632993
   0.0267023  -0.3254975   0.2041163   0.6632608   0.1507107  -0.5533199
  -0.9151318   0.1283231   0.9237304  -0.4047819   0.0495491  -0.1274445
  -0.1028156   0.0614141  -1.0355825  -0.2535486  -0.5097796  -0.4373566
  -0.1364908   0.0230923  -0.1849226  -0.0226694   1.7853702  -0.7576507
   0.3085885   0.6534451  -0.3262899  -0.0381968  -0.0402275  -0.2975393
   1.7649265   0.5316479   0.7217827   0.5504348  -1.3166149   1.1147357
   0.0401992  -0.0417325  -0.0981591  -1.6669046  -0.5199948  -0.3023127
  -0.9080715  -0.5381598  -0.2084612  -0.0128911  -0.2212647  -0.2204136
   0.9915268  -0.5413356   0.3143558   0.9139601  -0.0858491  -1.8621251
  -0.3128123  -0.2200919  -0.0554808  -0.4783393   1.2267144  -0.9458198
  -0.7345528  -1.9926842   0.6384283   0.0273232   0.2353807  -0.0829497
   1.0599302   0.6695838  -0.0948458   0.7716093   0.0256694  -1.2209200
  -0.1524250  -0.0906452  -0.0497314   0.2566802   0.2154127   0.5940687
   0.7486335  -0.5037149   0.0270669  -0.0600574  -0.0747930   0.0443012
   0.7936925  -1.0464773  -1.0122572   0.1670315   0.7566248   0.2462254
  -0.0932480  -0.0664251  -0.2306633   1.2806418   0.8239889   0.2132731
   0.7049319   0.2346078   0.8447523   0.0191691  -0.2024245  -0.1977607
  -0.7773574   1.0950249   0.0685643  -0.7407895  -0.0582527  -0.6694143
   0.2127291   0.0127411  -0.1380376  -0.4212770   1.0850395   0.1698977
  -0.9802167   0.4358302  -0.4571357  -0.1715043  -0.2515509  -0.0596272
  -0.2091520   0.3482121   0.2824753  -0.5599289   0.1034143   1.3241865
   0.0795323  -0.4085097  -0.1299939   1.3054016  -0.2853337   0.2271421
  -0.6838979   0.3971702   0.1326359  -0.1961066  -0.0533546   0.0198511
  -0.2330272   0.5175542  -1.3496609  -0.0945102  -0.8038280   1.7425519
   0.0443309  -0.0960732   0.1910527   0.1210813   0.4674133   0.4150281
  -1.6224049  -1.4148115  -0.4177080   0.0368143   0.1211850  -0.2997791
   1.3624978   0.1069735  -0.8598053  -0.0709379  -0.4002708  -0.6193331
   0.3398408  -0.1143643   0.0737673  -0.1891670  -1.6622875   0.3665006
   1.1617574   0.7306766   0.2712572  -0.3057261   0.0284178  -0.2777907
  -0.3668058  -0.5304150  -0.5259390  -0.5262016  -0.3512949   0.4506192
  -0.1391209   0.4520868   0.0122927  -1.0334244  -0.9240479  -1.9602260
  -0.2187780  -0.1932298  -0.1518488   0.0568004  -0.0423024  -0.1186574
   1.3629509   0.1469156   0.3111610   0.5442039  -0.2623281   0.5989474
  -0.0774451  -0.1732747   0.0661010   0.6067740   0.3674422  -0.8592703
  -0.2014543  -1.5231741  -0.9618599  -0.1270830  -0.2668350   0.0487136
   0.3892243  -1.3074247   0.0756182   0.7003735  -1.5109453  -0.5237834
   0.1024103  -0.2094642  -0.1478810  -0.9037833   0.3462120   1.7440278
   0.4069417   0.2270288  -0.1950081   0.0298296   0.1360209  -0.0733256
   0.8014867  -1.2650419   1.0061441   0.2055694   1.2308008  -0.4954974
   0.1212938  -0.0554946  -0.2532135   0.0023447  -0.0654471  -0.3766932
   0.2711760  -0.1668648  -0.9114403   0.3664602  -0.0070304  -0.2791562
  -0.8586207   0.0164643   0.5293659  -0.0715041   0.1272587  -0.8335088
   0.2145160   0.0640675  -0.1056719   1.0005080  -0.6158302   0.5046880
   0.9744530   0.3932225   0.0715074   0.3789523   0.4348999  -0.4112817
   0.8711503   0.1243378  -0.1452405  -0.8807063  -0.4054402   0.2209398
   0.0537843  -0.0692514   0.2800008  -1.1939108  -0.2920487   0.4066720
   0.3038448  -0.5428740  -0.1056683   0.2761219  -0.1120268  -0.2127310
   0.8011078  -0.0541528  -0.4276075  -1.4815028   0.7531536   0.3585350
  -0.0790754  -0.2937263  -0.0274773  -1.5092097  -1.4864402  -0.1188488
  -0.2533709  -0.3173430  -0.5494400   0.4092917  -0.0810430   0.0058590
  -0.6133777  -1.1681008   1.0298713  -0.9061563   0.2028502   0.0254875
  -0.1932510  -0.2910298   0.1487957  -1.0944901   0.6398675  -0.6561397
  -0.1496145   1.9100446  -0.8183203  -0.1131207   0.2791520   0.1514949
   0.7482212   0.6958186  -0.3252931   1.7325549   1.3500916  -0.4114980
   0.0885473   0.0317347   0.0372030  -0.8800714  -0.5892927   0.0678731
   0.2847474  -0.3437035   1.0587369   0.2816479   0.0319275   0.0274986
   0.9251056  -0.3120720  -0.3101966   0.1260249   0.3805594   0.6105880
  -0.2620472  -0.1824921   0.1437686   0.9422463   0.5809743  -0.2569136
  -0.4691494  -0.4232133   1.8811237  -0.2795144  -0.2203416  -0.3289171
   1.1945538   0.5803472   0.9634831   0.6615760   1.5376817   0.8135831
   0.2451374  -0.0438911   0.1508694   1.3057920  -1.0832017  -0.3631813
  -0.1213031   0.8348028   0.3264443  -0.0897840  -0.3986493  -0.0591107
  -0.3460615   0.1778963  -0.9556588  -0.4963140   0.2606035   0.8435917
   0.2350902   0.0191332   0.1543733   0.1333020   0.3508315  -0.3486665
   1.0280122   0.4159910  -0.7216590  -0.0244381   0.3177604  -0.0802167
   0.3577485   1.7081166   0.5200125  -0.1878105  -0.6332561   0.6907023
   0.0076720  -0.1639651   0.2317926   1.1512498   0.5549231  -0.2601877
  -0.4270879   0.1452435   0.6443333  -0.2822991  -0.1225866  -0.0015761
  -0.4076277   0.1185359  -0.6052964   0.1078077  -0.7446330  -0.2059454
  -0.2476751  -0.2382794   0.3775012   1.1902212  -1.2124735  -1.0220863
   0.8697603  -0.8639924  -0.8558061   0.2264930  -0.2313815   0.0209203
  -0.4214643   0.3665173   0.9075292   2.0103683  -0.9041306  -1.2463820
  -0.0450910  -0.2470699   0.0397830  -0.1731203   0.2630980  -0.2566844
  -0.3647052   0.4399972   0.3886652   0.2248288   0.1511941   0.2059187
   0.5936504   1.1770763  -0.1067112   1.1813274   0.1450259   1.3257548
  -0.0208437   0.1490951   0.2104312  -0.5871144  -0.4855508   0.9738965
   0.0390669   1.1345961  -0.2619615   0.1273203   0.0616902  -0.2186633
  -0.6822122  -0.2586752  -0.9557408  -0.3837787  -1.0395382  -0.5345217
   0.1517452   0.1035797  -0.2612203   0.6867678  -1.0482691   0.6282119
   0.4178946  -0.1723445   0.8356924  -0.1878755  -0.1615065   0.2022841
  -2.0627600  -0.5879976  -0.3770114   0.9606507   0.0709542  -1.3110532
  -0.1178449  -0.2221313  -0.2278346  -0.5710752   0.3143049  -1.2702927
  -0.8326974  -0.6966729  -0.8782360  -0.2125520   0.2665055  -0.2650086
   0.6164482  -0.7451476  -0.0105452   0.0442391  -1.0539056   1.2127214
  -0.2067086   0.0706152   0.1900589  -0.1031216   0.8223347   0.5646919
   0.6362472  -2.4676821   0.0986626   0.0281625   0.2869726  -0.0368961
  -0.0794814   0.8942921   0.6284196   1.0678582  -1.4381523  -0.6979149
  -0.0394188  -0.1786699  -0.4155467   0.9461262  -0.4526588   0.7592476
  -0.1148161   0.2234562   0.2543357   0.2616100   0.2483510  -0.0662202
  -0.8894769  -1.6688768   0.5836794  -0.2852719   0.0283266   1.4205526
   0.0261199   0.1113975   0.0029191  -1.6647331   0.3379521   0.8854183
  -1.1697147   0.3463069  -1.0653194  -0.1857460  -0.0102403  -0.2636250
  -0.0779062  -0.0990068  -0.9782488   0.1253743   0.2659085   0.5536495
   0.2398135  -0.1367173  -0.0966645   0.4283624  -0.0177794  -0.9353104
  -0.5425016   0.1351925   0.8111731  -0.1781642  -0.1242261   0.1917914
   0.6606254  -0.2191172  -0.9933642  -0.0912541  -0.6571308  -1.0942899
   0.1213498  -0.0373723   0.2288003   0.2355344   0.5304760  -0.4862600
   0.5915115   0.2768009  -0.0383889   0.0930276  -0.1208342  -0.1390913
  -1.2608510   0.8997350   0.4487264  -1.4269404  -0.0257992  -0.5813284
   0.0048606   0.1006292   0.0475611   1.5512078   0.7730305  -0.2749530
   0.2989382  -0.9585778   0.2238160   0.2438628   0.1612527  -0.1624777
   0.7654627   0.2677462   0.9464822  -0.3471540  -0.5256655   0.2072650
  -0.1946102   0.0892130   0.1150711   0.2289511   1.5161403   0.7515342
  -0.1373057   0.4477857  -0.7464180   0.1522466   0.0014152   0.1979330
   0.7422858  -0.0284379  -0.2479003  -0.6464078  -1.6938586   0.4955322
  -0.1388773   0.1522442  -0.1127311   0.2630225   0.5585143  -0.8661230
   0.2793064  -0.0787455  -1.7962493  -0.0242578  -0.0627497   0.1873059
  -0.8471066   0.7533670  -0.9439161   1.6938948   0.5509299   0.1139737
   0.4195580   0.2385243  -0.1513862  -0.5802259   0.0256379   0.2114068
  -0.3814672   1.0111011  -0.5101887  -0.0402270   0.0256495  -0.0875883
   2.2999703   0.0785993  -0.3842013  -0.6116329  -0.3190517  -1.6666418
  -0.0952968  -0.2628519   0.0883990   1.7886147   1.3962565   2.6257941
   0.5526688   0.9205626  -0.3085751   0.3466961   0.3446669  -0.0302411
   0.8553239   0.1568433   0.7730595   0.1870413  -0.2249254   0.3858500
   0.2102520   0.0400275   0.3073826  -0.2407742   0.0449304   0.1151855
   0.4801291   0.7267121   0.4694208   0.0384472  -0.1199220   0.1180257
   0.1395216  -0.8440766  -0.6482278   0.5771097  -0.4647145   0.2962979
   0.0339793   0.0882619  -0.0629831   1.3116899   1.2347258   0.7772110
   0.8470815   0.7208835   0.4473635  -0.2781662  -0.2374516   0.2345567
  -0.6675965  -0.9932619   0.5171080  -0.3390366  -0.5818849  -0.3700393
  -0.0515768  -0.1648518  -0.1459174   1.3749538  -1.4435138   0.7775448
  -0.2320090  -0.5151208   0.4303686   0.1691720   0.0178726   0.4287723
  -0.3935277   0.3319436   1.2101638  -1.8117703  -0.3790325  -0.9493884
   0.2416697   0.2359520  -0.3322337  -0.0339054   0.8716542  -0.2500525
  -0.6078145   0.2627886   2.2203552  -0.1344983   0.0317224  -0.0902774
   0.5534941  -0.4690182   0.6610947   0.0170901  -0.1342522   0.2955889
   0.0163168   0.0853215   0.0960160  -0.4413575   1.2236903   0.9243658
  -0.3062012   0.0786385  -0.6492307  -0.0360484   0.1424100   0.4711748
  -0.1245415  -0.1073812   0.2681690   1.0154646   0.1452198   1.6370211
  -0.3713618   0.0111734  -0.2847441   0.1668246  -0.1795816   0.2215078
  -0.7325499   0.8787264  -0.0615692   0.1343805   0.2519877   0.0272049
   0.3967070   0.0501426  -1.5816568  -0.6556083  -0.5197584   0.3911972
  -0.1857487  -0.0500018  -0.0480824   0.1830741  -0.8520238  -0.5658981
   0.0273488   0.9658368  -0.9616318  -0.1970955   0.2478018   0.0465715
   0.4154787  -0.2950164  -1.7721034   0.1063454  -0.0570324   0.6147842
  -0.2903860  -0.2277188  -0.0476011  -1.3294067   0.5618373   0.7571921
   0.3978791  -0.3302649   0.6392299   0.1125863   0.3392409  -0.0656865
   1.2241441  -0.4844956  -0.0022008  -0.1527149  -0.5313913   0.0705255
  -0.4713722   0.0150748  -0.1725861  -0.2924868  -0.5769414  -0.5413411
  -0.4071330   1.0306242  -0.4340190   0.0300292  -0.1005236   0.1125472
   0.0424289  -0.6906749   0.0345694   0.0046567   1.5890495  -0.5086714
  -0.1462719  -0.1752903  -0.0041646   1.3461587   0.0334255  -1.1700558
  -1.6583445  -0.2514194  -1.3739837   0.1861105  -0.4089520  -0.3439755
   0.6259375   0.8993738  -0.0123956  -1.7390154   0.2572277   1.0163730
  -0.1187516  -0.2217279   0.1097203  -0.5762595   1.3783762  -0.2975374
   1.0333081   0.6295734   1.2478328   0.0573155   0.2173996  -0.0526096
   1.7982207   1.6644178  -0.3108333  -0.3101805  -0.0576419   0.7236526
   0.0068146  -0.1277909  -0.1827475  -0.4246543   1.1347519   0.5131737
   1.5143946   0.1003279  -0.2984317   0.4358566   0.2456360   0.0107457
   0.2275189  -1.9321840  -0.8950604   0.0915857  -0.1637790   0.1082490
  -0.0416217   0.2254144   0.1464555  -0.6772207   0.7409290  -0.3754928
   0.6398731   0.1287703   0.1893409   0.1405050  -0.2778909   0.1594291
  -1.0517987   0.8624904   0.5202322  -0.2393236  -0.2202216  -0.7032826
   0.3773533   0.0420627  -0.1080256  -0.1052549  -0.1507109   0.5685786
  -0.0562941   0.1995754  -0.8786446  -0.0189205   0.1134987  -0.1705504
   1.3146607   1.5136718  -0.3269849   0.6272083  -1.8338594   0.3101674
  -0.0081837   0.0601416   0.0492580  -1.2345779   0.3700580  -1.2573877
   0.0260776  -0.9581715  -0.5025971  -0.0292966   0.0932906  -0.1478725
   0.1385109   0.0376517   0.5254024   1.1187961   1.0019700   0.9512105
   0.3735423   0.3770660   0.0470806   0.9376014  -0.7798330   1.4502507
   0.6991918   1.6301373  -0.2879272  -0.0083673  -0.0644756   0.0792843
   1.5075702  -0.5987354  -0.8333850   0.3576422  -0.3149549   0.3337020
   0.4021056   0.0858723  -0.1404107  -0.9848453   0.9754185  -0.1790180
  -0.7804919  -0.8186704   0.1215824  -0.0070621  -0.0625871  -0.3901165
  -1.0676982   1.1261142  -0.0358130  -0.7665870   0.6325168  -0.5563114
  -0.0936245   0.0561991   0.0064427   0.4898723   0.1750116   0.1944968
  -0.1831883  -0.5221655   0.7159805   0.0962165   0.0099684  -0.1054288
   0.1670809   0.1038213   0.0653753   0.1026035  -0.9899611   0.2303212
  -0.1393301  -0.0038907  -0.0867195   0.3201181  -0.5156915  -0.0489920
  -0.7206629   0.3182424   0.1944436  -0.1120452  -0.1999308   0.0664799
  -0.8763338   0.1345090   0.2423487   0.3531174   0.3888020   0.5365706
   0.0137632   0.1467213   0.0393654   0.6814262   0.0688083  -0.3094470
   0.4116378   0.5779051  -0.7106822  -0.1689398  -0.4830253   0.0671654
   0.2985294  -1.4869236   0.3597525  -1.4602170  -0.0017156   0.6430498
   0.0130747   0.1504975  -0.0390891  -0.4089373  -0.2796643  -0.5230617
   0.9538725   0.5405218   0.4329286  -0.3528563   0.1198864  -0.0453479
   1.8176197   0.0564087   0.0661589  -0.6537197  -0.9704710   0.3559192
  -0.3549967  -0.3095823   0.0023758   0.3981801   0.7258320   0.5490819
   1.6167571  -0.3706756   0.4375739   0.2582665  -0.0473237  -0.2596004
   0.3842393   0.2521064  -0.6668869   0.0215655  -0.3002126  -0.3354950
  -0.0460087   0.0844257  -0.4073194   2.2333484   0.3628341  -0.1894564
   0.0878187   0.4725256   0.1292484   0.1369519   0.2261522   0.1125963
  -0.8086065  -0.4891312  -0.1994248  -0.2818976   1.1965335   0.7553246
  -0.1617345   0.2570335  -0.1379458  -0.3449751  -0.0112589  -0.7548905
  -0.8660928  -0.8169660   0.3727630   0.0231142  -0.2521224   0.2165607
  -0.1755815  -0.6456403  -1.1595463  -0.3265942  -0.5034523   1.0809926
  -0.0507023   0.2001831  -0.4289310  -0.0338917   0.6184411   1.7219304
  -0.4044504   0.7318012   0.6238098  -0.2033322  -0.0558322  -0.1941071
   0.5327150   0.1049212   0.3003942   0.1081403   0.3911743  -1.6103782
   0.0550346   0.0249930  -0.2532927   0.0245940  -0.3049278   0.1441630
   0.0633738  -0.1217517  -0.5689776   0.0028923   0.2331817  -0.1037033
  -1.0065041   0.4251119   0.3088830  -1.1483724   0.0834341   0.8130257
  -0.0589289  -0.0692834  -0.1521864  -0.2701094  -0.2299786  -0.7827258
   1.7470309   0.8656610  -1.0982393   0.0374535   0.0594031   0.0980259
  -0.9780371  -0.0673956   0.0632233   1.3890299  -0.2974720   0.4519556
  -0.0117892  -0.2163172  -0.2953177   0.6732825  -0.9511822  -0.7103958
   1.1050575   0.8559567  -0.3418303   0.0498139   0.0187135   0.0039591
   0.3023037  -0.1632905  -0.2202485   0.2276371   0.7896473   0.2963740
   0.0617572  -0.2297769   0.3399177  -0.3040579  -0.6422061  -0.7626465
   0.5602712   0.2884717   0.8751868   0.2377052  -0.1744458   0.0642190
   0.3751171  -0.5935625   1.2838974  -0.1551461  -0.0398511   0.8665043
  -0.1015549  -0.2970827   0.1274080  -1.4184783   0.6525014   0.2476397
   1.2031461   0.5993104  -0.2999242   0.0000790   0.0976902   0.1088097
  -0.1686828  -0.3820628   0.2917223  -0.5855009   0.1520462  -0.3752892
  -0.1113325   0.2300873  -0.0782416  -1.1339567   0.5967215   0.4454022
   0.4233706  -0.2307657  -0.5414647   0.1662455   0.1306504  -0.1118858
  -0.2358727   0.4669075   1.5884648   0.6341328  -0.8290795  -1.1345418
   0.4193737   0.2268595   0.1283809  -0.0970901  -0.6698536  -1.2484246
  -0.2753834  -0.7316077  -0.1211595  -0.1065827   0.0481442  -0.1198651
  -0.0540903   0.6962964  -0.6187241   0.0965888  -1.2069825   1.2932810
  -0.0956081  -0.0706012  -0.0745170   0.6975233   0.0609709  -0.0469185
  -0.0615043   0.2238154  -0.3595704  -0.1245795  -0.2457684  -0.1784637
   1.4613201   0.5362018   0.9444994  -0.0699389  -0.6952951  -0.3454969
  -0.3389954   0.0016959   0.1392075  -0.3721986   0.4432279   1.3210148
   0.8347821   0.2261712   0.7642774   0.1317051   0.1089461   0.0399320
  -0.0320686   0.0605939  -0.9105013   0.4019929   1.0022466  -0.2850681
   0.0393236   0.1580115  -0.2299899  -0.9201597  -0.4838846  -0.6188456
  -1.5928967   0.6396499   1.2523046   0.0167633   0.2002502  -0.1496387
   0.5000247  -1.2190881   0.9659925  -0.4739680   0.1990343   0.1690428
  -0.3758116   0.2955855  -0.0735290  -0.7846414   0.5564376   0.2653577
   0.6946410  -0.0457891  -1.3251906   0.0184825   0.3188438   0.0392887
   1.2159334  -0.7190113  -1.0846306   0.5598471  -1.4134091  -0.0906023
   0.0157365  -0.0371353   0.4203827  -0.5662535  -0.5208469  -0.0361058
   1.5783086  -0.5965627  -0.9407165   0.0565936  -0.5166649   0.2736648
   0.3552543   0.9775044  -2.0259440   0.0261166  -0.8376579   0.3103852
   0.2992452   0.1258331   0.4016132   0.0250788   0.0040451  -1.1110792
  -0.2554774  -0.3452642   0.8508717   0.2062338   0.1476171   0.2577879
   0.7793296   1.1272401  -0.2878231   0.2813996  -1.0850198   0.5318852
  -0.3576109  -0.1157673  -0.1761811  -0.7035239   0.4276631  -0.9848597
   2.3406099   0.7777600   0.9375791   0.0153368  -0.0514484  -0.2186145
   0.1005820  -1.1489846  -0.1905721   0.1912288  -0.8096805   0.2509471
  -0.4097604  -0.2953559   0.1431338  -0.3914444  -0.1914869   0.0376675
   1.2895784  -1.6170628  -0.1654848  -0.0441004   0.0591016  -0.0774001
   1.4053718   0.6790613   0.2350072  -1.3158301  -1.5600749   0.0346730
  -0.2059050  -0.0630119   0.1546740   0.5647870   0.7519404  -0.1116226
   0.8126268  -0.3940543   1.2589613  -0.3554902  -0.0155493   0.0031396
   0.4071884   0.4310392  -0.8600918  -0.0761010  -0.6825311  -1.0374673
  -0.0960729   0.4094033  -0.0336319  -0.3366875   0.7844945  -0.1311918
  -2.7059928   0.0042720  -0.5003923   0.3273215   0.3748240  -0.1095276
   0.0887983   0.6400575   0.6987037   1.4379843   0.3186425  -0.3194296
  -0.0521748   0.1384057   0.1635244  -0.9359286   0.2030706   0.6345236
   0.1761077   0.7458212   0.6877131  -0.3127060   0.1828629  -0.2713239
  -0.1673154   1.0873507  -0.5973695  -1.0583706   0.0006096   1.8284815
   0.5350814   0.3892519  -0.1531158   0.6495316   0.1172196   0.3792951
   0.3100920  -0.2835951  -0.7366491   0.0269516  -0.0429469  -0.2827309
   0.3860635   1.5056487   0.1211768   1.2063401  -0.5706020   0.5334520
  -0.1332780   0.0920709   0.0912735   0.5444177   0.1750557   1.5108713
  -0.5928752  -0.1435641  -1.4610773  -0.1744373   0.0177712   0.1648429
  -0.9972327  -0.5437265   0.1562292   1.7699401  -0.9604963   0.4545786
  -0.2145807  -0.0809248  -0.2645227   1.0860361  -0.6732385   1.9812302
   0.1908844  -0.1074508  -1.0491865   0.1840000   0.0588266   0.0786431
   0.2123790   1.7317160   0.0989175  -0.9603514  -0.3864068   0.0397161
   0.0509843  -0.1894351   0.0581302  -0.7244768  -1.2385615  -0.0537582
  -0.9263445   0.4443569   0.2892091  -0.1409027   0.3502760   0.3359288
  -0.1667025   0.8638931   0.7649222  -0.5728106   0.4640051   0.0260831
  -0.2602802  -0.1058320   0.1697707   0.6676740   0.2305395   0.0892009
   0.5178269   0.0875472   0.6730569  -0.1920741   0.0745587  -0.4110328
  -0.8897033   0.1557060   1.3688969  -0.9129244  -0.2888817  -0.4400038
   0.0658488  -0.1601824   0.1844327   0.5103098  -0.4600374  -0.7702494
  -0.6692336   1.1819174  -0.7708791   0.2995571  -0.0614068  -0.1035822
  -0.4329645  -0.0878884   1.6452325  -0.5058956   1.9191684  -0.0691957
  -0.1744930   0.1897521   0.2295104   0.0531010  -2.2993433   0.0749301
  -0.5663558   0.7444367   0.2041552   0.1519222   0.3685207   0.0136717
   0.9071840  -0.2432101  -0.7897497   0.6408642  -1.9032367   0.6165844
  -0.1326739  -0.0378471  -0.4685597   0.1801002  -0.7283479  -0.3365697
  -2.6426630   0.7105067  -0.7283957  -0.1009750   0.1023261   0.2726119
  -0.4864164  -1.0574263  -1.7095287   0.5742940  -0.0609631  -0.5479098
  -0.2557139  -0.0528417  -0.1474221   1.0499847   0.2018347   0.9205443
   0.0173508  -0.6235861  -0.7391898  -0.1345306  -0.1374361  -0.0007573
   0.0683458   0.4794107  -0.0737422   0.3738460   0.5734167  -1.5973156
   0.2038353  -0.0153627   0.2411299   0.1405306   0.9352752  -0.4118955
  -0.0389808  -0.0850386  -0.5232692   0.1203169  -0.3910722  -0.0549405
  -0.5136912  -0.4796375   0.4915675   0.6487772  -0.1415372   1.5273895
   0.1638229  -0.3266647   0.0087722   0.4226190   0.5198179  -0.7024803
   0.1691331   0.0863816   0.1635026  -0.1194331  -0.3612283  -0.3856620
   0.0269681  -0.7684942   0.6426267   0.4803819  -0.9660427   0.3223210
  -0.0532937  -0.1521592   0.0705067   0.0270216   0.3759035  -0.4371646
  -0.4447730   1.1357105   1.4866774  -0.0260813  -0.2472889   0.0803294
   0.3600458   0.8888703  -1.6908689   0.4710273   0.2515813   0.6014316
   0.3106041  -0.1403730  -0.2063288   0.7895576   0.4550529  -1.1910573
   0.9147080   1.2600315  -0.2021238  -0.2040972   0.1420092  -0.3228301
  -0.8974779   1.0505868  -0.2405020  -0.5648720   0.6566013   1.0439087
   0.0256917   0.0340392  -0.0466437   0.0314966  -0.5716335  -0.8497319
  -1.2406941  -0.6320686  -1.4285692   0.3254573   0.1020091  -0.3108206
   0.7559366   0.2319502   0.8085009  -0.0908402   0.5943713   1.0756503
   0.0991444  -0.0712161  -0.5858093  -0.3050063   0.8154961   0.8972442
   0.4792971  -0.5752206  -0.0990586  -0.0061956  -0.0052570   0.0900556
   0.5530431  -0.8934242  -1.0732707   0.2400708  -0.5995706  -0.9781201
   0.0544815   0.2140014   0.0032925   0.4301303   0.2016271  -0.1319725
   1.0167761  -1.3824858  -0.1522719  -0.0442760   0.1571077   0.0716087
   0.1630563   0.2925242   1.3303902  -1.4597335  -0.2619459   0.5816965
   0.0105666  -0.2126614   0.0426142  -0.6193047   0.2844747   1.3864467
   0.4066987   1.5200172   0.7665349  -0.1867023  -0.0370566   0.1074118
   0.0474382   0.0447115  -0.7490250   0.1773850  -1.2701231   2.1236987
   0.0916781   0.3322190   0.0476610   0.8436411  -0.1998854   0.4323758
  -0.8330133   0.8001042   0.4690168  -0.0928823  -0.1180177  -0.4094088
  -0.4659693   0.5769723   0.8313291  -0.0615438  -0.0168176   0.5520565
   0.1058918   0.0053355   0.0384095  -0.8995404   0.0782222  -1.3106554
   0.3202975   0.4063024   1.5818453   0.0134508  -0.0335635  -0.0003680
   0.1629461  -0.7144855   0.2149603  -0.3538909   0.2250214   0.4712239
   0.0593076  -0.0122246   0.3062715   0.5022372   0.5665280  -0.0908622
  -1.7459225   0.3003905  -0.2642012  -0.0418906  -0.2306186   0.1094672
   1.1627640   0.0550780  -1.0364578   0.4759441   0.2277454   0.9624980
  -0.3216555   0.1380339  -0.1083910   0.0805007  -0.6370633   0.7610167
   0.7234995   0.6740615  -0.8423743   0.0047823   0.2094244  -0.0159011
   0.6087636   1.5119127   0.0629948   1.2821698  -1.1098305   0.2155728
  -0.0049851   0.1639567   0.0372260   1.0642821  -0.1773014  -1.1791786
  -0.7736030   0.1562894   0.1732344   0.1896003   0.0593289   0.0795628
   0.7367338  -0.5114997  -0.0315515  -0.8330736   0.9873363  -0.7085846
  -0.1378827  -0.1188117   0.0049490   0.0682937  -0.7637324  -1.0159766
  -0.2459122   0.5850599  -0.5470949  -0.0925848   0.0175848   0.0051493
  -1.4971138   0.4882251   0.5867363  -0.7067644  -0.6435282  -0.6745253
  -0.1225795   0.2467176  -0.0585096   0.1716890   0.6535899   0.6952681
   1.3309316  -0.0781951   0.0376724  -0.0137127  -0.2422485   0.3763107
   0.7557686  -1.1617951   0.5211530   0.4595598  -0.2459409   0.7164673
  -0.2602951   0.0758382   0.0525416  -0.4572314   0.4079916  -0.4686211
  -0.0734261   0.6916071  -0.8012062   0.4938258  -0.2101423  -0.4465562
  -1.2638023   1.3161694   0.7045336  -1.2197084   0.0611048  -1.3711501
  -0.2532173   0.0079410  -0.0099072  -1.1932448  -0.9624124   0.9985373
   0.4981861   0.7273108  -0.5853013   0.0776470  -0.0304181   0.0510206
  -1.2590180   0.0165103   0.4540458   0.0582868  -0.1915703   0.3623997
  -0.1400382   0.1395048   0.1497394  -1.1154194   1.0290739   0.6797830
   0.3480236   0.0928163   0.3807007   0.0194521  -0.3562464   0.2707842
   1.3164221  -0.7916074   0.0953736   0.2653439   0.1843563  -0.5378057
  -0.3299460  -0.0266411  -0.3188737   1.5701136   0.4294121   0.4654907
  -0.2847489   0.2226505   0.9487778  -0.0930601   0.0770589   0.1003832
   0.2180309  -1.2846758  -0.9307792  -1.2310499  -0.0523760   1.5200628
   0.0678241  -0.2705623  -0.0773206  -0.1996586  -0.8222761  -1.0033185
  -0.3692133   0.1199864   0.7486696   0.2165909   0.1332305  -0.3358531
   0.2372140  -0.7324795   0.8592206   0.1139150  -0.7521821  -0.6690193
   0.0986535   0.0825132   0.1727158  -0.1974310   1.1137822   0.1262141
  -0.3960422   0.9412943  -0.3733197   0.1041145   0.0207152   0.0495115
   0.0771647  -0.5628221   0.0612340   0.1876984   0.1400014  -1.5947294
  -0.3752515  -0.2012177   0.0733748   0.6976363  -0.0080810  -0.8949569
  -0.7208028   1.0723813  -1.1440266   0.0018153  -0.0556868   0.1791511
   1.9533907  -0.6068764   0.5106830   0.8987071  -0.9361812   0.7226518
   0.2514624   0.0379096  -0.0161252   0.6824574  -0.5934753  -0.0350131
   1.0185428  -0.4002689   0.4638784  -0.2039923  -0.2069091  -0.1607021
  -0.3272188   1.2525919  -0.0436787  -0.8723038   0.9532277   0.7346503
  -0.0892601   0.1186645  -0.1118847   0.2405916   0.1026047   0.1278299
   0.2868463  -0.0783433   0.5423812  -0.1231465   0.1344748   0.1048380
   0.2097635  -0.3096512   1.4216875   1.4798071   0.2047961   0.3924039
   0.0543588  -0.1598676  -0.1171174   1.4171005   0.2780361   1.0093261
  -0.5128866  -0.4491012  -0.4281337   0.3856887   0.0566835   0.0305433
   1.1088832  -0.1612166  -0.7363844   0.6941785   0.7146288   0.9652461
   0.2300818  -0.3097188   0.0440173   0.1008924  -1.1373111   0.0649036
  -0.2588079   0.6201502  -1.0483323   0.1325670   0.1198834   0.0526256
  -0.8953078   0.7683586   0.6635513  -0.5932115   0.8040534  -0.0372689
   0.3928856   0.1933873  -0.0333052  -0.3221315  -0.1209563   1.4864329
   1.5654721  -1.0490383   0.1482487   0.0089479  -0.1070103   0.1361226
  -1.5648912   0.3860771   1.0695734  -0.2151812   0.3500401  -1.7572328
  -0.0666306   0.0374353  -0.1955979  -1.3104060  -0.5871507   0.6726168
   0.2385386  -0.0199794   0.2598734  -0.0957014   0.2728315  -0.3123556
  -1.0910318   0.7863809   0.8575747  -0.3539668  -0.2806034  -0.3790030
   0.2977995   0.3081909  -0.0136997   0.6404497  -0.6855490   0.0929837
   0.4045923  -2.3234682  -1.9017096  -0.0431524  -0.1875786  -0.3441475
   0.3289859   0.3002888   1.5592092  -0.6227194  -0.1858056   1.1568699
  -0.2450866   0.0793722  -0.0983825   0.1143014  -0.6837053   0.8367960
  -0.3451489   0.4058048  -0.0130151   0.3813383  -0.1117340  -0.4704704
  -0.4504680   0.7987101  -0.7902461  -1.2543804   0.2508968  -1.3396334
   0.1497192   0.6830787  -0.2175363  -1.0577175   0.5381384  -0.3544979
   0.3227338  -0.0956424   1.8800680   0.1496465  -0.1745297   0.1319622
   0.5386335  -0.2461756  -0.4326901  -0.0477769   0.1334601  -0.3568895
  -0.2358353   0.1325067   0.2003571  -1.3982224  -0.5555757   0.1524125
  -0.0873269  -0.7896490  -0.7884579   0.1286018  -0.3660337  -0.0867064
  -0.8499682  -0.3791602   0.4395903  -0.5695241  -0.8099986  -1.6320015
  -0.0425699  -0.4145830  -0.0961427  -0.9051253   0.0341586   0.3676014
  -1.3108768   0.5237367  -0.2595219  -0.3436321   0.1783654   0.2128553
  -0.1477361  -0.1999028   0.9348559  -0.3389913   0.3580659  -1.1783656
  -0.0478759  -0.0032638  -0.0525720  -0.6348051   0.6782189   1.1604020
  -1.5255965   0.6224536   1.1892939   0.0913271   0.0857308   0.1470680
  -0.2347766  -0.3091010  -1.5151694  -0.2620029  -0.1329331  -1.1687311
  -0.0791446   0.0909014  -0.0317861  -0.2613744  -0.1321253   0.2711191
  -0.0732280   0.2596628   0.4067305   0.1708087  -0.2682679  -0.0503579
   0.1129403  -0.4554647  -0.1678021  -0.8394300   0.1346648   0.8425320
  -0.0896930   0.0878890  -0.0219705   0.0751112  -0.3367177   0.3552374
  -0.6938795  -1.5178623   0.9415539  -0.1172357   0.1144057  -0.2844450
  -1.8118410   0.1749047   0.5238115   1.3813279   0.8633829   1.3219626
  -0.4404626   0.0886758   0.0932171  -0.0964591   0.1459160  -0.6451205
  -0.6223890  -0.7206477  -2.0141475   0.2552059   0.3635536  -0.1102597
  -1.4288287   1.3410546   0.7309731   0.9612570   0.4668491  -0.4613108
   0.1181524   0.0714951  -0.1033643  -1.4172381   0.3894097   0.8750542
   0.3772926   0.3096694  -0.2377428   0.3237629  -0.0505300  -0.4830075
  -0.1306140   0.0044294   0.6124392  -0.3035368   0.5174054  -1.0221443
   0.0223103   0.2434366   0.2390636  -0.5832640   0.1788274   0.7019542
   0.6132140   0.6614601  -0.4872532   0.2522234   0.0650369   0.0085156
   1.7372497  -0.3351612   0.1962026   1.4744514   1.0065894  -0.1846589
   0.0400312   0.0003098  -0.1438805  -0.1449913   0.1054797   1.1137839
  -2.0106785   0.0572876  -0.0728383   0.1873987   0.1098593   0.0696386
  -0.7968002  -0.1352198   1.6008052   0.0244053  -1.7526164  -0.8456540
  -0.1081654   0.0310204   0.0307976   0.7810690  -0.4407341  -1.0231296
   0.7354915  -0.9039288  -0.0418314   0.3221474   0.0846525   0.0635725
  -0.2241278   0.7741890  -0.3567889  -0.3911633   0.1071603  -0.0747165
   0.0933944   0.0889209   0.1598870   0.5111006  -0.0514058   0.2639433
  -0.6998591  -1.2651668  -0.3295739  -0.0276847   0.2000716  -0.0732093
  -0.0767524  -2.1567429  -0.9015679  -0.2236379   0.5631728  -0.8040864
   0.2213762  -0.1921520  -0.1329024  -1.4785526   0.5779181  -0.5269644
  -0.5009549   0.3610435   0.9246054   0.1515167  -0.1044859  -0.0237110
   0.5409883   0.2453845   0.7569309  -0.0834465  -0.1641169  -0.6525647
  -0.0912687  -0.0244579  -0.1010334   0.3891989  -0.2671280  -1.3157997
  -1.7791643  -0.4852926   0.7765292   0.1678838   0.0356537  -0.1142325
  -0.0876136   0.1717070   1.0877210  -1.3074786   0.1855623   0.4533857
  -0.0215530   0.0708040   0.3375573  -0.4462851  -0.2416713   0.1469552
   0.6401773   2.0861781   1.2661042  -0.0422031   0.0308517   0.1016127
   0.5476534  -0.3826699  -1.8593612  -0.3796391   0.3691833   0.8892220
  -0.0664046  -0.0232206   0.1068056  -0.4925861  -0.0438759  -0.8426154
   0.6142514  -0.2416094  -0.0671008  -0.2106695   0.0340825   0.0083348
  -0.2698740  -0.8439793   0.3921333   0.2412640   0.5378904  -0.4006597
   0.0684980   0.2775094   0.0615860   0.2519187   1.0358466   0.4457664
  -0.6554612  -1.1686620  -0.1976063   0.1524085   0.0823653  -0.0195152
   0.4991531  -1.8125589   0.3993810  -1.0409240  -0.7593747   0.9161830
   0.0040981  -0.0168770   0.1058029   0.2718985   1.0417274   1.5199786
  -0.6091249  -0.7694398   0.3276132  -0.1297024   0.0322651   0.2842251
  -0.3274458   0.4927994  -1.0504735   0.7070357   1.0719546  -0.0327032
   0.1886296  -0.3890898   0.2892507  -0.0773481  -0.2941026   1.0515405
  -0.6973939  -0.6175868  -0.3841156   0.0418643   0.0868514   0.5685733
   0.8044587   1.7625096  -0.5214907  -1.3311578   0.2158016  -0.3395882
   0.0355829  -0.0344672  -0.1150548   0.3579029   0.2775530  -0.6671411
   0.6740576   1.1689924   0.0628495   0.2979714   0.1504296   0.0313946
  -0.0314187   0.6225781   0.2049975   0.1722532  -1.1304135   0.1403377
  -0.0646730  -0.1219198   0.2934041   0.1234789  -0.7792381   0.8084102
  -1.0774177  -0.3005771  -0.3321557  -0.2401400  -0.1567107  -0.0180506
  -0.0867380  -0.4932134   0.3337776  -1.1782888   0.5616279  -0.6406006
  -0.2638843  -0.0121123  -0.0181252  -0.4378053   1.5461605  -0.1579616
  -1.1883808   0.1976376   0.7158845  -0.0386718   0.3811885   0.3193747
  -0.7751924  -1.2263799   0.4287563   2.0383469   0.6724118  -0.3837171
  -0.2181600   0.3330747  -0.2731162   0.0614966  -0.3731015   0.2843870
  -0.4420596  -0.1391394   0.1577736  -0.1135417   0.1347178   0.0587430
  -0.2558846  -0.2366637   0.6125529  -1.5790551  -0.0215983   0.6782263
   0.2533820   0.2662997   0.1403949   0.4126660   0.4901650  -0.3810412
  -0.4394708   1.3545098   1.4215017   0.0138964  -0.1294610  -0.0134484
  -0.6646905   0.8276929  -0.0015126  -0.2664484   0.8704763   0.0902183
   0.2136491  -0.2976344   0.0013551   0.4160258   0.0825295   0.0751154
  -0.6335462  -0.4321445  -0.2861165  -0.1369842  -0.1312457   0.0493862
   0.2707964  -0.9548728  -0.7709654   0.9620942  -1.3704930   0.5935681
  -0.3692372  -0.1384930  -0.0135268   0.2533172   0.1856420  -0.2864536
  -0.3417445   0.9600819  -0.2082167   0.2708041  -0.1975917  -0.1235908
   0.0672761  -0.9056809   0.7302175   0.7206738  -0.2925313  -0.9998658
  -0.0131129   0.0968591   0.0108595  -1.0407335   0.0769724   0.3741779
   0.4824306  -0.6663995  -0.5016014  -0.2704346  -0.2657256   0.0168286
  -1.6723290   0.7492733   0.7158741  -0.1751865  -0.5568944  -0.4242780
  -0.3347039  -0.3080626  -0.1469511  -0.2808484   0.4716852   0.3046434
   0.9517933   0.3550297   1.6970254   0.2521678   0.0838712  -0.0580133
   1.3464229  -0.4916860  -0.6805000  -2.1232885   0.6444091   0.7138412
  -0.1141496  -0.4436587   0.2831283  -0.3782361   1.4142212  -0.1796066
  -0.5375668   0.6313662  -1.2464058   0.3686170  -0.0511131  -0.2252589
  -1.7360319   0.0753840   1.3165506  -0.1818636   1.0718537  -0.0679986
   0.2203490   0.2525726   0.0305429   0.6054164  -0.4407036   0.1889143
   0.7410269  -1.1839783   0.0608435  -0.2424887   0.2152389  -0.0395857
  -0.3454611   0.6332606  -0.3418851  -0.9949138   0.9873700   0.4325943
   0.2623979   0.1596819   0.2376283   0.4264926  -0.3127513   0.1961999
  -1.1000861   0.0592267   1.0587785   0.0533150  -0.0826938   0.2784471
   0.5488387   0.2178691  -0.7961163  -0.2913761  -0.0691759  -1.2071985
  -0.2712559  -0.0348905  -0.0606941   0.4332882   0.3968140  -0.1714775
  -0.1361578  -0.7740586   1.1390165  -0.1333704   0.1456570   0.0866927
   0.8760681   0.9475450   1.2079304  -0.4509320   0.7530402  -0.1306855
  -0.2009769  -0.1533156  -0.0188541  -1.4650025  -0.4489502   0.4095288
   0.0650135  -0.3995283   0.8786883  -0.4047565  -0.2944076   0.0791251
   0.3362946   0.6283412   0.4743599  -1.3057821  -0.3941261  -1.2168528
  -0.1027687  -0.1007903  -0.1622415   0.7432727  -1.0612097   0.3787835
   2.4416565   0.9756227  -0.2766470   0.3354563  -0.1771751  -0.0243784
  -0.1343356  -0.1654702  -0.3086426   1.5654324   0.4995410  -0.9253796
   0.0635975  -0.1422865  -0.3160952   0.2494284  -1.1125972  -0.1148851
   0.6415593   0.0868626   0.9966276   0.2644277  -0.0709655   0.1642051
  -0.0181616   0.2442169   1.4791752  -0.3494918  -0.2391072  -0.6328745
   0.2766609   0.2431356   0.1453722  -0.4305274   0.5756183   1.2258184
   1.1842095   0.7444302   0.0738320   0.2875608  -0.0376772   0.0616701
  -0.0015024  -0.1522486  -0.0876151   0.5731092   0.1148298  -0.0982611
   0.2247751  -0.0740687   0.0366956  -0.1405851  -0.6130473   0.1848830
   0.8821883  -0.2343228  -1.0934925   0.3489991  -0.0812974   0.1764910
   1.0900681  -1.2191057  -1.2398637  -0.1847795   1.1909921   1.2228324
  -0.1616345  -0.4559545  -0.1561203  -0.0964601  -0.8123042  -0.0759373
   1.1942701  -0.1431608  -0.0562739   0.2351655   0.2941486  -0.0201242
   0.6392760  -0.8729873   1.6745813  -0.3712150   0.8494943  -0.2389815
   0.1583075  -0.0958215   0.1172453  -0.4754654  -0.1409964  -0.4834271
  -0.2170857   1.0254863  -0.4811281   0.3212951  -0.3593103   0.0730162
   0.1168294  -0.5010827   0.4211350   0.1948095   0.4146070   0.3073868
  -0.0372220   0.0006527   0.1523934  -0.8099487  -0.7542809   0.0392174
  -0.3502909  -1.2472030   0.5480813   0.1638129   0.2329329   0.0074927
  -0.1221229  -0.9826367  -0.0483318   1.0169166   0.3910972   1.0592304
  -0.1189435  -0.0066053  -0.0291422   1.6410097  -0.0451376   1.0714220
  -1.4088003  -1.4647553  -0.2509020  -0.1972627  -0.0114022  -0.2324464
  -1.0210413  -0.1023518  -0.2287120   1.3764967   0.1163005   0.5178118
   0.1397190  -0.0137802  -0.2198481   0.4673325   0.3810096  -0.9258448
  -1.0624101  -0.3146603  -0.8555701   0.4464609  -0.1783666   0.1044078
  -0.2387178   0.4883200   0.7431507  -1.0818632  -0.7619810  -0.1879703
  -0.2227693  -0.0000368  -0.0307989   0.3106584  -1.0559696   0.2774146
   0.7073026  -0.8393715  -0.0650249   0.0641465  -0.0103505  -0.0751148
   1.3212298  -1.5877753  -0.0253933   1.6135974  -0.8697607  -0.4004099
  -0.2262930  -0.2427773   0.0302112   0.1255097   0.6216092  -0.7031920
   1.0734937   1.5311416   0.6362725  -0.0762237   0.1846681   0.0473185
  -0.8179368   0.1873033  -0.3856901  -0.9512006   0.0047950   1.2671925
   0.2616685  -0.1051869   0.0807996  -0.7535094   0.6347670  -0.6801855
   1.5675200  -0.5247208   0.6470333  -0.1722471  -0.1865028   0.0998850
   0.8212366  -1.0857422   0.2726852   0.6867917   1.1777570  -0.5537399
   0.1685757  -0.0158098   0.1754731  -1.1001697  -0.8960179  -0.2511503
  -0.7595542   0.4910055   0.0387284  -0.2329694  -0.0738456   0.0650789
   0.3365358   0.1603767  -0.4532590   0.1978856  -0.5446984  -0.3091898
   0.0244313  -0.0054401   0.1487397   1.4927573   0.6950726  -0.3252651
  -0.9320973   1.5923517   0.6237333   0.1199540   0.0682416   0.3049029
   0.0280439   0.8492126   1.1320345  -0.6132750  -1.4434045  -0.0093056
   0.0217307  -0.0302881   0.2428148   0.3561458  -1.2923791   0.2305535
   0.9877390   0.3174522  -0.4430565   0.1412755   0.1224267   0.1575487
  -0.2151954   0.4020334   1.0167042   1.1098265  -1.5079585   0.8969119
   0.1246139   0.0719016   0.0998658   0.1406656   0.7768238   0.9667664
  -0.5238110   1.1066286  -0.1442844  -0.0570910  -0.0558382   0.0590279
   0.9630254  -0.3122803  -2.3887157  -0.2395827   0.8729909  -0.5171278
   0.1877532   0.3071145  -0.1005185  -0.4789391  -1.2065060  -1.3183740
  -0.2128644  -1.0301412   0.2342932   0.1708433   0.2944825   0.0889671
  -0.4882258   0.3233869  -0.6920327   1.2003428   0.2779487  -0.3663728
  -0.0852428  -0.3292764   0.2394024  -0.3154396  -1.8676176   0.3081659
  -0.2567794   1.1771509   1.3394975   0.3953787  -0.1638121   0.1509207
   0.3790034   0.7064790   0.2053388  -1.1930328  -1.0779550  -0.3716855
  -0.0796771   0.0401615   0.0842391   0.5162315   1.2764139  -0.4414801
  -0.2748486  -0.4597595  -0.4206665   0.1101715   0.2382969  -0.1224953
   1.8206929   0.2867308  -0.4094095  -0.7284000   1.8634014   0.0738278
  -0.0862983  -0.3073254  -0.1647203   0.1508347   0.5763403   1.6034996
   0.4038225   1.8147051   0.1410242   0.3623967  -0.1561316   0.1062714
   1.1542911  -0.8496206  -1.2527698   1.3135962   1.3488228  -0.3535548
  -0.3134102  -0.1773645  -0.2028828  -0.5492981  -0.1235274   0.0921036
  -0.2467704   0.5759456  -0.2257525  -0.0962017  -0.1893307  -0.0159333
  -1.4409813  -0.4873728   1.9852054   0.3818653  -0.2856358   0.9366228
  -0.0095216   0.1955565   0.0974497   1.0069998   1.0239040  -0.1216670
  -0.1802775   0.0798668  -0.0390065   0.1784038   0.4369411  -0.1759091
   0.9714214  -0.8312087   0.6204413   0.5181191   0.2662024   0.1101698
  -0.0505101   0.2103180   0.0645328  -0.4954330  -0.2243923   0.6367812
   0.3177281  -0.4971583   0.4160737   0.1740763   0.3378996   0.0371930
   0.2565217  -0.5574379   0.2938668  -0.2574094  -0.9187051  -1.3504738
  -0.1562744   0.0989579  -0.0463548  -0.0664081   0.0779516   0.7116698
  -1.5781884   0.3931049   0.6116557  -0.0882559   0.1314380   0.0024999
  -0.8215201  -0.1540578  -0.1750555  -0.9481742  -0.3536152  -0.3143589
   0.5665677  -0.2248638   0.0844137   1.4399123   0.3655023   0.6107694
  -0.3540144  -0.4109890  -0.2871590  -0.1319939   0.0483918  -0.0428554
   0.6631761   0.6012765  -0.1060065   1.3674933   0.8403979   0.2991955
  -0.0552087  -0.2060480   0.3009950  -0.2226764  -0.8066834  -1.2289311
   0.2072977  -0.0447943   0.5154212  -0.0315174   0.2034041  -0.1775989
  -0.0390587   0.2195546   0.1673020  -0.2555946   1.0046755   0.8442306
  -0.0899446   0.3328183   0.0393901  -0.0478857  -0.6607388   0.0579933
  -1.1973546   1.1848550  -0.6605844   0.0638158  -0.1911901  -0.0662342
   1.0500544  -0.6485316   0.0033982  -0.2174329   0.5901858  -0.6096785
   0.3829631  -0.0814640  -0.2828676  -0.2745660  -0.5945339  -0.4077218
   0.7717705   2.1433421   0.4788215  -0.0681486  -0.2110417   0.2208410
   1.0876164  -0.2351788   0.7123560  -0.6749617   0.5240467  -1.0925041
  -0.2526856  -0.0692407  -0.0860221   1.9692583  -0.6804964   0.2611657
  -0.0487981   0.4023240   0.3372321   0.3162294   0.4010869  -0.0640035
   0.9301703  -0.9900344  -0.1914784   0.4078679   0.3727765  -0.2652605
  -0.0595331   0.0304220   0.1392639   0.8997168   1.2969661  -0.1852460
   0.3588548  -0.7023849  -0.2467612   0.0306033   0.0960321  -0.1596996
   1.1435365  -1.1579272   1.1970254   0.7521174  -1.0565983   0.8541249
  -0.0764379   0.1136426   0.1347863  -0.0055535   0.5210372  -0.2530776
   0.3820949  -0.3722157  -0.3987698  -0.1097039   0.1668713  -0.2189063
   0.5949628  -0.7711167  -0.3943203   0.8422631  -0.6340001  -0.1641148
  -0.1283637   0.4119156   0.2343897   1.3296258  -0.0424620   0.1578791
   0.1271628   0.3646859   0.4511144   0.1006205  -0.0033977   0.0305142
   1.0962000  -0.8539084  -0.0523857  -0.0312400   0.3594953  -0.2623140
  -0.1641642   0.1428074   0.1936531  -0.6754885  -1.2758783  -0.1066807
  -0.1730586   1.8073313   0.5688303   0.2529611  -0.0025560  -0.1096923
   0.0074285   0.3732359   0.0837368   0.5151937  -0.9841459  -0.2860767
  -0.0722002  -0.0890254  -0.0785451  -1.1003872   0.4157517  -0.1229314
   0.0973071  -0.0306059   0.1006805  -0.0073754   0.1509267  -0.2883188
   0.2751215  -0.7120972   0.6164018   0.1657946  -0.3021676   0.4352260
   0.0058990   0.0420948   0.2574538   1.8941679   1.0448026  -0.6583505
   0.6619634   0.6255074   0.2252617   0.2654365   0.1554214  -0.0785240
   0.2060703   0.4381547  -1.4283602  -1.8481374   0.2325492   0.9130960
  -0.0083068   0.0297907   0.1358347  -0.8664883   0.9551944  -1.1209264
   0.1569300   1.0904831   0.3847769   0.1566402  -0.0650454   0.0877423
   0.7841501   0.3569527  -0.2486951   0.3584607   0.8434609   1.2549232
  -0.0486402   0.1323712   0.2123463  -0.1159407  -0.0195283   0.5125622
   0.1990969   0.6791283  -0.2145097   0.0393268   0.0554340   0.0391242
   1.0602055  -0.6910622   1.0232370   1.1314203  -0.1179452   0.3797044
  -0.0361959  -0.0425206   0.0161394  -1.0640277   0.5651856  -0.7015857
   0.1031697  -0.1787951   0.6617923   0.0680815  -0.3282012  -0.1950755
   0.0169597  -0.6158284  -1.2242089  -1.6332945  -1.1632004   0.0654633
   0.1966872   0.1597779  -0.6643149  -1.2463418   1.0507736   0.7591860
   0.8821934   1.2156439  -1.9382123   0.0435469  -0.0083845   0.1440680
  -0.0717852   0.3832913   0.6392879  -1.2365096   1.0636712  -0.1158587
   0.2812802  -0.1300752   0.3934329  -0.3374487  -1.0266815   0.1063731
  -0.0082260   0.0014839   0.3356965  -0.1007650  -0.1766721   0.2391383
   1.3535372   0.6440158   0.0139781   0.2633016   1.5415025   0.4928474
  -0.0156143  -0.0043198  -0.0213602  -0.3810627  -0.0713894   0.1522449
  -0.7020764  -0.5270788   0.6584052   0.0768641   0.1704724   0.1671781
   0.5438209   0.4058975  -0.3979794   0.4942497   0.0540864  -1.0294064
   0.0749355   0.0437092  -0.1101896  -0.8130219   0.3447047  -0.9060055
   0.8528439  -0.4624794   0.1758831   0.1471790   0.0228165   0.0394971
   0.2288607  -0.3499671   1.7395729   0.6145781  -1.3042759   0.0553894
  -0.0086750   0.1835662  -0.2079346  -0.2663448   0.4734462  -0.8231323
  -0.3511619   0.1735574   1.1061942   0.1633112  -0.0355650   0.1073348
  -0.0771920  -0.0796168  -0.2287990  -0.3674164  -0.4880546  -0.0318679
   0.3781221  -0.2176221   0.1381628  -0.1408304   1.1049419  -0.4347586
  -0.3213400  -0.6950239  -0.9760805  -0.0047995  -0.1838117  -0.1667018
   0.4951327  -0.9730167  -0.4537816  -0.0707672   0.5579029  -0.0541584
  -0.0215218  -0.1686386  -0.2739271  -0.1242675  -1.8418407   0.3865988
   0.8305916   0.2384768   0.9081182   0.0825598  -0.1203808   0.0939269
  -0.3482704   0.8645877  -0.1979371   0.2355337   0.1079214   0.4105524
  -0.2017878   0.0666945  -0.1142366  -0.7110429   0.3241563   1.3097331
   0.7749848  -0.0335716  -0.6609021  -0.0610698  -0.1587917   0.1914075
   0.6991659  -1.7164638  -0.7024305   0.4930222  -0.1699957  -0.6962703
  -0.0036279   0.2800509   0.2882112   0.3463703   1.4482952   1.1130936
   0.4198332  -0.7330378  -0.2570758  -0.1169510   0.0261570   0.0041606
   0.2671260  -0.2881218   0.6421167  -0.0035992  -1.0470697   0.0754614
   0.0055000  -0.0634878   0.0372550   0.3863335   0.5398953  -0.2068203
   0.8820321   0.0547482   0.1652294  -0.2311917   0.0029198  -0.4431715
   0.2654577  -0.7629319   0.2296185  -0.3257014   0.3547621   0.6904722
   0.1195217   0.0179022  -0.0499312   0.6900120  -0.8339943   0.5818345
   0.9814838   1.1774021  -0.4181182  -0.0400844   0.0502549  -0.5250822
  -0.0371640  -0.2513000  -0.4419650  -0.0444223   0.3249522   0.9795779
   0.2415113  -0.0352628   0.4230891  -0.1838809   0.1846339   0.7981755
   0.7502159  -0.6116725   0.8432770  -0.3223690   0.0634563  -0.3072486
   0.2503337   0.0298546   1.0301419   0.9080078  -2.0926523  -0.1658813
   0.2046368  -0.0733243  -0.3098624   0.0457747   0.4862625   1.0175680
  -1.0512058  -1.5770985  -0.4436400   0.1378977   0.0221246  -0.2076040
  -0.3362199   0.1916071  -0.4558221   0.3766407  -1.0341572   0.3449984
   0.0335381   0.0392294  -0.0316595  -0.5066644  -0.8295951  -0.4923228
   0.0394541   1.2767938  -0.1034805   0.1228884   0.0509592  -0.1976623
   0.5566210   0.6677570   0.3575011  -2.8108299   0.6139776   1.5926513
  -0.0348660  -0.1712979  -0.1774896   0.0265835  -0.5860876  -1.2314326
  -1.8289523   1.0514679   0.3656442   0.1139622  -0.1131633   0.5895120
  -0.1801199  -0.6988199  -0.2698536   0.4197338   0.3217497   0.7349222
  -0.0648232   0.1351713   0.0601229   0.8386031  -1.6157949   1.4912228
  -1.3282048   1.1428388  -0.5361382   0.1599594   0.4139283  -0.1889186
  -1.4033503   1.0130304   0.6492798  -0.6546248   0.3053513   1.0678273
   0.1186431   0.1277702   0.3330343   0.6823038  -0.6324904  -0.3768961
  -0.0371431   1.3403468  -0.1873024  -0.2109220   0.0012842  -0.0364563
  -0.1767631  -0.2099879  -0.4668916   0.1142706  -0.5789282  -0.9231085
  -0.0054906   0.0946031   0.0396430  -0.7661494  -0.1408617  -0.0851962
   0.3272507  -0.4703206  -0.0162725  -0.0048678  -0.1337038  -0.3541188
  -0.4313891  -0.0864118   1.7438385  -0.6403936  -0.9821210  -0.2397579
  -0.0021866  -0.0747229  -0.1350400  -0.2576780  -0.0969332  -0.0215535
   1.1588063  -0.1983592   0.8624036   0.6036846  -0.1209944   0.1323708
  -0.1875363   0.4035717   0.4301199   0.0607501  -0.2183877  -0.8482953
  -0.2370369   0.0108270   0.0320292   0.9295879  -0.4684117   0.6390851
  -0.8232383   0.0622176  -0.8885085  -0.3318458  -0.0313572  -0.1364353
   0.7108133  -0.6558127   0.1718847   0.2325614   0.1935878  -0.0149407
   0.1466479   0.5774424  -0.3773436  -0.4585226   0.9101969   0.5731384
  -0.0431122  -0.5168392  -1.2607120  -0.0685886  -0.0267240   0.1045785
  -0.6165183   0.6199288   0.8883576   0.1239951   1.1289945  -0.7356049
   0.1347901   0.0733693   0.0169890   0.7083580  -0.4657198  -1.4344645
   0.8444698   1.2005333  -0.1178586   0.0476424   0.1901509  -0.1054289
  -0.9764419  -0.1037830  -0.1176875  -0.6431390  -0.7969663   1.5364280
   0.0492492  -0.2158084  -0.2732099   0.0019319   0.9755077  -0.2583692
   0.1222392  -0.7273471   0.5608080   0.0628918  -0.3593359  -0.0182271
  -0.0397440   0.7166551  -0.5282168   0.5867738  -0.8052985   0.5003578
  -0.3651164  -0.0636391   0.2186258   0.5772420  -0.2148183   0.6737252
   1.0316066   1.9448822   0.2880278   0.0054599  -0.4421822  -0.0800710
  -0.2155150   0.2646872   0.4793727   0.9297564   0.1817731  -0.3899170
   0.0114981   0.1001560  -0.1972772  -0.7980843  -0.3035683  -0.3400898
  -0.7043734   0.3903439  -1.3870776   0.0113825   0.1662226   0.1343509
  -1.2994796   1.0796891   0.3575517  -0.0334054  -0.7416625   0.0733739
   0.0852509   0.2561817   0.1234894  -0.7511103   0.8840168  -0.1022898
   0.4109539  -0.0534684  -1.3079374   0.3039452  -0.0897220  -0.0994659
  -0.7189509   0.4133640  -0.1379318  -0.0515247  -0.5390009   0.0865424
  -0.4014482  -0.0072536  -0.0205458   0.4303215  -0.0092680  -0.0775990
  -0.7645881  -0.4391567  -0.7410615   0.3007480   0.0816584  -0.0432173
  -1.0256640  -0.5444930   0.7820129   0.6962343   0.3428989  -1.1408536
  -0.0492827  -0.2110263  -0.2141128   0.5881946  -1.2661068  -0.0173683
   2.0182393  -0.3545299   0.6009548  -0.0247040   0.2773233  -0.0761055
   0.0887062   0.8550899  -0.7078401  -1.0996897  -0.4535319   0.9701174
   0.0276102   0.0154032  -0.0286874  -0.9811187  -0.0600283  -0.9481526
  -0.0404178   0.2976994   1.1571192  -0.2772929   0.1456622   0.1719489
   1.9861869  -0.2851938   0.9780434  -0.0625033   0.7838733  -0.9382844
  -0.0301885   0.2021535  -0.1644960  -1.6823286  -0.1638529   0.1259509
  -1.0692280   0.3952188   0.4658714  -0.1181602   0.0051253  -0.1100885
  -0.2869447  -1.1645117  -0.8563850  -0.2404011   0.0438710   0.4637304
  -0.3702804  -0.1754534  -0.3382423  -0.2762391  -0.1100807  -0.4080106
   1.2808608   0.1664241   0.2180978  -0.0691981   0.2654556   0.0245227
  -0.9113805  -1.2912655  -0.0183112   0.4181391   0.8356719   0.0904773
  -0.5182448   0.1609302   0.0222744   1.1171611  -0.8460069   0.2214616
   0.7891497   0.0099990  -0.1739783   0.1372751  -0.1497583  -0.1496815
   0.3004711   0.5714995   0.0048401  -0.4577350   0.5095524  -1.0213342
  -0.1524915   0.4223316  -0.2620415   0.0001211  -0.0073103   0.8309511
  -0.9646918  -0.1853405  -1.0970469  -0.0822459   0.1164290   0.0563319
   0.3710875  -0.5922858  -1.3073635   0.3102766   1.4406229   0.7970955
   0.0612528  -0.1899670  -0.0764993  -0.0058368  -1.1012215  -0.3941856
   0.5857672  -0.2783380   0.4802791   0.1417402   0.0410086  -0.0092041
   1.0677828   0.3947068   0.4745112  -0.3134272   0.5251397  -0.2570137
  -0.0673135  -0.2372678   0.0947931  -0.7152776   0.8696621   1.1168705
   0.3784548   0.1476756  -0.0228934   0.0415944  -0.0719516  -0.1895465
  -0.0080479  -0.7343640  -1.8886400  -0.5682479   0.2058880  -0.5191827
   0.3434454   0.3330352  -0.1108972   1.2876431   0.7499257  -0.3310954
   0.7770286   0.7921979  -0.0953901   0.1524489  -0.1423767   0.3564992
   0.1701149   0.1682949  -0.4158432  -1.0188835   0.3929220  -1.6713598
  -0.0582752  -0.2218624  -0.2067712  -0.1887982  -1.2352912   0.0796041
   1.2822065   0.6066666   0.2152283   0.1821043   0.1062351  -0.2673026
  -0.3606719   1.6483166  -0.5965645  -0.3866577   0.5983998  -0.2001159
  -0.0844076   0.1099081  -0.0679985   0.5622156   0.8851382  -0.3237980
  -0.8966773   1.5244197   1.7240084  -0.0249142   0.3123374  -0.1000559
  -0.0407464  -0.2128901  -0.4902528  -0.3783836  -0.2807815   0.4873433
   0.1722831   0.0080818  -0.3276096   0.0370981   1.0528286   0.3812371
  -0.1274254   0.4985507  -0.5929327  -0.0505426   0.0625910  -0.1398807
  -0.9303608  -0.5027421  -0.1162468  -1.2990396   0.2206676  -0.0979823
   0.0291972  -0.0075702   0.2233090  -0.0287081   0.7060778  -1.3639222
  -0.1214534   0.5060672   0.4797519   0.2304877   0.1890217   0.0792126
  -0.7911922  -0.1324587  -0.2106905   0.2133675   2.0691589   0.5934574
   0.1013791  -0.2087186  -0.2176920   0.2895289  -0.6851671  -0.8238317
   1.7841592  -0.3579015   0.8877981  -0.0972593  -0.1654747   0.2978108
  -0.3097317  -0.3394331  -0.0490835  -0.0949819   0.5725517  -0.3186625
   0.0167099  -0.0069779   0.4589230  -1.0620828   0.4111678   1.3528639
   1.0645900  -0.2672646  -0.3652766   0.8007575   0.1325890  -0.1833606
   1.7007481   0.2791706  -2.0061204   0.8847793   0.3898775  -0.2371566
   0.1331726  -0.0596846  -0.0039231   0.0058224  -0.2458492  -0.5446605
  -0.2164512  -0.2777951   0.1060582   0.3014661  -0.2382316   0.1262406
  -0.0061538  -0.7393100   1.2203669  -1.1374327  -0.9018614   0.8652938
   0.0852498   0.1728389   0.1500556  -1.4188252  -0.7827365  -0.3161926
  -0.4972640   0.2769635  -0.1789940  -0.0950768   0.1270380  -0.1517376
   0.5786328  -1.2305157   1.0911953   1.5187424   0.0716992  -1.0741548
  -0.2904928  -0.3738618   0.0517682  -0.4682686  -1.9086718   0.1888480
  -0.9574352  -0.3069615  -0.6111602   0.3540175  -0.2416937   0.0421224
  -0.1303145  -0.6666689  -0.5670580  -0.7361624   0.0272022  -0.0744153
  -0.0374090  -0.2604411   0.4850147  -0.0593421  -0.2843521   0.0159137
   0.5502110  -0.7418919   0.0573953   0.1463813   0.0964924   0.0667389
  -1.5380287   0.2582158   0.6112078  -0.2386058  -0.9409252   0.5035405
   0.4323563  -0.0226791  -0.4779445  -1.8625651  -0.1693584   1.4463504
   0.7593079   0.5606172   0.5112259  -0.0846482  -0.1616364  -0.1488381
   0.4929521   0.7871039  -1.1257682  -1.2852664  -0.1427521  -0.9819923
   0.1627292   0.1013739   0.0902903   0.7669082   0.1622881   1.1557838
   0.7690701  -0.7164234  -0.3605721  -0.3747472   0.3217147   0.0780656
  -0.0878650  -0.2302551   1.6139430   0.1176454  -0.6480112   1.2015211
  -0.0569014   0.1126477  -0.1075566  -0.4892803  -0.4660814  -0.8767214
   0.5321656  -0.4125678   0.2794952  -0.2004893  -0.1484003   0.1023694
  -0.8032160   0.9722697   0.1899333  -0.7387383  -0.1269833   0.0463661
   0.0972301  -0.2772658   0.2179369   0.0777143  -0.1431564  -0.8787386
  -0.2691371  -0.6207827  -0.5839414   0.0814659   0.1061891   0.0575590
   0.8342343   0.2240795   0.3768442  -0.7962921  -0.4121834  -0.5292153
  -0.0094961   0.1730760   0.1943469  -1.4707498  -0.0550339   0.1763539
   0.7379360   1.1227181  -0.3700985  -0.2167120   0.1253150   0.1382393
   0.9729886   0.1928703  -0.0523098  -0.9226911   1.0590372   0.6989481
   0.1842011  -0.0929939  -0.0312434  -1.1316094  -0.3838574  -0.4413661
  -0.6232612  -0.2361193   0.9167264  -0.0189121  -0.2918410  -0.0825731
  -0.1837494  -0.5596853   0.1121421   0.1425476  -0.6333821  -0.1817720
  -0.0323889  -0.1837356  -0.0620257   0.8004482   0.0422325   0.5674446
   0.7974726   1.4484128   1.3053921   0.3459161   0.0328366  -0.0374217
   1.1350924   0.6122856   1.1085286  -0.4367420  -0.2410490  -0.4128379
  -0.4704819  -0.0508142   0.1477905   0.9714687  -1.0037924  -0.7570018
  -1.6409774   0.9499350  -1.4009397   0.0979251  -0.0044523  -0.0010356
  -0.1549432  -0.4900489   0.3916711   0.4726017   0.0440298  -0.3064269
   0.1045178   0.3163586   0.2434959  -0.7881008   0.5335961   0.0151761
  -0.2640078  -1.1655749   0.7973514  -0.0497482   0.2860421   0.1000438
   0.2570945  -1.0743640   1.2404036  -0.3631972   0.5919653   0.8241136
   0.2460621  -0.2592552  -0.2848296   0.2290652  -0.0385361  -1.2772139
  -1.3668905  -0.0604434   0.7332243   0.2134826   0.0064581   0.1680603
  -0.1402770  -0.5409274   1.4009282   0.5319308   0.6119086  -0.9176346
  -0.2079216  -0.0225506  -0.1823658  -1.0638861  -0.4322296   0.2399281
  -1.2859024  -0.1605735   0.0084977  -0.2263359   0.4163373   0.2311728
  -0.2709000  -0.5670391   0.1195997   0.4508989   0.8922655  -0.4189866
  -0.1696649   0.2574165   0.1987072   0.8361325  -0.5934468  -0.8694504
   0.1042498   0.1327774  -0.3519970   0.1117334  -0.2360336  -0.4129229
  -0.2386608  -0.0128438   0.3559642   0.2252172  -0.1293128  -0.2493574
  -0.3401578  -0.2928144  -0.4882941   0.1003516   0.1272510  -0.4949860
  -1.0781921   0.2607384   0.4410755  -0.0860728   0.1313859   0.1099228
   0.5277003   0.4365846  -0.8852720   0.5955363  -0.3456866   0.7895040
  -0.0779583  -0.0424471   0.2776539   0.6821545  -0.4526075   0.2015737
  -2.2515699   0.0805664   1.0978439   0.1645086   0.0574031   0.0767676
   0.4355798   0.3091898  -0.2944701   0.0505843  -0.7232266  -1.1386249
  -0.0583157  -0.1068543  -0.0952226  -0.0847824  -0.6272426   0.4745279
  -0.1925628  -0.8534215  -0.0721095  -0.2025231   0.0833570  -0.0625995
  -0.2183447   0.2455971   1.3136715  -0.5147781   0.4372222  -0.1356755
  -0.0525384   0.1918979  -0.0180962   0.6183296  -0.7943143  -0.9268479
   0.0417065  -0.0106441   1.0716889   0.1371666   0.1022816   0.2398714
   1.4656542   0.3768970   0.0419353  -0.8872843  -0.4273242  -0.4468563
  -0.1207388  -0.0750627  -0.2058496   1.1381841   0.2127473  -0.8697633
  -0.3244416  -0.4773684   1.7730387   0.0574941   0.2490915  -0.0198730
   0.3767000   1.1886999   0.4463143   0.0987937  -0.2123825  -0.5491050
  -0.1451619   0.1473845   0.0158137  -1.6808634  -0.5866652  -0.7452848
  -1.2381399   0.6137175   0.4468619  -0.2935205  -0.1300123  -0.0791257
  -2.1615844  -0.3884867  -0.7166857   0.5019929   0.1173998  -0.7451315
   0.1803761   0.0267052  -0.2510491  -0.2548607  -0.6567328   0.1598005
  -1.7280988  -0.3760804  -0.6436272  -0.1662737   0.2125363  -0.3029681
   0.1671285  -0.0598423   0.7759884  -0.6252481   0.0154162   0.6215091
  -0.0450556  -0.0125016  -0.4271315   0.0848494  -1.1925276   0.0386734
   0.0358265   0.1604306  -1.1780984  -0.3500072   0.1441247   0.2295520
   0.7457257  -0.8524915  -0.7487725  -1.3843167  -0.4203372  -0.2568762
   0.1437977   0.2094480   0.0193454  -0.1905142  -0.4041310  -0.0493801
   0.4987693   0.0947946  -1.8828326  -0.0046433  -0.2840551  -0.0739608
   2.0749587  -0.1887328   0.0755779  -1.2888120  -0.5017073  -0.3743441
   0.3058170  -0.2025787  -0.0799227  -0.3807163  -0.2535289  -0.7563830
   0.4585877  -0.5490375  -0.4355096  -0.0569191  -0.1474933   0.2775494
   0.0255919  -0.6494606  -0.5090650  -0.1768591  -0.7366117  -0.8767520
   0.2747873  -0.1816980   0.1205774   0.2552366  -0.4245736   0.0555090
  -0.3266190   0.6575252  -0.0598171  -0.5133965  -0.0290604   0.1295331
   0.5046105   0.8536763  -0.3611495   0.3036985   1.2800205  -1.8534387
   0.1936449  -0.1648537  -0.0211381  -0.2605368   1.5996670   0.4238275
   0.2646665   0.6117600   0.7075889  -0.0234633   0.2247505   0.0819415
  -0.4079832   0.1239230   0.5103725   1.3402707  -0.5030932  -0.2203419
   0.2622515   0.1555174   0.3458467  -1.2442401   0.1829263  -0.3310389
   0.9295681  -0.2662355   1.2394100   0.0932329  -0.0717446   0.1625311
  -0.1977433   0.0381165  -0.9561799  -0.8099258  -0.2144333   1.7119013
   0.1675927   0.2512460   0.2037073  -0.7055356  -1.1088428   0.6484530
  -0.0412141  -0.0373239  -0.9456294  -0.1703493  -0.0673825  -0.1310664
  -0.6235457  -1.3477760  -0.0746662   0.0613187  -0.3399931   0.1687394
  -0.1560918   0.5383296   0.2321110   0.1170117  -1.0830221  -0.7754802
   0.3013933  -0.5974312  -1.1752910  -0.2636880   0.3500202   0.2678406
  -0.3842022  -0.4765518   0.6646163  -0.4326498   0.1502004   0.0983534
  -0.2626786   0.1023955  -0.3792764   0.5642368   1.2519649  -0.4822374
   0.3598994  -0.2882427  -0.9721590   0.0022633   0.1119550   0.0568007
   0.0345728  -0.0009404   0.9531318  -0.1544553  -0.4635522  -0.8186342
  -0.1303403   0.1396297  -0.0073514  -0.9324113  -0.6377997  -1.0029085
  -0.1729977  -0.8911913   0.2526878  -0.0576532  -0.0992613  -0.0091808
   0.9423777  -0.0620750  -0.7584451   0.3960066   0.4677987   0.2463752
   0.1210072   0.0338778  -0.0328252   1.7386621  -0.4162177   0.9295387
   0.7500309   0.9504977  -1.1328022  -0.2158918   0.2230179  -0.1450667
  -1.7182243   0.2461429   0.8979223  -0.0285873  -0.7019870   0.1669220
  -0.0110692  -0.1578609   0.3536672   0.9751750  -0.2689136   1.7296430
   1.2662756  -0.7408763   0.1080268   0.0932590   0.1647103  -0.2423533
  -0.3888096  -0.1264861  -1.1079417   1.1598388   0.8372881  -0.9761339
   0.2370107  -0.0271811   0.0544775  -0.9683509  -0.1816374   0.0804728
   0.6654597  -0.7143530  -0.2128212  -0.0718008   0.0165768  -0.1796932
   0.1121634   0.8324550   0.3075074   0.8346634  -1.0371870   1.0467187
   0.1147806   0.1674589   0.0341198  -0.6109627  -0.4905453   1.0710086
   0.6528275  -1.9460155  -0.3994983   0.0959960  -0.1572377   0.4849249
   0.2050850  -1.1347688  -1.3422869   0.7451531  -1.2255294  -0.7624843
   0.3116634  -0.0827886   0.1064760  -0.0072041   0.1423522   0.2367255
   1.0301705  -0.0013582   0.5990125  -0.0517657  -0.2120378  -0.1309525
   0.1991414   0.5168997  -0.4118092  -0.3222521   0.1733245   0.3962222
  -0.1180278  -0.0615500  -0.1263997   0.3177829   0.5966856  -0.9367388
   0.9905715  -2.4380012  -0.9544359  -0.0323174   0.1083014   0.0140402
  -0.9017991  -0.4762021   0.5770545  -0.4533005  -0.0356435  -0.7860495
  -0.0549253   0.0922177   0.1838983   0.2659495   0.9065865   0.0330171
   0.2097520   0.6227468   1.1368763  -0.3606341   0.2206500   0.0232832
  -0.7336807  -0.2963592   0.4413312  -0.1337088  -0.0167410   0.9519897
  -0.0571382  -0.3603432   0.3831236  -0.3559052  -0.9156628  -1.2056064
  -0.0721950   0.1144379   0.4255742  -0.1459000   0.0116408   0.3180239
   1.6712404  -0.3328773   0.0849639  -0.6294355  -0.7692882  -0.2718445
  -0.0741281  -0.2400669  -0.0217658  -0.8051591   1.1902820  -0.0708013
   0.0590156  -1.8340093  -0.0978135   0.0655580   0.0101652   0.0933380
  -0.8088845  -0.7444322   0.4215427   0.7783611   0.4043133  -0.7629599
   0.1536877  -0.1954369   0.0432513  -0.2389394  -0.8093531   0.2484005
   0.3178746  -1.1074527  -0.9618823  -0.1711266   0.2354611  -0.0289658
  -0.4379284   0.0168772  -0.2570171   0.4623085   0.7251121   2.6184616
   0.0987618  -0.2795027   0.0988579   0.4928991   0.7271616  -0.7017578
  -0.1827432   0.6101691   1.5199873   0.4089610  -0.0897029   0.0714327
   0.6858661  -0.3298619   0.1118560   0.1167938   0.0289455  -0.1494114
  -0.0866594   0.0432097  -0.3020705  -0.6714892   0.2347014  -0.3687827
   0.5874483  -0.2993369  -1.0811439   0.0605897  -0.1117772   0.0067758
  -0.0761667   0.4049568  -0.7440856  -0.3393934  -0.0357427  -0.0951233
  -0.0482520  -0.1283834   0.1331552  -0.9331210   0.1333005  -1.6203927
   0.4608221  -0.5152524  -0.8344813  -0.1525264  -0.2061435  -0.1748287
  -0.3481503  -1.1507557  -1.3622165  -1.3117000   0.6560269   0.4018982
  -0.0357534  -0.1529564   0.1683413  -0.5764446   0.2653159  -0.3086605
  -0.2895473  -0.0553907  -0.2351119   0.1586568   0.1029348   0.0667086
  -0.8067708   1.6421559   0.1301384   0.9158355   1.2793568   1.0050488
  -0.0688821  -0.1093828  -0.1360415   0.7934324  -0.0105062   0.7183128
  -0.9478449   0.1610012   1.6304133  -0.0035570  -0.3443703   0.0394161
   0.4977964  -1.2306145  -0.8841265  -1.5854126   0.9958006  -1.4094421
   0.1412811   0.1125013  -0.2707086   0.1415472   0.5503389   0.6961035
  -0.6773738  -0.2503788  -0.6563833   0.1695377   0.0970354  -0.4911016
  -0.1126572   1.0894745   0.0827261   0.4848037  -1.2107441  -1.8375085
   0.2972712   0.0916892   0.1275870  -0.4343529   0.6618674   0.5973030
  -0.5167734   0.2856011   0.4796579   0.1807966  -0.2335559   0.1136811
   0.5728606   0.6634242  -0.3934522  -0.5919708  -0.7437345  -0.1470049
  -0.1916747   0.3374237   0.1598607  -0.1019704  -0.5374029   1.3735892
   0.5205124  -0.1657908   1.1503242   0.0539566   0.2550308   0.3605455
  -0.1489452   0.8847345   0.5685472  -0.4746361  -1.4026437   0.3660652
   0.1869263   0.0849135  -0.4206326  -0.7046647  -1.2305079   0.0780595
   0.2900449  -1.0103990  -1.0072783  -0.3354607   0.3609598   0.1635866
  -0.2303978  -0.0718076  -0.0954948  -1.6207605  -0.8388931   0.3425097
  -0.2590395  -0.0488839   0.1427148  -1.0593054  -0.5197899   0.7789866
  -1.4140412   1.5797530   0.7245350   0.1747237   0.2082935   0.0457278
   1.8815477   1.8606522   0.2894881   0.2180803  -0.6213317  -0.5006199
  -0.2504929   0.1068069   0.1116435  -1.9318784   0.0182453  -0.2637226
   0.3120977   0.4037521  -0.0940613  -0.3687724   0.0268545  -0.1529256
   0.0242819   0.4273677   0.0423453  -0.4297762  -0.2945828  -0.2514572
  -0.1952300   0.0792562   0.0560875  -2.6061947   0.2804334  -0.2154504
   0.7823654   0.6433190  -1.2609845   0.2333766   0.0445343   0.0860931
   0.4310279  -0.3521910  -0.7323041  -0.0963365  -0.0430667  -1.0614755
  -0.0067358   0.1609109  -0.0044474  -0.5550841  -0.1847550   0.8276371
   0.9014040  -1.2323071  -0.0011852  -0.1665045   0.3611259   0.1779168
  -0.3954982   0.9681826  -0.3260991  -1.1865395   0.7558225  -0.4343130
   0.2375592   0.0164091  -0.2336663  -0.4956651   1.1535787  -0.3407314
  -1.2277153  -0.1862059   0.1574249  -0.3489041   0.0320797  -0.1314931
  -0.6884374  -0.0378812  -0.6567018   0.5680391  -0.4955809   0.1420732
  -0.1712805  -0.1799985   0.0427302   0.1743711   0.4298668   0.7829257
   0.6969899  -0.6507501  -1.6636785  -0.4337188   0.1937594   0.1142411
  -0.0318524   0.5348192   1.5925423   0.1217782  -0.1218777  -0.8658543
  -0.0623911  -0.0145553  -0.1891953   0.3085271   0.5067728   0.9876934
   0.6126082   0.0579890   0.1458035   0.0982256   0.1663842  -0.1959823
   0.5277514  -0.3845514   0.2783969   0.1228174   0.9101624  -0.5804890
  -0.1781808  -0.0006986  -0.0033281  -0.5225730  -0.3364982   0.0231477
  -0.9657763   0.0781385  -1.0607376  -0.0011395   0.3284145  -0.2518987
   0.3737021   0.1607116  -0.6060721   0.7629071  -0.1142509   1.3852034
   0.0382802  -0.1225627   0.1113060   0.4191937  -0.0051633  -0.5637490
   0.8521759   0.1188687   1.1399335  -0.2898784   0.0558275  -0.2436666
   0.0040445  -1.2602489  -0.1825395   1.4685445   0.9749426  -0.0884783
   0.0237827  -0.2298779   0.0815876   0.1942075   0.7133916   0.1554530
  -1.5455079   0.1612080  -0.8136759   0.1246622  -0.4073498  -0.1163341
  -0.4653600   0.3860043  -0.5208275  -0.2707343   0.7475309  -0.9599040
  -0.0345866  -0.1990065  -0.0061397  -0.2264919  -0.4418869   1.4714348
  -0.2079459  -0.6784482  -0.9888212   0.2331782  -0.2229449   0.4334902
  -0.5450735   1.2821578  -0.8067284   0.0288731  -1.1042087   1.2170710
  -0.2330615  -0.3668493   0.0288734   0.3433804   0.0670090   0.3187972
   0.1151860   0.0441156   0.7060728  -0.2410219   0.2274516   0.0045994
   2.2131698   0.5114128   0.8066177  -0.7789953   0.3300824   0.3208625
   0.1130100   0.3073421  -0.2105119  -1.8510485   0.5093840  -2.1418353
  -0.4697865  -0.1715671   1.1564257   0.0242285  -0.0513301  -0.2835243
   0.0330191   0.1914041   1.4061409  -0.0034240  -0.8290268  -0.8984904
   0.2145528  -0.1290337  -0.0195868  -1.3114194   1.0549389  -0.6440194
  -0.6420300   0.2593450  -0.9084843   0.0748104  -0.2461757   0.2043070
   0.3398768  -0.5271675  -0.3883386  -0.4149274  -0.8642243   0.7679307
  -0.0033095  -0.2564706  -0.0668871   0.9251996  -0.2483882  -0.7119030
   0.1611791  -0.9329201   0.8441112  -0.1123707   0.2006636   0.0814684
  -0.5159790   0.1654224   0.6895410  -0.1927855  -0.6609078  -0.5773492
  -0.3186244   0.1175010  -0.0525316  -0.4592241  -0.1079651   0.7362942
  -0.0136104   0.4154828  -0.0050508  -0.0007886   0.0300356  -0.1073665
   0.8520394  -0.6111925  -0.5486715   0.2470204  -1.5912245   0.2404749
   0.0996954   0.0158035   0.1362133   0.2937996  -0.0919544   0.0352385
  -0.5799079  -0.3097834  -0.7057377   0.1274921  -0.1640386  -0.1268704
   0.0827819   1.0563633  -0.3872703   1.0273547  -1.3296277   0.3834533
   0.0397497   0.0019833   0.2055818   0.6657091   0.8877059  -0.5836142
  -0.9072186  -0.4686760   0.2818388   0.3715010   0.0735788  -0.0856344
  -0.9860404  -0.0309164  -1.1343294  -0.0243555  -0.2929075  -0.5020285
  -0.1767165  -0.1260336  -0.0574737   0.5698845   0.6671315  -0.4411959
   0.8667697  -1.5062374  -0.1665888   0.0905933   0.0258879  -0.0762737
  -0.0181959  -0.8331166  -1.4042691  -0.4695595   0.6272575   0.4563105
   0.1320321  -0.2171762  -0.0897857   0.5336786   0.4047259   0.1565039
   0.7396895   1.0604206  -0.4568761  -0.0593521   0.0290456   0.1463646
   0.2906814  -1.3283436   0.3089705  -0.1347255   0.4978047  -0.9668797
  -0.3788573  -0.0116047   0.1479385  -0.9151094  -1.2583354   0.4656463
  -1.0803330   0.6931282  -1.4705710   0.1345276  -0.0239349   0.1079543
   0.0096419  -1.2904230   0.8084055  -0.7569945  -0.2812898  -0.4923903
   0.0917456   0.2241023  -0.1913950  -0.1532355  -0.1999706  -0.6195597
  -1.0167357  -0.6908219   0.0560492  -0.0079727  -0.3081024  -0.0914635
  -0.1356447   0.1027792   0.1015679   0.1422847  -0.5359972  -0.2655899
  -0.0771101   0.1043080  -0.3886671   1.2100067  -0.5135139   0.3570385
   0.6206274   1.0637301  -0.0023629   0.0601966   0.0049818  -0.3521174
  -1.3836650   0.5938598   0.0960119  -0.0143565  -0.3584044  -1.8395938
   0.0363613  -0.1769489   0.0886440   0.2861954  -0.8702060   0.4795866
   0.2169580   0.4350022   0.0738165  -0.1977566  -0.0520180   0.2235688
   0.1572934   0.9686624   0.4162937   0.1861965  -0.8410474  -1.4789682
  -0.2262326  -0.0568907  -0.3782653  -1.4977444   0.5120216   0.7503011
  -2.3553883  -1.3791148  -0.2654838  -0.5314220   0.1548467  -0.1603459
   0.2010277   0.7011527  -1.4030415   0.5340075   0.8155824   0.9695152
   0.0612956  -0.1197975   0.2878177   1.7162472  -0.9433580   0.1614768
   0.9447051  -0.9057375  -0.1983792   0.1508113  -0.2756463  -0.0784947
  -0.3736243  -0.1188347   0.3945476  -0.0213458  -1.0857362  -0.8877847
   0.0274866   0.0507148   0.0624103  -0.8697026   0.7221554   0.7482386
   0.1372254  -0.7599708  -0.3843054   0.4229348   0.1810717  -0.1026016
   0.2898713   1.0176122   0.0462017  -0.6462396   0.3433359   1.0018962
   0.1827852   0.1953478  -0.0888179  -0.1266467   0.6023775   1.4103111
   0.6792118   0.1571104  -1.0734264   0.1918105  -0.1886908   0.2063651
   1.3128801   0.7767166  -0.0863566  -0.3531215   0.6209633  -0.7009005
  -0.0211369   0.0213644   0.0654070   0.1793341   0.3997340  -0.6979820
   1.0955626   0.6589328   0.8133164   0.0830807   0.2530551  -0.0160225
  -0.6828460  -0.8364586  -0.1262682  -0.4510163   0.9763329  -0.6687820
  -0.0948138  -0.2000190  -0.0057248   0.3802265   1.2999680   0.3692434
  -0.3952944  -0.1933428   1.0443007   0.1578997   0.1250144  -0.0948155
   0.1430231  -0.6732851  -1.2878633   0.6765180   0.3379062   0.4368067
   0.1982176  -0.1786158   0.0368676   0.3026756  -0.5664734  -0.1702570
  -0.2029345  -0.7642546  -0.1175815   0.1894539   0.0446450   0.0813276
   1.1715661  -0.3324194  -1.0528215   1.5568336  -0.2229274  -0.1769178
   0.0144084   0.2006063   0.2222148   1.4833965  -0.8789381   0.1171353
   0.9334019  -0.1498710   0.3024085  -0.0578408  -0.2236507   0.2497924
  -1.2674547   0.6733963  -0.7640614  -0.7293238  -0.6166955  -0.6432938
   0.2275137   0.1428094  -0.3592437   0.8274229   1.3843253  -0.2082886
  -0.1979481   0.4856616  -0.0723905  -0.2293112  -0.3901872  -0.0976911
  -1.4829421   0.2438986   0.0993514  -0.4725188   0.0287192   0.7384165
  -0.0972085   0.1419112  -0.3124144   1.8022136  -0.1810683   1.6083252
   0.4869462  -0.1706743   0.2295542  -0.1070346   0.1269194   0.1524300
  -0.1840164   0.1375558   0.1689670  -1.2458331  -0.8336992   0.3356047
  -0.1324830  -0.2201224   0.1744629   0.7469160   0.3903155   1.1126745
  -0.3980275   0.1469479   0.2600835  -0.1431182   0.2232277  -0.0176915
  -0.6540781   0.2051335  -0.1275680   0.5451509   1.0633567   0.7876373
   0.0950765  -0.1761188   0.4282085   0.6863374   0.7231367  -0.3279061
   0.1136641  -1.0681223   0.6992104  -0.0015231  -0.0402637  -0.1389320
  -0.3793884   1.5052763   0.4909031  -0.1983407   0.6646436   0.0015239
  -0.0697862  -0.0316811   0.1081602   1.5214775  -0.0052159  -0.2141032
   0.5706583   1.0282477  -0.4898127  -0.2191720  -0.1529999   0.1370937
   0.2425518  -0.4623033   0.2480612   0.0806823  -0.0075455   0.3441685
  -0.0323500   0.0931797  -0.1208100  -0.0878665  -1.0515573   0.0907581
   0.1370034   1.2434922   0.9086031   0.0867677  -0.2031312  -0.0254108
   1.7508506  -1.0912968  -0.5161933   0.1530524  -0.5999870   0.3577482
  -0.2478400   0.2794034  -0.0151476  -0.4099741  -0.2757922  -0.7448162
  -0.2919970  -0.1141851   0.9056526  -0.0647285  -0.2821844  -0.2044441
  -0.9513520   0.7237206   0.4011465   0.2066693  -0.0855579  -1.2410409
   0.0980319   0.2680880  -0.0901883  -0.0594708   0.0529416   0.3128974
   0.3135141   0.4347462  -1.7891630   0.4605214  -0.3312401   0.1841849
  -0.3033808   0.8397506  -0.5851563   1.1532040   0.5408715   0.2439710
   0.0872746  -0.2691486   0.1058710  -0.2426592   0.1784530  -0.4335832
   0.6270922  -0.2994629  -0.0546349   0.0932176   0.0735837   0.0010798
   0.1899858   0.0357880   0.1013719  -0.1892393  -0.5388861  -1.2719544
  -0.1719450   0.3409478   0.0114438   0.4338292  -0.9022263  -1.0174554
   0.0423554   0.5043275  -0.3541005   0.2539906   0.0337534  -0.0114774
  -0.1980526   0.2370264   0.2247438   0.7409653   0.3856320  -1.7419515
  -0.0891202  -0.2517677   0.0574577  -0.2533853   0.1873668  -0.0900658
  -0.7551212  -0.0912233   0.8648372  -0.1719317  -0.1871904  -0.0244396
  -0.2811554   0.7633434   1.0259629  -0.8788577   0.5756772  -0.2268800
  -0.1727607   0.2063135   0.1749878   0.4315132  -0.5678530  -0.4907094
   0.0317501   1.5176694  -0.4113052  -0.2384727   0.1896100   0.2693817
  -0.9413512   0.9296454   0.0387067  -0.1273260   0.8953839   0.2142415
   0.0278423   0.0716952   0.0576461  -0.0944184  -0.0415843  -0.1995066
   0.0805477  -0.2208211   0.3611332  -0.2955307  -0.0130516   0.0305817
   0.8676094   0.6681520  -0.4544683  -0.7404987  -0.5467044   0.5921564
   0.3426704  -0.1035797   0.2054293  -0.4540762  -0.3392438   0.8477082
   0.6628443   0.4633311   0.6652750   0.0078352   0.0797897   0.1056760
   0.2994826   0.8813358   0.3087140  -1.2902735  -1.0223978  -1.3238016
   0.2458203  -0.0664993   0.0254491   0.8186089  -0.6825205   0.6505100
   1.2012283  -0.7136790   0.2708123  -0.3397563   0.0031675   0.1396576
  -1.0065088   0.3179856  -0.6162422   1.7809085   0.6487611  -0.7807471
   0.2490771  -0.1347488  -0.0374549  -0.7671827   0.8210906   1.3632059
   0.8875037  -0.1446941   0.5413686   0.1034198   0.1140973   0.0242170
   0.5001387   0.0989859   0.4058429  -0.6356430   0.7343163  -0.9604610
  -0.1063769  -0.0159905   0.1908029   0.1275574  -0.1390579   0.0084085
   0.4241917  -0.3828390  -0.7650776  -0.1835006   0.4203077   0.4474142
  -0.6658417  -1.6782192   0.8172400   0.3619026   0.5127055   0.3543409
   0.0447863  -0.3818258  -0.1391005  -0.7074511   1.6317197  -0.7790993
   0.0577489   0.0803072  -0.6316680   0.2901028  -0.3254623  -0.0541981
  -0.0290952   0.1401876  -0.0675089  -0.2708802   0.1828622  -1.6813027
  -0.0956232  -0.0346518  -0.1334248   1.7625386  -1.0474111  -0.2822989
  -1.5633947   0.6863951  -1.2261979  -0.0370848   0.0687616  -0.3521541
   0.0910125  -0.6218529  -0.3545962  -0.3674805   1.3134730  -0.9443816
  -0.3184952  -0.5432096   0.1874840  -1.4999913  -1.1456624   1.2108332
   0.6919208  -0.0316788  -0.4566926   0.2018292  -0.1887314  -0.2279767
   0.9071761   1.8230440  -1.2716283  -0.7172592   0.8168664   0.5962994
  -0.1835756  -0.0323353   0.1353339   0.0826693   0.1147314   0.4568251
  -0.1996812   0.9928399   0.2947227   0.0562311  -0.3238448  -0.4110676
  -0.3887192  -0.0697402  -0.6632897   0.8977112   1.1024468  -1.1187257
  -0.0546341   0.1905465   0.2738360  -0.7423051   0.5247451   0.1633085
  -0.9780022   0.0951328   0.5427789   0.1790792   0.0187978   0.3209264
  -0.3396206   0.2479047   0.8352195   0.1471387   0.5240105  -1.3472702
   0.1062960   0.2373016   0.1825188   1.2133621  -0.4737711   1.2135639
  -0.3187317  -1.1374169   0.1562735  -0.5277530   0.0918220  -0.1701126
  -1.6585989  -0.7259713  -0.6005913  -1.3756732  -0.4778165  -0.9486355
   0.1995070  -0.2371329   0.0444186  -0.5042920   0.0352667   0.7227976
   0.1081623   0.4280289   0.3390943   0.0224593  -0.2475638  -0.0700356
   0.3811060  -0.9153700   0.9276593  -0.5353094   1.2265209   0.0260604
  -0.1916798  -0.1303635  -0.0119456  -0.1782561  -1.3299451  -0.6831011
   0.1063068   0.6677808  -0.1256867   0.1869074  -0.2882674   0.0872324
   0.5910073  -0.1733292   0.0738518   0.4018644  -0.0944678   1.0913565
  -0.0291642   0.1721709   0.1096806  -1.3460541  -0.5163414   0.4921724
  -0.8043419   0.7361187   0.0070271   0.2829443  -0.0903100  -0.1271856
  -0.1862481   0.0450107   0.1066621   0.8481561   0.0424982   1.9383482
   0.1616579   0.0984877   0.2426690   0.0504234   0.5454725  -1.8742505
   0.3201977   0.9547675  -0.2623752   0.1253907  -0.1608421  -0.1829727
   0.7729119   1.6057780  -0.6594009  -0.3310885   0.3148711  -1.1630099
  -0.0724854  -0.4121200   0.1650848  -0.6073455  -0.1901694   1.5661841
  -0.1210836  -1.4161774  -0.3595183   0.0687256  -0.1579905   0.1833618
   0.2980838   0.3450929  -0.0727009   0.3052959   1.0039196  -0.4214172
   0.1699042   0.0848531  -0.1825794  -1.5234881   0.7968307  -0.2303861
  -0.3159660  -0.0285731  -0.5260397  -0.0382402  -0.3038893  -0.0888017
  -0.6590560  -0.6771030   0.5691916  -0.6466713  -0.7209573  -0.9248036
   0.1902128  -0.0624113  -0.0238600  -0.5344848   0.1430119   0.6607618
  -0.8154496  -0.5630015  -0.3918878   0.3484135   0.2943158  -0.0789499
   0.2347177  -0.1320824  -0.6067106   0.4323756  -1.3349931   1.7828354
   0.4224700   0.1205921   0.2159147  -0.4523243  -0.3745642  -0.0942385
   1.0713961   0.0008422   0.9547164   0.0180489  -0.0092073  -0.0064236
  -0.0045094  -0.1620617   1.4442171   1.1003414   0.2172640   0.7903760
   0.3178144  -0.3031647  -0.0373447   0.6998844  -1.1301714  -0.0177377
   0.6329025   0.3655564  -0.9271534  -0.0962652   0.3829212   0.2246481
  -1.3145743  -0.4109392   0.2640949  -0.5417132  -1.1692091  -0.6741576
   0.0023099  -0.3552530  -0.0440818   1.7927742  -0.0691790  -0.2926208
  -0.8538103  -0.7855681  -0.2018963  -0.0121315  -0.0005186   0.2203605
  -0.4102581  -0.2021575  -0.3610910  -0.8957406  -1.4772744   0.3308455
   0.1122585   0.0004532  -0.0449962  -0.8627756   1.4530945   1.3027516
  -0.0903089   0.0729587  -0.1348636  -0.0570758   0.1725915   0.0906712
   1.0363602   1.8684561  -0.8319125   0.4324733   0.5210434   0.1860530
  -0.2759010  -0.0449673   0.0244150   0.3486540   0.6708086   0.2320641
  -0.0481478  -0.8358683  -1.0423890   0.0501942   0.0134170  -0.0925124
  -1.2551391  -1.7888639   0.3695630   1.1018699   1.4158628   0.5492143
  -0.4432245  -0.1901181   0.1295646  -0.5500828  -1.9112399   0.4754813
  -0.3810727  -0.0173060   2.4431077   0.2004833   0.1225499  -0.1524956
  -0.1264144   1.1720341  -1.0033328   0.3717014   0.3063390  -0.5223956
   0.0040100   0.2936511  -0.0518993  -0.2708708   0.4853432   1.1375969
  -0.6068941  -0.3702623   1.3797095  -0.2136540  -0.2206926   0.0470280
  -0.8618408   1.4355606  -0.1503126   0.7501203  -0.0109962   0.5025552
   0.4923441   0.6944737  -0.1718968  -0.4408107  -0.0785217  -1.1948212
  -0.6348137   0.6297870   0.3708809  -0.3454021   0.0792388   0.3303371
  -0.0441650  -0.4196817  -0.4265339  -0.4630221  -1.2222057  -0.0298042
  -0.3601148   0.2769136  -0.0066156  -0.3653954   1.1758581   0.8396514
  -0.1972709   0.9438404   0.4681273   0.1510189   0.2978103  -0.0684505
   0.4521006  -0.0058645   0.6723374   0.3300811   0.5314457   0.4967762
   0.0139964   0.2135734   0.0522280   0.8888506   0.3085344   0.5689422
   0.6932298   0.5562313   0.5437621   0.2436641   0.2661439  -0.2468916
  -0.9958058   0.9738511   0.2337689   1.8058630   0.6574969   0.2880084
  -0.0916687  -0.0074399   0.0091580   0.5324271   1.4964608   1.0619560
   0.2892342  -0.0382688   0.6374131  -0.0435314   0.1413373   0.0527159
  -0.1828881   0.8417414  -0.7796928  -0.0002303   0.1762788  -1.1371680
  -0.0918656  -0.1013223   0.2389504   0.2130705   0.6377622  -0.9216562
   0.2360938  -0.8251044  -0.3611118  -0.0548395  -0.4722327  -0.1243704
   0.4807569  -0.4933720  -0.6384523  -0.1138284   0.7033316  -0.6620063
  -0.1003667   0.1660309   0.1539834   0.3448912  -0.9108163  -0.3031109
   0.4078492   0.9797399  -0.5124947   0.1041549  -0.1303519  -0.0202195
   0.2940833   0.8983822   0.1664409   0.9817371  -0.3010717  -0.0759696
  -0.0328334  -0.1833691  -0.1064471  -1.1552238  -0.8197568   0.0604266
   0.8756936   0.6280657  -0.1505786  -0.0347937   0.4691073   0.0572371
   1.0479639  -0.2859370  -0.0506429   0.8099355  -0.4327081  -0.1497240
  -0.2557100  -0.0335668  -0.0717978   0.4217152  -0.2034953   0.9225435
   0.0905767   0.2077757  -0.0848997  -0.0573313   0.0885958   0.1167675
   0.4463960   0.6940080   0.0049232   0.5683109   0.2919909   0.0166713
  -0.0903600  -0.0294133  -0.0558285  -0.2279587   1.5370621   0.3990462
   0.8820528  -0.5636491  -1.1472765  -0.2975316   0.0992571  -0.1512819
  -0.8322669  -1.7312273   0.9161246  -0.8075625   0.0115350  -1.0749734
  -0.1269102   0.0223065  -0.0453358   0.2189586  -0.9671001   1.0605537
   0.5820223  -0.1552962   0.8771794   0.0230009  -0.0220490   0.0453745
  -1.1124816   0.1564125  -0.0646162   0.6243027  -0.0299080  -0.5114309
   0.2173060   0.1739536  -0.1711090   0.2705618  -0.1811586  -0.0022629
   0.5549912  -0.1223186   0.2039724   0.2574361  -0.0609416  -0.2547482
   1.1622643  -0.8015686  -0.5940607  -0.5730963   0.8239544   0.8489943
   0.2532563  -0.0532166  -0.3199044  -0.3794671   0.6113754  -0.0700573
  -0.8015589  -0.9100819   1.1249734  -0.0217496   0.1863029   0.0242017
   0.1977510   0.2834988   0.3212615   0.7054240  -0.8949398  -0.9285917
   0.3082133  -0.2682321   0.3136477   0.0987477  -0.6945982   0.3570625
   0.1795803  -0.3131167  -0.1509691  -0.3167506  -0.2573285   0.0429596
  -0.8264676   0.6838142   0.5115655  -0.8006081   1.9973107  -0.1433753
   0.1300809   0.0076417   0.1992602  -0.7328546  -0.9288971  -0.2671755
  -0.2718077  -0.6760723   1.7419520  -0.2837633   0.0302532   0.1752024
   0.4989589   0.2033550  -0.1093285  -0.5905386  -0.9090722   0.7739001
  -0.2384230  -0.3421339   0.0311411   1.0370862  -1.8996123  -0.8064484
  -0.6065595   0.8349138  -0.7572122   0.0761448  -0.0933874   0.4501757
  -0.4112442  -0.6461500  -1.6707556  -1.4509461  -1.0580817  -0.1150238
  -0.2029024  -0.2125492  -0.2231735  -1.0450511  -1.8343206   1.0468900
   0.3253588   0.9387472   1.5603003  -0.0077929  -0.1434509   0.0574034
   0.0677377   0.3695185  -1.5950670  -0.6588594   0.9173770  -1.5723735
  -0.6303474   0.1824309   0.0489341   0.4466709  -0.4539817   1.2935115
   1.1118974   0.8431151  -0.0750508   0.1923991   0.0756656   0.0968704
   1.1480410   0.6555906   0.0919246  -1.1740321   0.5882577  -0.8760239
  -0.1690340  -0.0271201  -0.0279902   0.4176331   0.5422751  -0.1488389
  -0.3690989  -0.8930458   0.5269902  -0.1432917  -0.2617588  -0.3283561
  -0.3216920  -0.2974296  -0.7980870   0.1513373   0.0786199  -0.6588487
  -0.1862128  -0.1573045   0.1890619  -1.5309201   1.2641677   0.2419446
   0.0150312  -0.3538413   0.8071342   0.2399612   0.1309696  -0.2701136
   0.3980196  -0.8922754   0.8177121   0.0695778  -0.8253374  -0.2987383
   0.2177011  -0.3051098   0.3629537  -0.2029968  -0.4628388   0.3343042
  -1.4689121  -0.9892284  -0.9475089   0.3340084   0.1219291  -0.0596462
   1.2308024  -0.4437202   1.7483785  -0.2420905   0.2286046   0.1328959
  -0.0377292  -0.2685922   0.1004142  -0.6621398  -0.7472241  -1.2552968
   1.1492891  -0.0839620   0.2502293  -0.1457723  -0.1334937   0.2336352
  -0.4800979   1.2732552  -0.2251090  -0.3809595   2.0763816  -0.2209882
   0.2310688   0.3128048   0.2097916   0.0773280   0.5155235   1.0952795
  -0.2599939   1.0767431  -0.0207517   0.2129889   0.0315405   0.0310892
   0.7880627  -0.4275094   1.1229282  -0.7817248   0.7362338  -0.2677467
   0.0973942   0.1105061   0.0258464  -0.2357545   0.4071056   0.7056290
   0.2398086   0.4937125  -1.0965547  -0.1907170  -0.2808477   0.0234248
   1.0554405  -0.5425936  -1.0831531  -0.0504401   0.4686870   1.2392246
   0.0702239   0.1207515  -0.2812139  -0.0482200  -0.6418205   0.9347012
  -0.3772023   0.8018480   0.5416875   0.1510183  -0.0612773  -0.1547889
   0.4160140   1.5711195   0.2892798  -0.4295560  -0.2419819   0.0577591
   0.0535997  -0.1364182   0.0004021  -0.0152389   0.8185954  -0.1002971
   0.9320986  -0.9642386  -0.1617832   0.2003382   0.1358905   0.0297845
  -0.7994136   1.1441380   0.3161952   0.5130656   0.0306665   0.3558340
   0.2207498   0.3309034  -0.0267884  -0.6005173  -1.2184110  -1.3517045
  -0.6128589   1.0983454  -1.1724319  -0.0869077   0.3119348  -0.1602954
  -0.3755156  -0.4615994  -0.7902998  -0.4216713  -1.0773645   0.0260819
   0.1964698  -0.0960105   0.1428305   0.6421092  -0.5050476  -0.1961668
   0.2683599  -0.5022118  -1.1176056   0.3412031   0.3673581  -0.1466908
  -0.7390399  -0.9354179  -0.4166842   0.0399205  -0.7630375  -0.5229597
   0.2131027  -0.1970716  -0.0628947  -0.6295706   0.3191705  -0.7272333
  -0.5891033   1.3083354  -0.8129438   0.1232131  -0.3274756   0.1000831
  -0.1363508   0.2328158   0.7687394   0.3090573  -1.3213291   1.7305161
   0.0001908  -0.2243316  -0.0060612   1.3070262   1.4743103   0.3916512
  -0.5402965   0.6986298  -0.3402155  -0.4113684  -0.0137148   0.2781429
   0.3991789   0.2900798  -1.0126588   1.3967654  -0.0230370   0.3712581
  -0.1573404  -0.0120370  -0.2148859  -0.2783204  -0.1179216   0.3756643
  -1.8165190  -1.1882399   0.6103443  -0.1321666  -0.3027086   0.1726914
   0.6275103  -1.0212906   1.1332152  -0.4736836   0.1466332  -0.9246313
   0.0250507  -0.0443671   0.2406210  -0.0593146   1.7413152  -0.6504191
  -0.0099570  -0.8863940   1.0835224   0.1108120   0.1201674   0.1871141
  -0.1246198  -0.7516670  -0.5365793   0.7594540   0.8687636   0.0416048
  -0.0851681   0.0707156  -0.0835496   0.0108281  -0.8810341   0.6553507
  -0.7909661  -1.1658686   0.5744444   0.1488117  -0.1618281  -0.1050334
   0.9615079  -1.3200664   1.5156702   0.2287034   0.0657473   0.4293415
  -0.0737881  -0.2032485  -0.3003160  -0.6148607   0.6901013  -0.7416566
  -0.5737074  -1.2775230   0.7694947   0.0746066  -0.0990116   0.1422190
  -0.2808978  -0.6395976   0.9738092  -1.0765924  -1.0476376   0.7135952
   0.1229756  -0.1404795   0.1734065  -0.5007933  -0.5254360  -0.1319442
   1.0437674   0.6478855  -0.2789399  -0.1114014   0.0290258   0.1072186
  -1.1850580   0.2327593   0.6053586   0.5651230   0.0343139  -1.3485807
   0.2147739   0.3007591  -0.0220678   0.2377981  -0.0525237  -0.0362441
   0.4289175  -0.2262387   0.5843324  -0.3082719   0.0862124   0.0994301
   1.9474929   0.6283063   0.1637593  -0.0562537  -0.2941668   0.1022473
   0.2543197   0.3843937  -0.1489907  -0.3118302   0.0972193   0.7099874
  -0.1398609  -0.0187753  -1.2482319  -0.0239985   0.2155564   0.1262019
   0.1931202  -0.6355525   0.4801565  -0.5382450   0.0323798   0.9758187
  -0.2060761   0.0892501   0.2759848   0.1668631   0.6265006  -1.4671844
  -0.3757771   1.0023504  -0.6602777   0.4463572  -0.0532739  -0.2410816
  -0.0314563  -0.3953168  -0.0468177   0.2493664  -0.7446981   0.2549705
  -0.0989529  -0.0725847  -0.3282407   0.9518663   0.2772382  -0.3038307
  -0.3489261   0.1780730  -1.4162431  -0.5454207   0.0558306  -0.0035426
   0.6919087   1.2755066   0.5232720  -0.3618952   1.2824920  -0.0828120
  -0.1036209   0.4316677  -0.0721055  -0.3071129   0.0736567  -0.8488261
   0.2108494  -1.5919725  -0.5692154  -0.2859154   0.0861777  -0.0030696
  -0.1083248   0.1647509  -0.1677623  -1.1950869   1.6876517  -0.2283482
   0.0674086   0.0420914  -0.3027476  -0.2966021  -0.1467931   0.1707774
   0.2268591  -1.0129409  -0.2662225  -0.0495243  -0.0345859   0.1714924
   0.2941777  -1.1525508  -0.9943752   0.5024817   0.8516540   0.2975638
   0.3571023  -0.1212856   0.1245973  -1.1542740  -1.0898377   0.3616094
  -0.1721132  -0.7002145   0.6648287  -0.1625484   0.0593057  -0.1975078
   0.6954771   0.9155421  -0.3594862  -0.1873638   0.3651002  -0.8609278
   0.0670906   0.4282435  -0.1975123  -1.1163261  -0.3390379   1.3004532
   0.2588988   1.6167576  -1.3230238  -0.4697612  -0.0531782  -0.1951566
   0.3305561  -0.3639529  -1.1857981  -0.4921277   0.8000240   0.0527614
  -0.5746132  -0.0814922  -0.3404246   1.7461863  -0.2878924  -1.6346628
   1.2655584  -0.2805654  -0.3962173  -0.2913124  -0.3147144   0.1472759
   1.0009240   0.3395964   0.3922228   0.2391607  -0.2977722  -1.7485197
  -0.1679331   0.0092319  -0.1553496  -0.7015704  -0.1728192  -0.0384947
  -0.4300979   0.0143532   0.3111869   0.1800042   0.0692205   0.2282664
  -0.6136317  -0.6398352  -0.4165788  -0.7639144   0.9771596   0.9701318
   0.0419694   0.2046969  -0.3798849  -1.5052360   1.5281123   0.3917327
  -1.4291158  -0.8070757   0.7289313   0.1570752   0.1313267   0.1969356
  -0.6872495   0.4557876  -0.3006513   0.7384834   0.4730334  -0.4013581
  -0.3664539  -0.0319697   0.1748997  -0.7705757   0.4205635  -0.1708782
   0.5248351   0.8324912   1.0528637   0.0673902  -0.3446390  -0.5262951
   0.7319793   1.1117898   0.8859930   0.6182463   0.0390913  -0.6232844
   0.0862755  -0.1805165  -0.1185923  -0.8433612  -0.6653817  -0.2737677
   0.4450704  -0.2063047  -0.3995568   0.1689088  -0.0734518   0.0417801
  -1.2126881   0.4439459  -0.4851930   0.1125294   0.0708485   0.0449534
   0.2070954  -0.1828715  -0.2566642   0.8195323   0.6933190  -0.5740074
   0.0182742  -0.0766142   0.0181570   0.0127976  -0.3037507   0.4671964
   0.4067307   1.2046427   0.1397137  -1.6019309  -0.0158906  -0.0314248
  -0.1177768   0.2015793  -0.1878384   0.9555905   1.6046324   1.0877714
  -0.5676617  -0.5396059  -0.3647969  -0.1640231  -0.3218091  -0.0960793
   0.1713576  -0.6389115   1.4645783   0.7202550  -0.5993512   0.7804403
  -0.2058332  -0.1523763   0.0489237   0.9016637   0.4497456   0.5327452
   0.2781012   1.6193081   1.1940622   0.2747117   0.0767525   0.4403292
   0.4866883  -0.4992259  -0.7011270  -1.2695874   0.1600920  -0.3618743
   0.1734618  -0.1088216   0.1426875  -0.2538723   0.1678149   0.3252429
   0.0067131  -0.5596663   0.2904373  -0.2886406   0.0939325  -0.1709437
   0.1191042  -0.3198159   0.4049561   0.6183050  -0.9010963  -0.8779265
  -0.1331566   0.1876162  -0.0231335  -0.2149084  -1.3113261  -0.2745704
   0.4729193   0.5959010  -0.4312176   0.0680623  -0.0005024   0.1088902
  -0.0274009  -0.4540473  -0.4902587   0.5990105   1.2303800   0.7928889
   0.0131063  -0.2153882  -0.0884560  -0.8736658   0.2006120  -0.1621405
  -0.1120272   0.1882268  -0.6484337   0.2630174  -0.1650455  -0.0493609
  -0.9661489   0.6151204   0.7556392  -0.0405649   0.1408601   0.6589046
  -0.2965206  -0.0752014   0.3863011  -0.0030330  -0.6099778  -0.8598159
   0.2796720   0.0030202  -1.5131384  -0.0938705   0.4926968   0.1270312
  -1.0097978   2.0004493   0.1578332  -0.8691761   0.4268340  -1.6805281
  -0.2018560  -0.0493019  -0.0144571  -0.0167839   0.6799605   0.7913739
   0.8546833   0.9198661   0.3689277  -0.0436908   0.4431372   0.1501310
   1.6046669   0.1477939  -0.6291265  -0.1933045   0.1611859  -1.1702429
   0.0572225   0.2961933  -0.1468348   0.0550092  -1.2171574   0.6969828
   0.7215220   0.3377009  -0.1218105   0.1841436  -0.1309968  -0.0542304
  -0.2490254   0.3852872   1.3439629  -0.3761146   0.1968108  -0.0944753
  -0.0329703   0.1853039   0.0025773  -0.3916456   1.5337140   0.3341570
   0.0542365   0.7705091  -0.1320029   0.0243616  -0.0352381   0.0594819
  -0.7631519   0.4408256  -0.4143228   0.9856340  -1.7594269  -0.5242232
   0.0373346   0.2538952  -0.0591004  -1.0224745  -1.2833500   1.0184381
  -0.1473662  -0.4379444  -0.2194925  -0.0127286   0.0026629  -0.1665854
   0.1930418   1.3188855  -0.1803638   1.1523150   0.5630670   0.3940378
   0.1316819  -0.1786731   0.1200751  -1.5381196  -0.2663756  -1.2858060
  -1.2809940  -0.6226214  -0.6399113   0.0400269   0.0861925  -0.0195654
  -1.0733394   0.2248638  -0.5592134   0.2837149   0.8861616  -2.1349418
   0.0924426   0.1122647   0.2612344  -0.1064429   0.5114613   0.4587216
  -0.8963551  -0.8861337   0.6932162  -0.0975163  -0.1104576  -0.0169683
  -0.6918832   0.3429794   1.2253635  -0.1004927   0.3621540  -0.7020098
  -0.3434658  -0.2398847  -0.1478825  -0.7613914  -0.1613999   0.0466471
   0.2603126   0.0591652  -0.3675539   0.0911534   0.1507821  -0.1411084
   1.0720290  -0.2706166  -1.9642654  -1.3471000  -0.6637982  -0.6401432
  -0.2990958   0.1727300   0.1259063  -0.9664379  -1.4436695   1.5271723
   0.9896742  -0.8812733   0.0102733   0.1369372   0.5118781  -0.0969879
   0.7031684  -0.3580687  -1.0618651   0.3946552  -0.5308261  -0.0038834
  -0.2083383  -0.1813851  -0.2034201   0.4372866  -0.9009949  -0.3274296
  -1.1628823  -0.0609845   0.0706037   0.3488546   0.0610980   0.3823416
  -0.9934081   0.8332823  -0.6332763  -0.3921601   1.2690117  -0.0864348
  -0.0166765   0.1859355   0.1518190   1.4084710  -0.4785101   0.8819343
  -0.6585291   1.0882833  -0.6841741  -0.1021967   0.0666721   0.0062065
   0.7269904   0.3856830  -0.4883820  -0.0415080   0.2073188  -0.0453958
  -0.1255641   0.2158464   0.0500429   0.8799465   0.0752313  -0.7734132
  -1.1155257  -2.4610682  -0.6770658   0.2504249   0.1615505  -0.0852565
  -0.0447589   1.2329031  -1.7674288  -0.0698481   1.1694316  -0.8909830
  -0.0446715   0.0864020   0.1855916   0.4084137  -0.5562592  -0.0622287
  -0.4402092  -1.0929428  -0.6143104  -0.0304942  -0.3045978  -0.2842799
   0.0942175  -0.7468320   1.7937427  -0.4691248  -0.6740198  -0.3845853
  -0.1868072   0.0552264  -0.0966236  -0.6412076   1.0623640  -0.3117048
   0.4001158   0.6109332   0.0666648   0.1703080  -0.2723062  -0.1273077
  -0.8544002   0.2526901   0.5408286   0.5967175  -0.3822333   0.5742168
   0.0403297  -0.1209154  -0.1550533  -0.4204910  -0.4410267  -0.2748454
   1.4997058   1.1104521  -0.0173140   0.1433374   0.0082363  -0.1997685
   0.8447799  -0.4682672  -0.2337380  -0.2009107  -0.1125742  -0.0963659
   0.3568920   0.2393293   0.1966044  -0.1123286   0.0384712   0.8631132
  -0.7573837  -0.0192016   0.3306813  -0.1673796  -0.0634401   0.1986693
   0.9074070   0.8452203  -0.4709431   0.8783703   0.8381580   1.0894172
   0.1980950  -0.2561480   0.0800511  -0.5401878   0.6532539  -1.2821457
  -0.1187591   0.5328527   0.1440479   0.0373090   0.1409079   0.1034800
   0.0814444   0.0284356  -0.7121512  -0.0772222   0.3088670   0.8009895
  -0.0527101  -0.2009820   0.1424758  -0.5115823   0.2233218  -1.6140244
   0.6288120  -0.4445293  -0.1599166  -0.2515399   0.3774790   0.0900790
  -0.5561462   0.0667798   0.9675811  -0.0564015  -0.1771862  -0.1531300
   0.2690304  -0.0656209   0.0694776  -0.2681502  -0.4362428  -0.1643532
  -1.4215687  -0.4056015   0.3637358  -0.1826615   0.1995197   0.2991185
  -0.6435871  -0.3228108   0.6011978  -0.3336523   0.2957040  -0.5185620
  -0.0128467   0.0560110  -0.1617744  -1.1063017  -0.3191181  -0.9532285
  -0.3011096  -0.2106125  -1.3466182   0.3387274  -0.0031842   0.0100612
   0.7489840   0.0951966  -0.4753067  -0.6850494  -0.1503955  -0.0459677
   0.2794346  -0.1788684  -0.2159834  -0.1161215   0.5409203  -1.1273110
  -0.4561635  -0.7329823  -0.5998989   0.1109813   0.1177710  -0.0111873
   0.6453356   0.0259099  -0.4670801   1.2375692   1.8465124  -0.2929019
   0.3047392   0.1675969   0.0681351  -0.0434278   0.3480838   0.0090752
   1.3387567   0.0769678   0.1104603   0.0088136   0.1943423  -0.1760100
  -0.2961257  -0.4857770  -0.9458928  -0.1309501  -0.4930684   0.4064412
   0.1482002  -0.0498982   0.6492965  -0.2317128  -0.1931463  -1.5893445
  -0.0094559  -0.1964081  -0.1957789  -0.2351789   0.3297282   0.0317961
   0.4654926  -1.1256448   0.3929056   0.6496286  -1.3185848   0.2813326
   0.0040186   0.3507670  -0.1299062  -1.2474207   0.2009274  -2.6955885
   0.2650682   0.2330739  -0.7727048  -0.4562570  -0.0692846   0.0701864
  -0.2896202   0.1777836   0.0726100   0.5519010   0.3720075  -0.6965673
  -0.1792883   0.1964165   0.0766062  -0.2970529  -0.6616776  -0.2554622
  -0.3515770  -0.6308744  -1.8294983   0.1414218  -0.1117818   0.1377133
   0.1988859  -0.2824565   0.3485818  -0.2486778   0.4258613   0.2304818
  -0.4563467   0.1768183   0.0171695   1.2345425   0.1862142  -0.5565461
  -0.1298291  -0.6256167   0.4200138   0.1464964  -0.2578884  -0.0081137
  -1.6936070  -0.1558861   0.7310877  -0.3860916  -1.4418195   0.4067913
  -0.1057436  -0.1598796  -0.1711583  -0.0454815   0.2933328   2.3255674
   0.6790465   0.8985493  -1.0135925   0.2131886   0.2968871  -0.2847991
  -1.0238614   0.9704189   0.8001549   0.7776384   0.4844146   0.0686441
  -0.1375782   0.3621449   0.0304570  -0.6800938  -0.4750922   0.1865759
   0.5912962  -0.6031192  -0.1800798   0.0948098  -0.4565796  -0.1922350
   1.5819833   0.5515977  -0.1218668   1.6182197   1.6047487  -1.6431550
  -0.3535960  -0.4111199   0.2101663   0.3704702  -0.3218465  -0.8296419
   1.0458585   1.8816195   0.0225713  -0.1889224  -0.0157915   0.4279663
   2.0372836   0.5151755   1.1655867  -0.5601128   0.3555323   0.3539643
   0.0164024   0.0769247  -0.2022294  -2.6278260   0.1091512  -0.9855790
  -0.1245298  -0.4271554  -0.3992363  -0.0206578   0.0094340  -0.1991416
   0.2760431  -1.2509345  -0.6214454  -0.0138497  -0.3327079   1.4014098
  -0.1191345   0.3573387  -0.1574712  -1.1187764  -0.4500038   1.0165606
  -1.0900699  -0.9691681   1.0564613  -0.0437216  -0.0358408   0.0072579
   0.8229711  -0.1941287  -0.4731408  -0.6840718   0.1852005  -0.3696083
   0.2095873   0.1086111  -0.0205453  -0.1189783   0.3928248   0.0018333
  -0.3223407  -1.3049595  -0.0413355  -0.2025167   0.5767795  -0.0920512
  -0.5854538   0.4998683  -0.1394785  -0.7241835  -0.0745617   0.2077001
   0.0264088   0.0586752   0.1073002  -0.7761634   0.2538190   0.7547431
   0.0598614  -0.0645446   0.6458369  -0.2426481   0.0831256   0.3686512
  -0.7775200   0.3982641   0.4038430  -0.7730498  -0.7307720   1.1707937
  -0.0473085   0.3246597   0.0711469   0.5189918  -0.3215672   0.3650390
   0.0811104   0.3185450   0.4443325  -0.4659985  -0.0300516  -0.1053820
   0.3941107   0.5038957  -1.4887144  -0.1569677  -0.6001459  -0.6661093
  -0.0927869   0.2509854  -0.0028058  -1.3276617  -0.3036960   0.0134281
   1.2130565  -1.0619855   0.5980541   0.0712955   0.0357068  -0.1123634
   1.0542246   0.8875464   0.6301658  -0.6591227   0.2540766  -1.4581554
   0.0397283   0.2523660   0.1386504   0.7457871   0.8693209  -1.8617680
  -0.2130950  -0.1229549  -1.3771170  -0.5132606  -0.4621823   0.3637389
  -0.7208935  -1.0539618  -1.1413953   0.0653726   0.2058145   0.3011054
  -0.0735377   0.0330101  -0.0168413   1.2605832   0.1197302   0.4416864
  -1.3492684  -0.0210971  -0.5981889   0.1112247   0.1505880  -0.0478780
   1.3313431   0.1385505   0.8901781   0.4520020   0.0163291  -1.6664013
   0.1067152   0.1140965   0.2066660   0.7045909   0.6838999   0.5693445
  -1.1972879  -0.0328308   0.5469578   0.1706548   0.0429189  -0.0168485
  -1.4909005   0.2704359  -1.3102854   0.4476699  -0.9181520   1.2478500
  -0.2483971   0.0651925   0.0582914   0.3565086   0.7441014   0.9965062
   0.2399144   1.0673424   1.3142528   0.0992701   0.0010270  -0.0215068
  -0.0737511  -0.1816468  -0.0154394  -1.0312457  -0.0367103  -1.2394099
  -0.2359717  -0.1091449   0.1238997   1.0414307  -0.4394382  -0.1593716
   0.3858405  -0.6873746   0.9423475   0.5058953   0.2096920   0.0611996
  -1.1688681  -1.6054814   0.8721242   0.6279385   0.0350482   1.2651588
  -0.0923018   0.0592212  -0.4131945   0.1690886   0.4492010   0.2249649
   0.7377485  -1.3558671   0.3190060  -0.0803975   0.0323075  -0.2176496
  -0.1045330   0.4752788  -0.1928813   0.7473183   1.3451248   0.3973507
  -0.3037871   0.0950349  -0.1343113   0.8687430  -1.1125718   0.5932840
  -0.5505385  -0.7557558  -0.1408116  -0.0724252   0.3415705  -0.0553266
   0.6022907   1.2085630   1.0480128   0.2794918  -0.1693174   0.1880818
   0.0480462  -0.4156704   0.2778808  -0.8480485  -0.2848070   0.3825625
  -0.0465662   0.9795729   0.4777464   0.1048320  -0.2210728   0.2954444
   0.7033440   0.3824403  -0.5455039  -1.3811089   0.1138130  -0.5412695
  -0.0003218  -0.4295952  -0.1728306  -1.0133308  -1.5019851  -0.4287111
   0.9367866   1.4595057  -0.4270150  -0.1042218  -0.1331307   0.0817746
   0.5326677  -0.7887847  -1.8941893  -0.5426880  -0.1705409   0.4784438
  -0.3223650   0.1752169  -0.3034652  -0.0512991   0.3826688  -1.4120257
   1.1458086   0.2012282  -1.3082866   0.1302356  -0.1681040  -0.2129211
   0.6389278   0.0355525  -0.7420092   0.1003070  -0.4505934  -0.2483298
  -0.0412093   0.1131581   0.1239708  -0.3676400   0.7835414   0.5928015
   0.2866804   0.8311151  -0.2323645  -0.0589954  -0.1158291   0.3172076
  -0.0042900   0.6523597  -0.3758351   0.2431618  -0.4054782   0.8593939
  -0.0803269   0.2236133   0.2969325   0.9014679  -0.9100899   0.2978800
  -1.4264104  -1.0152956  -0.8073923   0.0682831  -0.0664032   0.0442409
   0.3254311   0.5462581   0.2036788  -0.9539963  -0.0252727  -1.0184202
  -0.0472197  -0.3893654   0.0243005   1.3976793   0.1086693  -0.6090677
   0.5490353  -0.0779340   0.4280278  -0.0618466  -0.1161736  -0.3445911
   1.1281542  -0.0900730   0.2689616   1.0387816  -0.2681125   1.0167521
  -0.0343557  -0.0848123  -0.3391115   1.5091980   1.0931499   0.4257655
   0.7603103   0.0483931   0.8486203  -0.3397618  -0.1998737  -0.0872694
   1.1298456  -0.1536922   1.4541429  -0.2917927   0.4580722   0.1135610
   0.1980041  -0.1832432   0.2551925   0.4754676  -1.2654369   0.2866791
   0.3399128  -0.0377086  -0.4285112   0.3332757  -0.2537488  -0.1694451
  -0.8750166  -0.7774104  -2.1711264  -1.0942614   1.2475497  -2.0302902
  -0.0245648  -0.2183506   0.1632873   0.4379296  -1.3505734   0.4129402
  -0.9217922   0.1606330  -0.0723107   0.0504626  -0.2115414   0.0820520
  -0.2442453   0.3714259   0.9609364  -0.2919100   0.2489758  -0.3634477
  -0.0498836  -0.2578274  -0.1592636  -0.2732582   0.3584487  -1.1549995
   0.2836401   0.7048611  -0.0103730  -0.1797097   0.1543689   0.1005407
  -0.4990574   0.6549306   0.1370691  -2.2478893   0.3518112  -0.7738376
   0.2345734   0.3506066  -0.1221064   1.1548059   0.5538754   0.1430145
  -0.7440228  -0.8186251   0.6830061   0.2667666   0.1867171   0.0874296
   0.6138153   1.8075212   0.4820830  -0.0171686  -0.4799427  -0.3072398
  -0.1214500   0.0707965   0.2672919  -0.7713889  -0.7870364  -0.4232898
  -0.7116065  -0.5442891  -0.6631809  -0.1595081  -0.1222956  -0.0050531
   0.5003165  -0.5284935   0.4066400  -0.5174492   0.0121267  -0.0027596
  -0.2262128   0.2020574  -0.1768779   0.0850354  -0.4336350  -1.2745207
  -0.6433655  -1.2280055  -0.6965904  -0.0735608  -0.1777412  -0.1650533
  -1.4878155  -0.3454361  -0.5335009   0.3759615  -0.3237891  -1.2171178
  -0.0173894  -0.0668116  -0.0668304  -0.0264872  -0.7807634   0.5488953
   0.6884592  -0.6347946   1.1372079  -0.1167112  -0.0271534   0.0672058
  -0.1758665   1.1661108   0.1132433   0.3063655  -0.1347755  -0.5338456
   0.1822496  -0.0401423   0.0252566   0.2357623   0.6831885  -1.3732067
   0.8829220  -1.4221995   0.0443467   0.0321289   0.1694539   0.0936626
  -0.2463159   1.0804053  -0.1772585   0.4451870   0.1070549  -0.6980235
  -0.3453266   0.0156191   0.1376258   0.0238654   1.1001362  -0.0878601
  -0.9487704  -1.3774076   2.1131996  -0.0146851  -0.0982529   0.0720296
   0.4410058   0.2576975  -0.6299431  -1.0162741  -0.1664764   0.3655571
   0.1167579   0.1684032  -0.2028321  -1.6769929  -0.7375671   0.2088760
   0.0618055  -0.3468513   0.6972227  -0.1860260   0.0854073  -0.1283001
   0.4215379   0.3907073  -1.2867318   0.5799881  -0.9015382   1.2223705
  -0.0544914   0.1135411  -0.0655406   0.1506516   0.1580822   0.1651998
  -1.0616263  -0.1099251   0.8481258   0.4205800  -0.0011596   0.2585672
  -0.6335118   0.2126272   0.2925526  -1.1262847  -1.2494889  -0.4822180
   0.1671912   0.1447113   0.0304289  -0.3073143   0.9240405  -0.2882672
  -1.1264528  -1.3119706   0.0382582  -0.0741677   0.1008997  -0.3220735
  -0.3314960   0.2736091  -1.1014924   1.1184810   0.3984340  -0.2737496
   0.2239666  -0.2436896  -0.2489684  -1.3487721   1.3889908   0.2467165
  -0.0379609   0.3918773   0.5366921  -0.0785476   0.1415434   0.0489200
   0.3448501  -1.7045400   0.9158888  -0.1429492  -0.8916207   0.5336755
   0.0806180  -0.2540673  -0.3714182   0.5354359  -0.4331260  -1.1813903
  -1.2265545   0.1531689  -0.8562719  -0.0024323  -0.2004325   0.1983626
   1.1241309  -0.5320489   1.1187842   0.6542404  -0.1858405   0.1198503
  -0.2049554  -0.1469510  -0.1265135  -0.1202963  -0.8116641   0.9608589
  -1.5723588  -0.0406031   2.0056918  -0.3193347   0.0852840  -0.2758464
   0.0460299   0.6726042  -0.5800137  -0.7440328  -1.0982892  -0.9288269
  -0.1986599   0.1881910  -0.0451391   0.4176285   0.3302846   0.3379637
  -0.5755332  -2.0670615  -1.1964247   0.4079182  -0.1088866   0.0936709
   0.0224932  -1.4148318  -1.4688648   0.1390658  -0.8024840   0.2166122
   0.1799107   0.1423257   0.0357799   0.3993657   0.5729615   0.2159592
   0.8483444  -0.5446911   0.7120058   0.2719165   0.0424885   0.0527566
  -0.4722230   1.9614283   2.4276790   0.9464086  -0.7433193   1.6111095
   0.2848342   0.1731687   0.1240296  -0.3972690  -0.4576243   0.4092437
  -0.9452445  -0.4039002  -0.7607050   0.0224430  -0.1485512  -0.0922232
  -0.2815276   0.2294731   1.0040334   0.1061445  -0.6745645   1.5169033
   0.1614401  -0.1786081  -0.1030335   0.8226279  -0.9594666   1.3267136
   0.3569945  -0.1395643  -0.3633276  -0.0243454   0.0021484  -0.0939192
   0.2245176  -0.6036702  -0.2656795   2.5132893   0.3673285   0.9762720
  -0.1588113  -0.3056620   0.0340191   0.3886203   0.0569369  -1.2441448
   0.3291890   0.1622189  -0.5884786   0.0378543   0.1277230   0.0702510
   0.9054878  -0.1998277   1.0259452  -0.2229845  -1.2557196   0.5071797
  -0.1071835   0.0470411  -0.1508616   0.3970405  -1.2000638   0.2899238
   0.4395344  -0.1408320  -0.2713920   0.0114866   0.2071658  -0.0566813
   0.2126054  -0.2806226  -0.2658275  -1.5629969  -1.5081727  -1.4389275
  -0.2246892  -0.1473912   0.4398405  -2.0820874   1.4845674   0.0599281
  -0.2611441  -0.1805313  -0.3987627   0.0262623   0.0489831   0.2054644
   0.1510091   0.6024084   0.3077285   0.6123854  -0.0706389   0.7770748
  -0.0749576  -0.4159783   0.0416468  -0.1420730   0.4473161  -0.2846221
   0.5893103   0.8294887   0.7556805   0.1903911  -0.0621456  -0.0980942
  -0.6587608   0.0686507   1.2653144  -0.0338221   0.3556249  -0.1782635
  -0.1390192   0.1679130   0.0940202  -0.8610146   0.5036772   1.2283240
   0.5599921  -0.2981877  -0.7386807  -0.1192032  -0.0034722   0.3181461
  -1.3168413   0.7123908   0.5432135   0.1577441  -1.8055347  -0.1032469
  -0.0400597   0.0931756   0.0207389  -0.1835219  -0.4106822  -0.2464544
   0.3037852  -0.7856419   0.7041255  -0.4033192   0.0181811   0.4721596
  -0.0169905   0.8712654   0.0991843   0.9170666   0.7067157  -1.7592305
   0.2480907   0.1005540   0.0534728   1.3315271   1.2568585  -0.2153069
  -0.7424660   1.0312935  -0.7109778  -0.2608567   0.1047803  -0.2927798
  -0.6294056   0.7977329  -0.6172565   0.5646840  -0.3622383   0.3424444
  -0.3328777   0.4850750   0.3583326   0.6997907  -0.8184560   0.0805300
  -0.3648409   1.2729556  -1.7944636   0.0793304  -0.1504629  -0.1453333
  -0.7797578   0.2978829   0.0628964  -0.8394758   0.8796448  -0.3186738
  -0.1839729  -0.0953290  -0.0432843  -0.3278673  -0.9807892   1.0375955
  -1.0664982   0.1690106  -0.7095850   0.0701744  -0.1195082   0.1729320
  -1.3556188  -0.4117479   1.0145128  -0.0956054  -0.4869618  -0.3684393
  -0.1599792  -0.0830569  -0.1551499   0.6456542  -0.8455666  -0.4881965
  -0.5696112  -0.6254235   0.5101276   0.1571832   0.2741390  -0.1459854
   0.0380038  -0.0337051   1.0153337   0.5166538   0.6675864  -0.5679170
   0.1807541   0.2121726   0.1131016   0.0822904   0.1643822   0.3882145
  -0.7488480   0.8584298  -1.5409897   0.1569675  -0.2524100  -0.2080560
   1.2460466  -0.1360712  -2.1554555   0.6321780  -1.2909971  -0.3721147
  -0.2534072   0.0564547   0.4941127  -1.2684670  -0.8422707  -0.6953457
  -0.1377095   1.7034148   0.4393408   0.3436245   0.3333613  -0.0088975
  -0.6440340  -1.0551377   0.1912594   0.3516956  -0.6351750   1.2985262
   0.1101497   0.2123652  -0.4080474  -0.9536337  -0.1830763  -0.8423194
  -0.0967684   1.4794638   0.6404711   0.1928574  -0.0789614   0.0252831
  -0.2873288  -0.0433686   0.2586551  -0.9533767  -0.4443366  -0.5369039
   0.3096605   0.2558916   0.2958514  -0.0887288  -0.1847979   0.2763878
  -0.9422519  -0.3967704  -1.2432103  -0.1999779   0.2923818  -0.0277414
   1.1830369  -0.2347708  -0.0638178  -0.2170452   0.3589795   0.6333288
  -0.0965950  -0.0666103   0.0014621  -1.2020933   0.5973986  -0.3248589
   1.3549552   0.2170382  -1.2110679   0.0935925  -0.1364366  -0.1091477
   0.8362751   1.7759828   0.2911293   0.5740486  -0.4493566   0.3981934
  -0.3473782  -0.1565880  -0.0354884  -0.0521940  -0.7596805  -0.1211201
   0.5050201   1.1602236  -0.1375823   0.0818572   0.0168640   0.0006548
  -0.9191870  -0.1304587   0.8300460  -1.1719036  -0.0752203  -0.1011817
   0.0443641  -0.0247826   0.0587925  -1.1309468   0.3124912  -0.9232135
  -0.5463302   0.9608794   0.5118277   0.0728218  -0.2481612   0.0435844
   0.2122175  -1.0699350  -1.7633136  -0.4622067   0.0306260  -0.0446798
   0.1188075   0.1014569   0.0782691   0.3749164   1.2265572  -0.4990614
   0.6233540   0.5095629   0.9918442   0.0753363   0.2887701  -0.2275186
   1.0091712   1.0863146   0.1888847   0.4748873  -0.5552393   0.6713975
  -0.1741872  -0.1389192  -0.0847664  -1.6031695   0.0971901  -0.6645603
   0.6670487   0.2872627   0.8352871   0.0347872   0.1405239   0.0014566
   0.7341732  -0.6518654   0.8031305   0.1693076   1.2912824   0.0697040
   0.3687240   0.0780144   0.1469451  -0.0756342   0.7811915  -0.3336830
   0.5547851   1.4564692  -0.4949853  -0.1755194  -0.1853240   0.1221018
   0.0364930  -0.7179094  -0.5024638  -1.1972179  -0.7010882  -0.4534163
  -0.3587926   0.1354132  -0.3449188  -0.6143009  -0.0096627   0.4642215
  -0.3427701  -0.3524111   0.3164011   0.0091179  -0.3520813  -0.2596830
   0.5146651  -2.2884397   0.2475583   1.5090901  -0.9903454  -0.8271781
  -0.1257890   0.3550021  -0.0756102   0.2337643   0.4732603   0.7787333
  -1.3615113   0.3815222   0.5588825  -0.0483291  -0.1302338   0.0199764
   0.9255894   0.3575864  -0.1893954  -1.7008499   0.0538640  -0.2287580
   0.0205143  -0.0067631  -0.0134831  -1.2853718  -0.0531926   0.1911330
  -0.6669185   0.1165236  -0.7816878  -0.0837258   0.2747956   0.4074461
  -0.4435692  -0.2106199   1.5384272   0.3972173   0.7801426   0.0404441
  -0.0143152   0.0723401   0.0285438   0.1830912  -0.4062253   0.4042804
   0.4781804  -0.8782505   0.3309717  -0.2969570   0.3715344  -0.1292326
  -0.6594320  -2.2971397   0.1563853  -0.5998364  -0.7605399  -0.8676848
  -0.2090957   0.3423094  -0.2498045  -0.5841367   0.3575344  -0.8592910
  -1.2832496  -1.2918139  -1.1300137   0.1761135   0.4743431   0.0651304
   0.9719200   0.0511127   0.0564735  -0.0711381   0.7060204  -0.3914904
  -0.0156562   0.3687553   0.1992746   0.7645581   0.8202179  -1.2199780
   0.7418617  -0.1310009  -0.0007537  -0.2813377   0.0826749   0.1319213
   0.1820600   1.4911422  -0.4246599   0.1099671  -1.0831187   1.2228135
  -0.4795036  -0.2498443  -0.0854077  -0.5111494  -1.4228777   0.9302246
   0.5771253  -1.3980783  -1.0980174   0.1252029  -0.2363681  -0.4075998
   2.1091898  -0.9590551  -0.1578314   0.2849065  -0.0940863  -0.6992632
  -0.2817416  -0.3138830  -0.0644775  -0.0627149   1.3052319  -0.5365413
  -1.2834935  -1.1495985   1.1744738  -0.1727308   0.2662256  -0.2652989
  -1.3740396  -0.8910288   0.2022189   0.6837090   0.5129395  -0.1348457
  -0.1943779   0.0258010   0.3484716   1.2744741   0.1373121  -0.7578035
  -0.2420076   0.0641582  -0.1271315  -0.1622786   0.0072211  -0.1383214
   0.4302799   0.4111186   0.3576014  -0.3943268   0.4855525  -0.0371373
   0.0944437   0.0526728   0.1347147   0.7950354   0.2132549   0.1835732
   0.4546700  -0.1891345  -0.3143221   0.0622670   0.1476277  -0.1669772
  -0.7265652  -0.7427921   0.7802602  -0.6075634   0.5214709   0.1866060
   0.0411066  -0.0889153   0.1186205   0.1056974   0.2545060   0.9806001
  -1.1429245   0.0154869   0.5773533  -0.1196483   0.2276387   0.0289290
  -0.8868109  -1.2923820   0.3407747  -0.2992378  -0.3981494  -0.0673778
   0.0590724  -0.3121234  -0.2316304  -0.1888641   0.1900543   0.2606160
  -1.3813205  -0.0723285   0.3441031  -0.4953501   0.2099785   0.1494665
  -0.5044928   0.9140333  -0.5998200   0.1784405  -1.5820368  -0.6671798
   0.0411767  -0.1722890   0.1556431  -1.2287225   0.0744280   0.5891654
  -1.1897909  -0.0722916  -0.8640426  -0.3060626  -0.1624452  -0.1517342
   0.3757114  -1.3509645  -0.5092148   0.6667845   0.1611888  -0.4001035
   0.2570557   0.0023265   0.2629310  -1.3463009   0.2212315  -0.0668693
   0.3207048  -0.5216457  -1.0080184   0.0846992   0.2241262  -0.1177551
   0.0055061  -1.7395463  -0.8915901  -0.1470056  -0.2504720   0.5334451
  -0.2252821  -0.0200314  -0.4098289   0.8752029  -0.0783665   0.7096120
  -1.5792791  -0.2647328  -0.0392430  -0.1688008   0.0771219   0.0995752
  -0.3742761  -0.8081053   0.1053453   1.2123114   0.4746206   0.3254348
   0.1018268   0.0950753  -0.0366995  -0.2342869  -0.5996669   0.0969787
  -0.2088515   1.3693973   0.4107274  -0.1286261  -0.0674175   0.1769466
  -0.5588582  -0.0335636  -0.0919321   0.1868894  -0.3627718   1.4777062
   0.1908698   0.1330839   0.2574953  -0.0077010  -0.0121253   0.4343183
   1.2767410  -1.4173139  -0.9130742  -0.0656510   0.0940714  -0.0137960
   0.2816565   0.6882642  -0.9872932  -0.7837716  -0.2852946   0.0747512
  -0.0672972  -0.2723751   0.1301823   0.7722740   0.3272113  -0.2356394
   0.8489958  -0.2469084   0.4315399  -0.1303994   0.2044105   0.0582236
  -0.9432287   0.2384947  -0.1967588   0.8438529   1.5993025   1.6142636
  -0.0240458   0.2834442  -0.1975413  -0.7390116   1.1936923  -0.3529497
  -1.6540590  -0.2205257  -1.6233194  -0.0857286  -0.0801458   0.0201125
   0.0489619  -0.9165646   0.1010171   0.1519273   1.3471812  -0.1951870
   0.1747371  -0.1789589  -0.0678721   0.8174246   0.9144553  -0.0571392
  -0.7945934   0.4791510  -0.1541024  -0.2985988   0.1139970   0.0302720
   1.3473579  -0.3563090   0.4718476  -0.3567639   0.0703973  -0.0521657
  -0.0716790   0.1009095  -0.1179294  -0.7178214   0.9028795   0.1097552
   1.2879526  -0.5347632  -0.5225913  -0.1616835  -0.0236455  -0.0242739
   0.1411706   2.3447804   0.0739789  -0.1562417   0.2600094  -1.1236651
   0.3373354  -0.1191809  -0.1334298   0.7981575   0.7542227  -0.8913744
   0.2779906  -0.6502259   0.7634815  -0.1298423  -0.1728453  -0.1794901
  -0.3064634  -0.1228252  -0.2557193  -0.8961083   1.9816277   0.1406852
   0.0405289   0.3929258  -0.1638034  -1.9758569  -0.1080783  -1.3718967
  -0.1443422   0.1175963   1.3048264  -0.1320147  -0.0880592  -0.0180737
  -1.4447565  -0.2057967  -0.2426859   1.0465321   0.5131648  -0.1890263
  -0.0692852   0.2143338  -0.1389419   1.1091538   0.5900048   0.7325689
   0.8218479  -1.6455606  -0.3008511  -0.0888722   0.0090144  -0.0127921
  -0.4148382  -0.6087854   0.9387712  -0.4486172  -0.2534049   0.6945437
   0.1202125  -0.2847862  -0.0370272   0.3599414   0.4328010  -0.5312429
  -1.3845778  -0.8647679   0.6358679   0.5372616   0.3541996   0.1447489
   0.5660742  -0.3500781  -0.0343912  -0.7246093  -1.0029704   0.1538688
   0.0080717  -0.2181302  -0.1788442   0.2166746   0.1584574   0.0901113
  -0.6161486  -0.0097823  -1.2813101   0.4131704   0.2008121   0.0343257
  -2.0036173   0.5246494  -1.2923111  -0.7042220  -1.1118194   0.6439458
  -0.0099402   0.0730183  -0.3931790  -0.2035448   0.1998686  -0.4515878
   0.2138404  -0.2211333  -0.1579145  -0.0064587   0.0654231  -0.3338514
  -0.6740342   0.4646900   0.1094986   0.6027490  -0.6879052  -0.2898361
   0.1402377  -0.1557259  -0.0078754   0.1698503   0.4163217   0.9475245
   0.4998707   0.7363366  -0.1899889   0.1443881   0.1431383   0.1465682
  -0.0263750   0.4804210   0.5295950   0.0935443   0.2339422  -0.1949586
  -0.0023451   0.0048508   0.2203013   0.8717594   0.5169612   0.6352285
  -0.5304350  -0.9716262   0.1203158   0.0017000   0.0180380  -0.2763284
  -1.0282340  -0.1161970   0.9930130  -0.2190248   1.0070637   0.0065988
  -0.2391838  -0.4257737   0.3197753  -0.2551687  -0.2585128  -0.2532601
  -1.1139545  -0.7164782   1.0908647   0.0093677  -0.5143356   0.0782793
   1.4084008  -0.7846809   1.7108773   0.0325570   0.3724542  -1.2347149
   0.4027958  -0.0253462   0.2505792   0.9765551  -0.8227978   0.8884879
  -0.0506769  -0.5988415  -0.8185017   0.3600590   0.4249383  -0.0514517
  -1.4607342  -0.9330855   1.0846027   0.1176453  -1.0866297   1.1934239
  -0.3023993  -0.0534668   0.1103725   0.1712879  -0.7223799  -0.6642210
   0.2235074   1.5892445  -0.6942420  -0.0914864  -0.4541611  -0.1427642
  -1.2581333  -1.3235428   0.9400684   0.3407924   0.0369289  -0.5358999
  -0.1768340   0.1531749  -0.0513122  -0.3479062  -0.3463998   1.1101225
   0.5092264  -0.6682621   0.9420265  -0.1275249   0.1705781  -0.1189803
  -0.9431593   0.3258516  -0.8914827   0.8232335   0.9577631   1.3195901
   0.3432100  -0.0774745  -0.0600103  -0.3246420  -0.4698289   0.8698356
  -0.0776696   1.1185306  -0.1874167  -0.2239311  -0.2478796   0.3344409
   0.3149732   0.7186524   0.0211568  -0.3280903   1.2745344  -1.4289793
  -0.2861164  -0.3521985  -0.0851654   0.2275491  -0.1991864   0.2474526
   0.5804446   0.1805174   0.0401607   0.1533034  -0.1748512   0.0552897
  -0.0505272   0.6076070   1.1409232  -0.0909953  -0.9875137   0.1544705
  -0.2464587   0.1424878   0.1659625  -1.3470503  -0.1625195  -0.1719425
  -0.8395025  -0.5506653   1.3982367   0.2058157   0.0214982   0.1044775
   0.2886608   0.1547237   0.1358387   0.3983829  -0.5007588  -0.0343093
   0.0079689  -0.2301182   0.0050572  -0.5259546  -0.3605138  -0.7527359
   0.1405807   0.4490598  -0.6200369  -0.1138772   0.0391963  -0.1653426
   0.8020857   0.8731752   0.6565885   1.1120837   1.0903424  -0.2333585
  -0.0664114   0.2435522   0.0289470   0.3657964  -0.2536577  -1.0682103
  -0.2075857  -0.1244750   0.0035245  -0.1885866  -0.1394830  -0.2516105
  -0.1453796  -0.8420614  -0.6192792  -1.1465528  -0.7811447  -1.6626928
  -0.3410336  -0.2392387   0.1840488   0.4020881  -0.0627607   1.5658666
   0.8374762   0.8822731  -1.3091267   0.0180610  -0.2360540   0.1268272
  -0.6339828   0.4962804  -0.0793371  -0.4055613   0.0464073  -0.6835551
   0.1163120   0.1237303   0.0273705  -0.4464714  -0.4637003   0.7937721
  -0.1460673   0.6620878   0.6100739  -0.2155390   0.0382680  -0.3023254
   0.4464035  -1.2238728  -0.3985863  -0.0364822  -0.0646310   0.2986689
  -0.0183611  -0.1388915   0.4835928   0.7124408  -0.4400077  -0.0690305
  -0.3505470  -0.3642159   0.6609035   0.3888381  -0.0136733  -0.1058374
  -0.0882380  -0.6167089   0.0883559  -0.9964038   0.5571778   0.6992309
  -0.4113424   0.1181232   0.0723358   0.9278972  -0.4669031  -0.5780120
  -0.4708295   0.3145915   0.5290574  -0.3576837  -0.1537130   0.1202577
  -0.2476969   0.4111771   1.8223051   0.6588631  -0.9696496  -0.3803416
   0.2046485   0.3484382   0.0569770  -1.1957346  -1.0446381   0.0618453
  -1.3576636  -0.7030740   0.9081052  -0.1701049   0.2801546  -0.1064021
   0.6431783   0.6757843   0.7641227  -0.1672763  -1.0719130   0.1848287
   0.1655514   0.1294712   0.1555919   0.7482052  -0.1519422  -0.9994127
  -0.2015465   0.7348105  -0.5406241  -0.3053192  -0.2222846   0.1223875
  -0.4091020   0.5792415   0.5119130   2.2490842  -0.2528054   0.2774349
   0.0064396  -0.0548099  -0.0043316  -0.3440024   1.6231626   0.2812547
  -1.1315325   0.2003437   1.5847092   0.0300825  -0.1640158  -0.0918342
  -0.1005730   1.2368749   0.1839090  -0.6065796   0.0394434  -0.7693054
  -0.1494598  -0.1234576   0.0420172  -0.6077021  -0.6142195  -0.6656900
   0.2355014  -0.0357152   0.7015090   0.1671471   0.0317918   0.0540811
  -0.9525842   0.1907975   0.4435315  -0.2142576  -0.6796716   1.0114850
  -0.3154083  -0.2838509   0.2377817  -0.2089452   0.6732034   0.7778395
  -0.1875010   1.4796097  -0.4817390  -0.0564660  -0.0832008   0.3661530
  -0.7811150   0.7424833   1.4435704  -0.5264603   0.4833706  -0.4042854
  -0.2448097   0.1566334  -0.1157785   0.5487152  -0.9644202  -0.7995888
   0.0761420  -0.6250527  -1.6351590   0.2938779  -0.1646229   0.0179385
  -1.7638717  -1.9172771   0.4116862   0.5346455   0.5061392   0.4292497
  -0.0148860   0.1016803   0.3731081  -1.2994199  -0.4590008  -0.2653882
   1.0185987   0.4906709   0.1908061   0.0132438  -0.2823114   0.0719354
   0.0472750   0.6601265  -0.2534730  -0.5340360  -0.2825184  -0.3949796
  -0.2078854  -0.0890698   0.1964269   0.1226615  -0.5877837   0.8264495
   1.8770045   0.7007369  -0.3416860  -0.2118311  -0.4516559   0.2438968
   0.3768682  -0.4622116   1.3073465   1.3390269   0.0783765   0.0344217
  -0.0465599  -0.1313598  -0.4089460  -1.3967764   0.1756842   1.4624390
   0.4723623  -0.6348042  -0.8229301  -0.1339351   0.0068031   0.1381357
   0.0641649  -0.7761733  -0.3055532  -0.3998951   1.0259519  -0.4259919
  -0.1754565  -0.0982338  -0.1455666   1.3561224   1.1284470   0.8411022
   0.2524617  -1.4523977  -1.0357607  -0.2012734   0.0215643  -0.0763250
  -1.2423462   0.3938684  -1.4342592  -0.1627294   1.5559452  -1.2879099
   0.2319646   0.1212738   0.1789835  -0.0194033   0.9083360   0.8890010
   0.3936097   0.0743211  -0.3525476   0.1175587  -0.1604408  -0.0706179
  -0.1760370   0.3297766  -1.1912694   0.1177773  -0.7102268   0.7289406
   0.2773186  -0.0926259   0.5548371  -0.9236854  -0.0639445   0.9998998
  -0.5747487  -1.1140569  -1.3287516   0.0813471  -0.2200010   0.0623198
  -1.0459745   1.5575454  -0.1139560  -0.1059215  -0.6628082   0.4703019
   0.3260927   0.1480133   0.2676302   0.3567103  -0.0575789  -0.1670712
   0.7663315  -0.6168739   0.3705704   0.0163704   0.0644992   0.1987557
  -0.6060006  -0.3154274  -1.2552510  -0.3045738  -0.1816376  -1.2189829
  -0.1460993   0.0824836  -0.0372041  -0.0942031  -1.3421233  -0.5555578
   1.1159451   0.5179414   0.6689580  -0.0125742  -0.0106517   0.1328392
   0.6728556   0.5723995   0.6615230   1.3930191  -0.5371709   0.0942217
  -0.1692045   0.1930590   0.3220176   0.0264064   1.5866880   0.1903097
  -0.0921705  -0.0473156   0.0108636  -0.0072521  -0.2226441   0.1145229
  -1.5929696   1.4629561  -1.5788734  -0.5791818   0.4482532  -0.1427285
  -0.1243797   0.0703458  -0.1474369  -0.5899398  -0.6979216  -0.0859763
   0.1485422   0.8128238  -0.1922013   0.0350516  -0.2371632  -0.3371517
  -1.6291591  -1.9217776   0.5448060  -2.1354103   0.0423712  -0.1571836
  -0.2032670   0.1243445  -0.0451889   0.0007603  -0.1725512  -0.7010749
   0.0442778  -1.1443309  -0.5217661  -0.1382988  -0.0384090  -0.3859225
  -0.5079862   1.2356237   0.1828025  -0.0547063   0.8676046  -0.6243393
  -0.1152596  -0.2865408   0.0516524  -0.8498296  -0.1006359  -0.2519760
   0.4521580  -0.4686690   0.5605633  -0.1882803   0.0247483  -0.0188208
   1.7192944  -1.1372084   0.0309533  -0.4197109  -0.1107793  -1.1269354
   0.0028475   0.0075304  -0.1996065  -0.9262127  -0.6773313  -0.3405874
  -0.6780278   2.0905103   1.0027646   0.3290380  -0.0447665   0.1344758
  -0.7608712   0.6597767  -0.5857805  -0.2599779  -0.7852373  -0.5635052
  -0.2102348  -0.0097337  -0.2719597  -0.6889739   0.4336175   0.6203674
   0.0898739  -0.3863411  -0.4633292  -0.1568745  -0.0505370   0.0518250
   0.8643106  -0.2014492   0.3297727  -0.2228518   0.2089880   0.0237229
  -0.0918631   0.0984217   0.1646806   0.7268192   0.2017065  -1.5910313
   1.2745405  -0.5751074   0.4903244  -0.0585972  -0.0297486  -0.2050691
   0.4494864   0.4542345  -0.2996338   0.4272060   0.6995997  -0.2091029
  -0.0547674   0.1442156  -0.0362741   1.1823454  -1.0530627   0.4331067
  -1.1608713  -0.7726136  -1.2090858   0.0117193  -0.2152140  -0.0690042
  -0.3558839  -1.3675805  -1.0028356  -0.3217530  -0.3720512  -1.0702460
  -0.2663986  -0.2070160  -0.0676513  -0.7982401  -0.5459879   0.0777474
  -0.3957810  -0.5028818  -1.1737590  -0.2920166   0.1676521  -0.1184184
   0.8894811  -0.8086286   0.0297337   0.0929095  -0.5735311  -0.3577002
   0.1156362  -0.2445270  -0.1089040   0.5848001  -0.5348199  -0.1642643
   0.4311595   0.9476090  -0.5194320  -0.2343719  -0.0769065   0.4263161
   0.4005742   0.0947233  -0.5279391  -0.2478130   0.1359502  -0.8399494
   0.1407822   0.1636125  -0.0856224  -1.0013221   0.1374637   0.2377399
   1.1209736  -0.0223162  -0.0781590  -0.1062645   0.0523290   0.2839155
   0.9459219   0.0512197   1.2780950   1.0385224   0.0240975   0.1660516
   0.1168992   0.3958097  -0.0343929  -1.3060959   1.1411781   0.0635888
  -0.2776330   0.1787228  -0.2013783  -0.0573194   0.1182965   0.0745596
  -1.1300060  -0.0045407   0.3033063  -0.1655241  -1.4818412   0.7746187
   0.0738315   0.2126420   0.1122294  -0.8428553  -0.7648707  -0.8262422
  -0.3673851   0.3799944  -0.5452671   0.0919132   0.2401846   0.1305399
   1.2379932  -1.4760265   0.4283546  -2.4881170  -0.4190091   0.3077180
  -0.2485176   0.2408323   0.0124486   0.4984985  -0.7837376  -0.7631754
   0.7017496   0.5253297  -0.4357661  -0.2147651   0.1791855   0.0300777
  -0.1774978  -0.7830149   0.1501383  -0.3448165   0.7588789  -0.6847299
   0.2760599  -0.1817418   0.2276389   0.3718999   0.2439424   0.2031588
   0.7634225  -0.1622890  -0.6795293   0.2448789  -0.1727296  -0.0511212
   1.1130942  -0.7515014   0.0111727  -0.4628119  -0.7883742   0.4190411
  -0.0533946   0.1814954  -0.0450616   0.1661506  -0.7375407  -0.0384985
  -0.1557902  -1.2648577  -0.0788613  -0.0344013   0.0374696  -0.0875920
   0.5988019  -0.3096251   0.4639110   0.6446190   0.3829594   0.3269862
   0.1922137  -0.4320995   0.2941184  -0.2331522   0.6745773   0.1180826
   0.7590264  -0.3348446   0.5099072  -0.1580153  -0.1444905  -0.0128327
  -1.6248352   1.0906725   0.6245176   0.3655658   1.3397246  -0.4318456
   0.2549015   0.1759297  -0.0971528  -0.2771537   0.4004498  -1.0075053
   1.2626231  -0.6075684   0.0452478   0.0360760  -0.2199005  -0.4259429
  -1.2144915  -0.5633059   0.4039557   0.4911310  -0.1251206   0.5413779
  -0.0367165   0.0635156  -0.0959787  -1.1903907  -0.8646458  -0.6864779
  -0.1327510   0.9318325   0.1364572  -0.1205763  -0.1233561  -0.1032802
   0.4640060   0.8103649   0.5360319   0.1675846   0.1405480   0.1701131
   0.2453989   0.0589891   0.1925023   0.5510483  -0.0510098  -0.2088296
  -0.7225679  -0.7770330   0.5299213   0.0593940   0.0076488  -0.1073479
   1.5934566  -0.1052241  -1.0408752  -0.0405025  -0.3944764   0.8372557
   0.2430088  -0.1864610   0.0126031  -1.4476643   0.2171868  -0.7841304
   0.6158499  -1.7572363   0.1568961   0.0911208  -0.0249926   0.1231847
  -0.7482181   0.3124065  -0.0267202   1.5255794   0.8487970  -0.8799527
  -0.1716354  -0.0404855  -0.0844307   0.5230211   0.5733742  -0.7493082
   0.1195995   0.1262364  -0.0474800  -0.1012834   0.2898177  -0.1739633
   0.6097874   0.6113868   0.3647081  -0.5224096  -0.7563693  -0.1237707
  -0.2776439  -0.0140463  -0.2170350   0.5434871  -0.4933365  -0.2599476
  -0.1840900  -0.3090797   0.3205217  -0.2336064   0.0633999  -0.0126807
  -0.4949181  -0.8448444   1.2321543   0.6746509  -0.7559641   0.4702009
  -0.3936674   0.0116331  -0.2696066  -0.0824344   0.8457548  -0.0394414
   0.9683562   0.4195389   0.4707645   0.3517799   0.0355582   0.0705494
  -0.7398461   0.1311117   0.6136921  -0.7317489   0.3235231   0.3289726
   0.0300178   0.1966765   0.0410412   0.8787832  -0.3956357  -1.6255580
  -0.0615152  -0.6317657  -0.2704653   0.1837267  -0.1971846  -0.2095355
   1.5584520   0.8288585  -1.0563827  -0.8194942   0.7392082  -1.2549566
  -0.2292004  -0.0668122  -0.0399538  -1.0545552  -1.5284772   0.2788551
  -0.7494483  -0.4622504   1.4612044  -0.2157643   0.1247011   0.1295185
   0.3757615  -0.6822732   0.6795024  -0.3920896   0.5136460   0.4538853
   0.0422543  -0.2410475   0.1701948  -0.0673911   1.4826926   1.4820402
   0.6384572   0.2298642   0.2700497  -0.3268140  -0.0328740  -0.0114547
  -0.3628262  -1.1623456  -0.2266416  -1.0694486  -0.3540726  -1.3386596
   0.3812487  -0.1414832   0.2375045  -1.8705438  -0.4163779   1.2220896
  -0.2137223   1.1877430  -1.1542084  -0.1159631   0.3828341   0.2099122
   0.5750206   0.5540546   0.8698386  -0.1748232   0.9446076   0.6005859
  -0.1264794   0.0783337   0.2490715  -1.4573252   0.1742440   0.7392670
  -1.1420252   0.8385211  -0.3233163  -0.0496832   0.0579607  -0.0328071
  -0.4210715   0.0909345  -1.0175005  -0.8831610   0.8148719   1.2307144
  -0.0180006  -0.2124219   0.4141979  -0.8430919   0.0661763   0.7655731
  -1.7239688   0.1654735  -0.1611540   0.2854758  -0.0663999  -0.0624955
  -0.1841668   0.4936297  -1.1730845   0.4962678  -0.3032005  -0.5647514
  -0.0256546   0.0562157   0.2578536  -0.3786131  -1.1112138  -0.9198233
   0.5042702  -0.3966152  -0.3328641   0.0109130  -0.0390862  -0.0477643
   0.7084731   0.6070098  -0.7819226  -1.0680892  -1.1953653  -0.0669806
   0.1393488   0.2779153   0.2903643   0.1772459   0.6206556  -1.0322223
   0.2730004  -0.2441205  -0.6814684   0.5667422   0.3428829   0.3231279
   0.1057029   1.2862034   1.4395991  -0.3342155  -0.3699918  -0.8210147
   0.1533411   0.1409233   0.2437410   0.2124689  -0.6729767   0.0577663
  -0.7990437  -0.3873382   1.0961708  -0.1631594  -0.0231459   0.0332691
   0.5937215  -0.5885604  -0.6347779  -1.2627568  -0.4333776   1.2515332
   0.1897307   0.3153365  -0.2317560  -1.6253794  -0.2750362   0.2282171
  -1.2592166  -0.5583531  -0.7971066  -0.2069813   0.3891106  -0.1783068
  -1.2775909   0.8340735   0.2029382  -0.2027087   0.0003567  -0.0965169
   0.2961166   0.0165458  -0.0327182   0.1223689  -0.4092163   0.3556680
   0.8798412  -0.2969009   0.6974947  -0.1508522  -0.0347462  -0.1380563
   0.7839395  -0.4892135  -0.4133446  -1.6498831  -0.2142550  -0.7144493
  -0.0881593   0.1102190  -0.4486586   1.0546673   0.7071210  -0.8590113
  -0.1644519  -0.4283161   0.7528800  -0.2870412  -0.0596942   0.2129923
  -0.8265370  -0.5358430  -1.0883174   0.6798791  -0.4793812   0.2197813
  -0.0997471  -0.0667330  -0.0730604   1.0165344  -1.2417036   0.6879757
   0.3255556  -0.3498247  -1.9391939  -0.3687997   0.1203721  -0.0880695
  -0.1344017   0.2108286   0.5453679   0.7047995   0.3611792   0.4598738
   0.0416450   0.1113445  -0.0026647   0.0687209  -0.7738345   0.9548951
   0.0794387   0.4624199  -0.8814660   0.2553737  -0.0646641  -0.2273320
  -0.9598172  -0.5894591  -0.1947810  -1.0523610  -1.8071840   0.3189016
  -0.0172662  -0.2902073   0.2704548  -1.2635531   0.7172501  -0.7668409
  -0.3185302   1.1700683  -0.6279669   0.0384275  -0.0227487  -0.5301197
  -0.4204080   1.1716998  -0.3307356   0.0393706   0.9821449  -0.3898839
  -0.3703739   0.1488596  -0.0350197  -0.1517097   0.5198281  -0.0231639
   0.0761323   1.2036088   0.1089653  -0.3812512  -0.1327863   0.4529070
   0.6015191   0.7601322  -0.2155188   1.3936928  -0.8484527   1.6643679
   0.1028772  -0.3253081  -0.0325079   0.5383364   0.1518932  -0.2574151
   0.2148676  -0.4739893   0.7172647  -0.0946278   0.1179531  -0.2777771
  -0.8521007  -0.9069354  -0.4786371   0.2475266   0.0187564   0.2037493
  -0.0340887  -0.3257333   0.1143774  -0.8724670   0.9637556  -0.7265116
  -1.4926926  -0.3435913   0.7428753  -0.3741223  -0.2230486   0.0180247
   0.8418595  -0.3498755   1.6219247  -0.5224584  -0.6654866  -0.7938174
  -0.0538121  -0.1925611   0.0903487  -0.2395658  -0.1594614  -0.3379459
  -0.0735282   0.2070576  -0.0712282  -0.2861296  -0.1657169   0.1213625
  -0.5446356  -0.8622387   0.0263281  -0.7935788   0.1133249  -0.5659927
  -0.2650623  -0.2298046  -0.0738394   0.8185458   0.1401108   1.0195769
   0.4024893   1.2074347   0.3806050  -0.0868982  -0.3928150  -0.0016761
  -0.8485894   1.0322541   2.0484358   1.1123696  -0.5608581  -0.9926472
  -0.1181069  -0.1491760   0.1268402  -0.6646888   0.2064348   0.6467497
   1.7614815   0.5956764   0.2731435  -0.2578084  -0.0152060  -0.0502127
   1.1747195  -0.0189477   1.1968206   0.8928716  -0.1028160  -0.4590535
   0.2030134   0.2891712  -0.0735258   0.6145165   0.2234089  -0.5281275
   0.8950361  -0.0149752   0.5586160  -0.0301434  -0.2203884   0.0185081
  -0.9465551   0.3185805   1.4296438   0.0160570   1.1761213  -0.0069157
  -0.1402359  -0.1630052   0.1415167  -0.6635916  -0.3625219   0.0630463
  -0.7492594   0.0894536   0.6837376   0.0620572   0.1394167   0.1058291
   0.1853933   0.1542495   0.7234052  -0.1209832  -1.2358952  -0.4192832
   0.1670462  -0.1785246  -0.0857637   0.6191255   0.0977967  -0.5541598
   0.7698578   0.4967466   1.5710312   0.2418783  -0.0146092  -0.1215765
  -1.6369072  -1.1141328  -0.4684842  -1.6252860   0.7479568   0.0673350
   0.3466836  -0.1299111  -0.3095534  -1.1136491   0.9498378  -0.6459563
  -1.9384710   0.1726256  -2.6755742   0.1873683   0.1101187   0.3495816
   0.4169751  -0.1996045  -0.0773991  -0.5011852   0.4064447   1.2796717
  -0.2084147   0.1738657   0.1032337   0.4605406   1.2000087   0.4318057
   0.6321140  -0.7828368   0.4173928  -0.0713061   0.1461541   0.0479414
   0.0756141  -0.3061001  -0.4128430   1.2152881  -0.4749254  -0.3136152
  -0.1279381   0.0320425   0.0945323  -2.0480406  -0.2708097  -1.4862297
  -0.5420205   0.3160040  -0.6081159   0.0502349   0.1156176  -0.1461156
  -1.0780492  -0.1968234  -1.4696740  -1.0843201   1.2458245  -0.0134355
   0.2515909   0.0004817  -0.0458156  -0.3012679  -1.4714428  -1.4553706
  -0.7857121   0.7582278  -0.7283150  -0.0617960  -0.0729993  -0.2540620
  -0.2315259   1.0420490   1.0327400  -1.1902175   1.0018986   0.4861922
   0.2406639   0.0365650  -0.0427664  -0.6711962   1.1263862  -1.6859902
   0.4582021   1.2247105  -0.2264134   0.1192886   0.0407348   0.3701747
  -0.4821574  -0.2829886   0.6483752   0.4827550   0.0915784   1.1353701
   0.1793584   0.1081510  -0.1959212   0.4350856   1.1243281   0.5700538
  -0.7994495   0.3425749  -0.3958113   0.1431510  -0.1116632   0.0858135
  -0.6607788  -0.0306406  -0.1124836   0.1015592   0.0135032   0.0203219
  -0.0095858   0.1020079   0.0528064   0.2402024  -0.7043354   0.2377048
   0.5391536   0.3026201  -0.2549137   0.0017826   0.2906785  -0.2100919
  -1.3290451   0.3109846  -0.7747865  -1.0305782   0.0876449  -0.5575407
  -0.2035350  -0.5076019   0.0160069  -0.0842767  -0.4035077  -0.2947302
  -0.1787326  -1.4261256  -0.1623084  -0.0966543   0.5029450  -0.0853703
  -1.2996058   1.3422966   0.4008148   0.3479100  -0.3152285  -0.9570303
  -0.1402902   0.0814735   0.0701120  -0.1055815   0.3991293   0.6141488
  -0.2011336  -0.2238513   0.0338496   0.0661091  -0.2642943  -0.2358252
  -1.5374279  -0.9589907   1.7223720   0.2583909  -1.4637416  -1.2491468
  -0.1015818  -0.2079713   0.1774828  -0.5650353   0.7286372  -0.7297168
  -1.1694618  -0.0807763   0.1934133  -0.0467641  -0.1614052   0.1698793
   1.0296040  -1.3285604  -0.3984354  -1.3624670   0.0537380   0.0589533
  -0.1719210   0.1821682  -0.0928453  -0.3137731   0.3457639  -0.4866734
  -0.7827745  -1.3253844  -0.0878637   0.0418879  -0.0711681  -0.4003655
   0.6507856  -0.4647414  -0.9646456  -0.6512914  -0.8143318  -1.1063343
   0.2476579  -0.1604516  -0.0973821   0.2178114  -0.0716349   0.3955839
  -0.6242616   0.7663000  -0.2452549  -0.0959763   0.1347361   0.2169929
  -0.2047942   0.5737008  -0.7875401  -1.1597665   0.9043485   0.6522406
   0.2512952  -0.0819130  -0.0067867  -1.5926177   0.8985398  -1.0925670
  -0.3834092  -0.3163694  -0.0433514  -0.2032804  -0.0821070   0.1694855
  -0.8802353  -0.7604926   1.3143017   0.7177408   0.3103001   1.0436752
  -0.1423270   0.2867229   0.3222249   0.3297424  -0.0823485  -0.0306089
   0.4427593   1.0940637   0.0752224  -0.1898028  -0.0907344   0.0839818
  -0.1194374   0.5741450  -1.0455080  -0.2265367   0.0703975   1.5161423
   0.0533445  -0.1812833   0.0139782   0.2430257   0.0748902  -0.6942560
   0.6667981   0.1322890   0.7863439  -0.0065926   0.0131271  -0.3427701
  -0.3918918   0.3538012  -1.4940509   0.4227959  -0.0402780   0.2564477
  -0.3244511   0.0700483  -0.0709737   0.4787011   0.0073226  -0.0936713
  -1.1519703  -2.1276451  -0.1005273   0.1879086  -0.1103381   0.1179807
  -1.2150660   1.9240309  -0.3267146  -1.0304078  -0.5419977   0.4804108
   0.4105827  -0.4297633   0.1555835  -0.6592417   0.4904552   1.0161275
   0.6877069  -1.4189357   1.1360593  -0.0950622   0.1659164  -0.2568293
   0.2539640   0.8665163  -0.2352704   0.1446951   0.2533595   0.0678960
  -0.0034687  -0.0680182  -0.1344520   0.5394480  -0.1589672   1.7424044
   0.2716499   0.6107207   0.0628349  -0.0911617   0.0184315  -0.2798117
   1.0400036   0.7937513   0.5840065  -0.6373630  -0.8975622   1.2949278
  -0.4789265   0.0645544   0.1218336   1.0994226  -0.2164240  -0.3135506
   0.4381089   0.9105504  -0.0199260  -0.1833110  -0.0979160  -0.2876823
  -0.1601358  -1.6964810  -0.2843052   0.6733500   1.1746075  -0.5469251
   0.0704222   0.1917910   0.0589538  -0.0518221   0.1532046   1.2804742
  -0.5088196  -0.0311106  -0.8347931  -0.0741948   0.0382834  -0.1044284
   0.8434762  -1.5216455  -0.4595557  -1.6446462   1.3703947  -0.5268846
  -0.0735330   0.0689608   0.0380924  -1.0568481  -0.4762878  -0.1599280
  -0.8512634  -0.5808950  -2.2490659  -0.1173001  -0.3863093  -0.2567775
   0.0171958  -0.8401898  -0.6601104   1.0972875   0.2070929  -1.3278779
  -0.1330566   0.0095017  -0.0720999   1.8346989  -0.0863019  -0.2093774
   0.2308402  -0.7603308   0.5442908  -0.2643212  -0.2505679   0.0403817
   0.7458054  -0.1611836   0.8981263  -0.0166731   0.9818803  -0.3848208
  -0.2242459  -0.1451446  -0.0800201   0.1450006  -0.0600362   1.2170622
   1.0436710  -0.5084185  -1.4376824  -0.1324176   0.0379490  -0.0620852
   0.2000580   0.0522093  -0.0846281   0.7390675  -0.8170121   1.4945079
  -0.0011650   0.0600609   0.1994179   0.5156256   1.5099615   0.3881217
   0.1012693   0.9498837   0.5421537   0.1178206   0.1104890  -0.0995815
  -0.4678364   0.8499973   0.3516977   0.3123992  -0.2869829  -0.4712280
  -0.0494700   0.1071579  -0.1038672   1.2806956   0.7173153   0.2186766
  -0.6503706   0.9837322   0.6662171   0.0628202   0.1952815  -0.0460870
   0.5116860   0.2175145  -0.3590535  -0.8091611   0.9872479  -0.8765686
  -0.4085578   0.1522352   0.1939669  -1.1445246   0.0121082   0.4517013
   0.6196888   0.1016845   1.2579750  -0.0804454  -0.1594231   0.1509489
   0.3051420  -0.4892303  -0.8618536   1.2524855   0.2802238  -0.0908636
   0.0290247  -0.2474255  -0.1375803  -0.0944099   0.1234778  -0.0955022
  -0.6013548   0.0228117   0.2011327   0.1888301  -0.1034564  -0.1701531
   0.3036728   1.1555870  -0.2948788  -0.1816054  -1.3791883   0.7674496
   0.1350541  -0.1259475  -0.2282433  -0.6702615   0.5423889   0.1900262
   0.1003077  -0.8532789  -0.9703641  -0.2232839  -0.0625936   0.1021046
  -1.1856667  -0.8869784   1.0305844  -0.0251078  -0.3463547   1.0039743
  -0.1499838  -0.1709952   0.0059019   1.0293912  -0.3488762  -1.4054235
   0.8298096  -0.8660786  -0.2193867  -0.2043373  -0.2384667   0.2171548
   0.4665686  -0.5868844  -0.5259334   0.2582211   0.0671967   0.6379222
  -0.2084748   0.2469099  -0.2518014   0.2270345  -0.0675134  -1.6984429
  -0.3073968  -0.7477751  -1.1302147  -0.2748569  -0.1463343   0.2481419
   0.0068580  -0.6540223   1.7259082   0.0690808   0.2904767  -0.2270693
   0.0594444  -0.0874042   0.1262849  -1.2891367  -0.5729420  -0.7102887
   0.3427764  -0.2753290   0.6633235   0.2433118  -0.0736631  -0.0023155
  -0.0542058   0.3015469  -0.7974404   0.5378005   1.4431630   0.4084301
   0.0203345   0.2035312  -0.3772442   0.1679743   0.0296487  -1.0320684
   0.4539620  -0.5955655   0.1129924   0.1284301   0.1091215   0.0640690
  -0.3235231  -0.7589205  -0.0434236  -0.9223229   0.5037600  -1.0523267
   0.1519779  -0.0017062   0.3328130   1.4300221   0.9861169   0.3853607
  -0.4799639  -0.2435293   0.0431361  -0.2814175  -0.0617968   0.0551297
  -0.0211002  -0.2451402  -0.4892129  -1.0450765   0.7339481  -0.7052709
   0.1177176   0.1292768   0.0923577  -0.2677186  -0.3010971   1.3277597
   1.1456445   1.4720332  -0.2664221  -0.1983168   0.2306420  -0.0882157
   0.0824616   0.1979201  -0.4725877  -1.4499798  -0.2034971   0.6138486
   0.0797439  -0.0617850  -0.1055446  -0.3223250  -0.4679104   0.7217606
  -0.6611076   0.0644588  -1.5174774   0.0459400   0.2948071   0.0383616
  -0.5400014   0.4453617   0.3072132   0.3891661   0.5293087  -1.5178598
   0.0003688   0.0292450  -0.2286010   0.9364494  -1.0909667  -1.3269102
   0.1680826  -0.2854011   0.5531103  -0.3585301  -0.0833166  -0.2197080
   0.1501895   1.0000337  -1.1508298   0.9110526   0.2556694  -0.0661263
  -0.1068593  -0.2422202   0.0174760   1.2594817  -0.0341691   1.5754496
  -0.1886272  -0.5976566  -0.0365165  -0.1226571  -0.1047585   0.2719210
   1.2659313   0.7440340   0.5378061   0.5894298   0.6912607   1.0477388
   0.2820382   0.0640980   0.2060392   1.1152172  -0.1505550  -1.1225542
  -0.3216927  -0.9151979  -0.2697300   0.2498693   0.1960321  -0.2551471
  -0.0355073  -0.7185233   0.2680827   0.6788365   0.5342875   0.7343570
  -0.0907666   0.1047313   0.1815179   1.3688389  -0.0788358   0.2938984
  -0.4279070   0.4137800  -0.8428266  -0.1706591  -0.1778098  -0.0356596
  -0.5802571   0.9566202  -0.2251723   0.8898912  -0.6772333  -0.3623628
   0.0592833  -0.1893869  -0.2043604   0.3463542  -0.7122373   0.3888642
   0.2612255  -1.0041290   0.3389172   0.2196803   0.4689348  -0.0507816
   0.3541563   0.2188358   0.0796213  -0.2934479  -0.1365611   0.2907730
   0.6065878   0.1113595   0.3860611   0.6715344  -0.6343108  -1.3944391
   0.7129185  -0.0213623  -0.9147309   0.2063553  -0.2492282  -0.1354741
   0.4017758  -0.4357337  -0.6843897   0.9836306   0.4806275   0.8124845
   0.0806663   0.1422367  -0.4338407   0.5230949   0.9010146   1.2841186
  -0.6441441  -0.7016936  -0.3233269   0.1876273  -0.0241078   0.1333836
  -0.5674707  -0.4308567   0.0658154   0.5681599  -0.1747232   0.0940233
  -0.0989574   0.0953555  -0.2337890  -0.2257828  -0.9501937  -1.0224084
  -1.1776670  -0.5037724  -2.3743971  -0.0704246  -0.0295374  -0.3222379
   0.3526030   1.6099122  -0.4761685  -0.2502885  -0.0862569  -1.6698455
   0.1769100   0.1039381   0.0047833  -0.9542797   0.7170558  -2.1318499
  -1.2096572  -1.2400997  -0.0400624  -0.3093992   0.3749302  -0.0286609
  -0.0361699   0.0111078  -0.6992901  -0.1328823  -0.8924764   1.2196739
  -0.1041977  -0.0078380  -0.1711889   0.7317927  -1.2167566  -0.7331058
   0.2506508  -0.0752658   0.1919692  -0.2234183   0.1415994   0.0045788
  -0.1744415   0.0414323  -0.2541894   1.6879313  -0.0942423  -0.2537052
  -0.0533192  -0.1752195  -0.2506939   0.6478998   0.3252721   0.2843799
  -0.5769441  -0.2821294   0.0343792  -0.1768308  -0.2467159   0.0686586
  -1.2063958  -0.3411816  -0.9858685  -0.1389783   0.6369138  -1.3347937
   0.0886210   0.1016432   0.0871604  -0.7665310  -0.9828556   1.5219953
   0.0825580   0.6554245   0.2028898   0.1293366   0.3138044   0.2079643
  -0.6933486   0.3725631  -0.4250634  -0.4579458   0.2613708   0.3445574
   0.2487158   0.1242543   0.0584934  -0.8814360   0.8811466   0.5833926
   1.0038943  -0.1875151  -0.7164357  -0.2495897   0.2970280  -0.2826505
   0.1553803  -0.7768723   0.3227133   0.0088879  -0.4463938  -0.8005566
  -0.0070383   0.2516808  -0.3074827   0.1964369   0.4831326  -0.3317305
  -0.1419083   0.7766378   0.7258355   0.0092870   0.4459320   0.0678177
  -1.0467190   0.0654721  -0.3239583  -0.8636075  -0.2163423   1.9882734
   0.3320732   0.1948715  -0.0380848   0.5072979   0.2523394   0.8874985
   0.7311829  -1.2141070   0.2496699   0.3882495  -0.1275185   0.1721120
   0.1038582   0.6699345  -0.6166708  -0.7231941  -1.1013924  -0.2426030
   0.0274227   0.0219989  -0.0867757  -0.7622899   3.0170066   1.0491117
   0.6351479  -0.5627981   1.2093622   0.0961563  -0.2577586  -0.0759671
   0.6424744  -0.9435286   1.1488557  -0.0948635   0.4595962  -0.5133415
   0.2213321  -0.3121328  -0.0187882  -0.4135487  -0.8744435   0.4112110
  -0.3731572  -0.8143738  -0.1004325  -0.0296212   0.1363027  -0.1429652
  -0.4802213   0.8368838   1.4311507   1.5565065  -1.0037520  -0.6180686
  -0.1517359   0.2789711   0.0030008   1.0258318   0.7452122   1.1186434
  -0.6960366  -1.4772886   0.7656448   0.0638501  -0.1558284  -0.5633925
   0.2521554   0.3292446   0.2777482  -0.2025684  -1.1808180   0.3036467
  -0.0512619   0.0702864  -0.0039548   0.6493943   0.5355315  -0.5772036
   0.3133968   0.3883414  -0.2437810  -0.0727613   0.2354213  -0.0812857
   2.1708280  -0.6311722   0.7054561  -0.7444493  -0.2026356  -1.0866941
  -0.0870044  -0.0029175   0.0126706   0.0222329  -0.0356008   0.2244362
  -0.2092228  -0.2513355   0.8578062  -0.0534148  -0.3190601  -0.1418975
  -1.1609673   0.2592433  -0.3166553   1.2281445   0.4882433  -0.5709408
   0.0262676   0.1675268  -0.2220987   0.6759786   0.2648027   0.2198954
  -0.3566342   0.3930576  -0.2534875  -0.2894836   0.0941240  -0.1098788
  -0.3159460  -1.3520076   0.3228458  -1.1202837   0.0824346   0.1537785
   0.1128232   0.4110702  -0.0822803   0.0305916  -0.1541824  -0.3117149
  -0.3277292   0.4694720  -0.6307342  -0.2635534   0.1016814   0.2941057
  -0.3332618   0.0814422   1.2086437   0.0598701  -0.9411168   0.2709104
  -0.1759365   0.1383014   0.1166170  -1.1335704   0.2703148  -0.6741526
   0.0166599  -0.0655021   0.7422490   0.2285608   0.0532590  -0.1809550
   0.0545542  -0.3263804   1.8213314   0.0554344   0.1692441   0.1601627
   0.1064885  -0.0452000   0.3173217   1.4715925   1.3688321   0.4610646
   0.2468809  -0.8905859   0.4721859  -0.5634445  -0.0463320   0.0686911
   0.9558282  -1.0605416  -0.4728467  -0.1818268  -0.3156859  -1.9658473
   0.2396944   0.0299316   0.1887532   0.0314632  -1.2776488  -1.3772083
   0.2408116  -0.4015457  -0.6540602   0.0416618   0.1788805  -0.1221671
  -0.1424280  -0.8146840   0.5250779  -1.1684630   0.3547523  -0.0379205
  -0.1441045   0.1211939   0.0465370   0.0087978   0.8924268  -0.0373733
   0.3716999  -0.8561232  -1.1599940   0.1622951   0.0948910  -0.2251889
   0.2325064  -0.3342988  -0.1335070   0.5240422  -0.8330498  -0.6018137
   0.3619922  -0.0528772   0.0855776   0.2124189  -0.6024148   0.0359388
   0.3932423   0.0850912   0.6951771  -0.0458885  -0.1206121   0.1030532
   0.6212066   1.4737045  -0.3063575   0.9698132   2.6151559  -0.0714759
   0.1523386   0.2687369  -0.1059912  -0.4692853   0.3437262  -1.0087321
   0.9844690   1.0669996   0.8153325  -0.0594394  -0.1187493   0.0345619
   0.5404757   1.2010188   0.7289687   1.3232594  -0.5166679  -1.1736344
  -0.1379240  -0.1147040   0.2115924  -0.1802029   1.3973366   0.0459557
   0.6353380  -0.7365609   0.0513234  -0.2338130  -0.2548562   0.1761887
   0.2599941  -0.1136143   0.2872354   0.3157601   0.3778780   0.1549491
   0.0377175   0.3555860   0.0835369   0.3063219  -0.6248821  -0.0155038
   1.2333698   0.0094408   0.9218439  -0.2127154  -0.3214346   0.2040824
  -0.4551760  -0.5300645  -0.3991455  -0.1061510   0.6874497  -0.0343794
  -0.2194177  -0.1957930   0.1986217  -0.4443751   0.4696073  -0.3919625
   0.6939430  -0.4336591   1.4930329  -0.1345021  -0.1061313   0.4899270
  -0.8194160   0.3530484  -1.1316638  -0.2792215  -1.3478463   0.5561234
  -0.1597077   0.0647007   0.2899966  -0.0791110  -0.1956660   0.3741556
   0.9158704  -0.5560698   0.1361598   0.1776070  -0.0015267   0.1266357
  -0.3748583  -1.0319255  -0.1333472   0.7259794   0.0040030   0.4643256
   0.1683671   0.4371213   0.0408184  -0.1137701  -1.2981833  -0.9016671
   0.5596667  -0.4481146  -0.1963405   0.0758792  -0.2826630   0.3028634
  -0.1017550  -0.1440866  -0.3040884  -2.3652891  -0.6978329  -0.1891221
   0.0328890  -0.0742388  -0.0806674   0.3255265  -0.1524144   0.0108885
   0.0699624   0.7837206  -0.3138072  -0.1773441  -0.1101657  -0.0422353
  -0.6578533   0.0654701  -0.1608362   0.0163635   1.7024916  -0.4353058
   0.0755326   0.0275159   0.1657946  -0.0659845  -0.8401877   0.4346693
  -1.1051814  -0.5203096   1.3455658   0.0750616   0.2437076  -0.2419293
   0.1643606  -0.2792185   1.1688765   0.4673918  -0.5670598  -0.5679495
   0.0001758  -0.4573339   0.0680031  -0.4705759   0.0215668   0.2152359
  -0.1303931  -0.1343720  -0.2935190  -0.2281546  -0.0002644   0.0520745
   1.6268340  -0.1682905  -0.4784455  -0.1119519   0.1080920   0.8325060
   0.0901064  -0.0087482  -0.2568473   0.3196057   0.9940129   0.5781733
   1.3973096  -0.2781660  -0.2080373  -0.1018271   0.1113421   0.1295272
   0.5643718  -0.5393022   0.3111887   0.6973517   2.1189959   1.7244021
  -0.1581478   0.1653614   0.0147305  -1.1733676  -0.0599974  -0.2298371
  -0.4096366  -1.3472171   1.6617165  -0.0027953   0.1551569   0.0119812
  -1.7663552   1.6616357  -0.2822275  -0.0973132   0.7213712  -0.5327277
  -0.0427985  -0.1831270   0.0326512  -0.2931136   0.0966152  -0.5293450
  -0.7695565   2.0246674   0.8089652   0.1306549   0.0371626  -0.0092890
   0.0544120   1.3186973   1.5569753  -0.1161206   0.5088845   0.6160596
  -0.1248946   0.0483707  -0.0282568   0.5958078   0.7413988   0.5817680
  -0.6241962   1.6057338   0.3050145  -0.1041808   0.0228006  -0.0925721
  -0.6051797  -0.1276238  -0.1821548  -1.0316467  -0.7277935  -0.9522348
  -0.0993649   0.3029339   0.4871845   1.4205993   0.0000191   0.5788193
   0.5885068   0.2315139   0.0540972  -0.0427672   0.0660661   0.0938724
  -1.0447776  -0.2324526   0.0831775   2.0583798   1.2729127   0.6027879
  -0.3494616  -0.0170377  -0.3516340  -0.8029587  -1.4043768  -1.3967837
  -0.7143517  -0.5497321   1.7928433   0.1460642  -0.0428066  -0.0963317
  -1.5257386  -0.2343283   1.1968897  -0.2852348   0.1228150  -0.7334779
  -0.0065940   0.1735111   0.2582030   1.4754237   0.9465617  -1.6037617
   0.6306827  -0.6761914  -0.1268044   0.4050776   0.0010977  -0.0103211
   0.2278572   0.4888552  -0.0210533   1.5436514   0.0231802   0.5859021
  -0.0600120   0.1549636  -0.2285352  -1.3757015  -0.0379663   0.0502230
   0.4480083  -0.7899526   0.9010168   0.1311681   0.0815428  -0.0218877
  -0.3157017   2.0335943   0.5608403   1.6805766  -0.9395921  -0.2524024
   0.0965360   0.0220207  -0.3007428   1.2982366  -0.9085848   1.1382655
  -0.4724947   0.4043643  -1.2766721  -0.1882980   0.0850107  -0.3137962
  -0.2471584   0.3188017   0.2779145  -0.9991465   0.6807886  -0.5447691
  -0.0331469  -0.0463420  -0.4032100  -1.0899157  -0.7062633  -0.8318979
  -0.0445561  -1.0999231   0.1554021  -0.1526779   0.3048386  -0.0039427
  -0.9788287   0.5727975   0.9619002   0.9988836  -0.1438669  -1.0903722
  -0.0084291   0.0726828   0.3859152  -0.9582446  -0.0043646  -0.4940276
   0.1244062  -0.1021161  -0.9973233  -0.2568977  -0.2150316  -0.1876485
   0.0971295  -1.3141861  -0.7079443  -1.4336223   0.6395327   0.5064344
   0.1579974   0.1744021   0.1985536   0.0942481   1.2014276  -0.2955605
  -0.0176740  -0.4950275  -0.8125056   0.3381939  -0.2706258  -0.3034084
   0.2249377  -0.6513962  -0.2673727  -0.0527778  -0.7528000  -0.1838582
  -0.0963714   0.3724379  -0.0536332   0.4610527   1.5140973   0.4572238
  -0.0468723   0.5116371   0.0285488  -0.0696541  -0.0605008  -0.1428712
  -0.9598461   0.9772757   0.6254218   0.3838971   0.7078086   2.0427296
   0.1206000   0.0714734   0.0665944   0.5051041  -0.7393160  -0.1082064
   0.3970037  -0.5545399  -0.4740347   0.3259439   0.3855249  -0.0428827
  -0.6180843  -0.0913978  -0.0768737  -0.3173385   1.0601703  -0.7299295
  -0.2760036  -0.3898168   0.0495123  -0.1236000   0.1386418  -0.1888286
   0.8696617   1.1515165  -0.5980172   0.0188133  -0.1786662  -0.1004612
  -0.2770825   0.7398460   0.8903463   1.1643500   0.4245487  -0.6119929
  -0.0171144   0.1971064  -0.0407783  -1.1522433  -0.2267124  -0.3826227
  -0.8023414  -0.1869341  -0.7258296   0.4653513  -0.1316131  -0.2382232
   1.1203365   0.6347894  -1.0549962   0.5468453  -1.1524246  -0.3062040
   0.2429654   0.0605169  -0.1141753  -0.0553886   0.0515392  -0.2072704
  -0.6086546  -0.6749265   0.8392529   0.2585270  -0.0988246  -0.0616889
  -0.4610255  -0.5574735  -1.8654953  -1.3625477  -1.0153513  -0.1313170
  -0.0177548   0.1596234   0.0766868   0.5073633   0.1760075   1.6430351
   0.8716519   0.5249480  -0.2749925  -0.1301352   0.0668674  -0.0259795
  -0.8953214   0.2751818   0.6726685  -0.1557459   1.2321826   0.4598322
  -0.2162675  -0.1038597  -0.2742348  -0.3839675   1.7899051   0.3334730
  -0.1781704  -0.3237441   1.0096788  -0.3377061   0.0990578  -0.2676671
  -1.4107416   1.2695468  -0.9899396  -0.9887459   0.4262768   0.1579495
   0.0034013   0.2274717   0.0485079   0.1729969   1.3736645   0.2009477
  -1.8764117  -1.4658526  -0.4423021   0.1997003  -0.0250688   0.0907992
   2.2938776  -0.1203757  -0.1682680  -0.5105699   0.7488420  -0.3858131
  -0.0365782  -0.0085830   0.3231461   0.3711536  -0.9754180   0.3712578
  -0.5970273   1.4663070  -1.0848453   0.0288740  -0.2683366   0.0005995
  -0.4584370   0.4432241   0.0060462  -1.2456627  -1.1599824   1.0242999
  -0.0466232  -0.1234710   0.0240430   0.4845465   0.2715390  -0.2206296
   0.8583887   0.9397673   0.2413452   0.4075442  -0.0799051  -0.0860458
  -1.6103751   1.7670730  -0.4388767   0.5402141  -0.1675386   0.3638220
  -0.5767301   0.1611477  -0.0211128  -0.0022405  -0.3385680   1.5511965
   0.6071796   0.9578594  -0.1173518   0.0307232  -0.1156347   0.0344788
   0.7233380   1.0408013   0.4530080   1.1523412   0.3240087  -0.7934199
  -0.2235860   0.0451737   0.1801310   1.2436364  -0.4833894  -0.7611540
  -1.0270268  -0.4877777   0.2904082   0.1805175   0.2227492  -0.0868594
   1.9990508   0.7031942   2.0390042   0.1647519  -1.1694631   1.0283312
  -0.0329887  -0.0846418  -0.0894829   0.3506678  -0.4653766   0.2528655
   1.1661033   0.8637057  -0.2203418   0.3088724  -0.1248184  -0.1640524
   1.8479471  -0.4606271  -0.4258307  -0.5733245   0.8233913   1.2560018
  -0.1012358  -0.3060282   0.2678447  -0.3041518  -0.3352832   0.6132278
  -0.4242960  -1.7120632   1.6917857   0.0795006  -0.0873943  -0.1750246
  -0.0038668   0.4083531  -0.1159710  -0.4885033  -1.1287531  -0.5853845
   0.2662904  -0.3080803   0.0028467   0.1555571  -0.4073325  -0.0714171
  -0.4061782   1.0568607   1.3134940  -0.1608264   0.1088784   0.1289507
  -0.0634878   1.0495372  -1.1473578   0.0719388  -0.1743627  -0.7993116
   0.1932999   0.1721163  -0.3793493   0.3453681  -0.0948577   0.4341542
   0.5995790   0.6468252   0.2277680   0.0350975   0.0131796  -0.1798377
  -0.7404766   0.5550408   1.1371806   1.4108729  -0.3415937   0.1141054
  -0.0275868   0.2616471  -0.1617123  -0.9917385   0.5215145  -0.7086198
  -0.6843177   0.9849566   0.1235898  -0.0269212   0.5267653  -0.0553690
   0.1981996  -0.0422515   0.6826353  -0.0433910   0.7358795   0.5080345
   0.1032074   0.3405684  -0.3630802  -0.8811482  -0.8498321  -1.8232654
  -0.5952264  -0.8295733  -0.0881630  -0.1646572  -0.2141178  -0.3681893
   0.3300690   0.3938278  -0.7683994  -0.2964109  -0.1994551   0.2797792
   0.2075923  -0.1090643   0.0184789   0.4376656   0.7676022   0.7948895
  -0.5709003   0.9428618  -1.0235757   0.1119237  -0.0647720   0.0791516
  -0.8646113   0.7008449  -0.2048293  -0.9225866  -0.4495070   0.0362847
   0.2366860   0.0823407  -0.2121902  -0.5990867   1.1666609  -0.7456494
   0.7377700  -0.0623166  -0.0275975  -0.2749840  -0.1811426  -0.1539478
   0.6097000   0.4840879  -0.5667408   0.8221617   0.9902876  -0.6415346
   0.0135623   0.1131326  -0.1642990   0.4801228   0.3353826   0.8630631
  -0.3707198   0.3870487   0.2380218   0.0285727  -0.0808744   0.0984983
   0.5405767  -0.1828829   0.0565730  -0.8422592  -0.1343670  -0.3006059
  -0.1125969  -0.1129692   0.1066199  -0.6097245  -1.0908768   0.2560968
  -1.2378775  -0.6956495   0.5275894  -0.0953214   0.0784290  -0.0097892
  -0.1924371   1.0510976  -0.4277438   0.9548536  -0.3448261   0.4441964
  -0.1528812  -0.0612217   0.2338388  -0.4126789  -0.7518250   1.2134571
   0.1105646   0.8740835   0.0678986   0.2537806  -0.3550863  -0.2752997
  -0.0240472   0.7112133  -0.4220630  -0.3323458   0.8007514   0.8680614
  -0.0511215  -0.0682478  -0.2889959   0.7701134  -0.7152784   0.2081139
  -0.6017789   0.5229698  -0.6075504   0.2280636   0.2738894  -0.0677240
   0.8976889   1.2709300  -0.3304268  -0.3697955  -0.2345090  -0.2084538
  -0.2274870   0.2739903   0.2038548   0.3552270   0.0145960   0.0404877
  -1.6635435  -0.3452389   0.2532033   0.1894156  -0.2522900  -0.0339761
   1.0237999  -0.7622241   3.2089906  -0.0141976  -0.5242445  -0.7476979
   0.2600814   0.0679036  -0.0912452  -0.0377857  -0.7411429   1.2121115
  -1.3047071  -1.2454615  -0.4932659  -0.2473849   0.1805532  -0.2386295
  -0.0558894   0.2467968  -0.0081056   0.6625763  -1.2299121  -0.0499843
   0.1754088  -0.1820841   0.0542366  -0.5489447   1.8162625  -0.4123592
   0.0045162  -0.5452430  -0.7587492  -0.0567946   0.2953325  -0.0749420
  -1.2514137  -0.4811166  -0.1715209   0.9975329  -0.2572771  -0.9466156
   0.1174629   0.1625650  -0.1211428   0.9503990  -0.0279498   1.3371537
  -0.1354559   1.3885209  -1.0417869  -0.0974592   0.1198780   0.0342539
   1.5476404   0.7146840  -1.5130849  -0.5784245   0.0095910  -0.6463630
   0.0330641   0.1161223  -0.5246635   1.1752196   0.0356428  -0.0855114
  -0.5216505   0.7174823  -0.9626498   0.2587921  -0.0772409   0.1507043
  -0.8980133   0.0117492  -1.3605395  -0.1682885   0.9919275  -0.4485620
  -0.1906958   0.0902426   0.1790635  -0.5474246   0.0261359   0.6184636
   0.3819093  -0.4678465  -0.1682203   0.1473165  -0.1201811   0.1998266
   1.1306696  -0.4795852  -0.8845690   1.6938585   0.4642624  -0.9749383
   0.0481482   0.4416856   0.3434805   0.0715058  -1.8633043   0.5674921
   0.1000610   1.4400785  -0.1020623   0.2484974   0.3271586  -0.0645887
  -1.5021048   0.4800459   0.5795189  -0.0993742   0.2444534  -1.4391659
  -0.1486804   0.0519045  -0.0372227   0.9727689   0.6836036   0.4310457
  -0.7108523  -0.5588285   0.1227283   0.1859302   0.2017531  -0.0523377
  -0.7159477   1.4977124   0.0067169  -0.3773530   0.0215948  -2.2826486
   0.1709607   0.0590933   0.0483013  -1.6743540  -1.2067526   0.3380780
   0.1854432   0.5365296   0.1125220  -0.1117011  -0.0758007  -0.0156158
   0.0950711  -0.4925439  -0.0028601   0.4686740  -0.1353695   0.5558572
   0.2724147  -0.2011815   0.2720066  -1.0143392  -0.6420488  -0.4023519
  -0.0713695  -0.9660393  -0.4314582  -0.1261388  -0.0779754  -0.2178855
  -0.9635721   0.9885303  -0.0771741   0.0103555   0.5027010  -0.3808424
   0.0220418   0.1357135   0.0303751   0.1256213   0.5860222   0.5374977
   1.1858942   0.3885587   0.6282546  -0.4908638   0.2147013   0.2373452
   1.5522649  -0.5554083   0.2307538  -0.2980590  -0.3277930  -2.3347017
  -0.4899737   0.0557059  -0.0313358  -0.0690814  -0.4762106   0.8757657
   0.8789079  -0.4150941  -0.5738917  -0.4051832  -0.4146388  -0.1316525
  -0.0072442  -0.5837953  -0.9033913   0.9435168  -0.6578156  -0.1445704
  -0.1114706  -0.0966582   0.1160185   0.3915536  -1.6125634  -0.3229395
   0.3287935  -1.1808657  -0.7807488   0.3037961  -0.0698011  -0.0606311
   0.9547425   0.3838424   0.1353221  -0.7225877  -0.0096338  -0.8026217
   0.3509447  -0.1096166   0.0728805   0.5602984  -0.0361908  -0.0656740
   0.1227527  -0.7157750  -0.6018859   0.0585305  -0.0867203  -0.1946030
  -0.6093758  -0.3371357  -0.6802020   0.4235983   0.5763416   0.4394516
  -0.1496478   0.2224935  -0.2036467   0.9340495   0.6955026   0.7838242
  -0.5438693   0.2492304   0.2871317  -0.0233376  -0.3443795  -0.1500069
  -1.5270789  -0.5010378  -0.3565720   0.8780014   0.1016667  -0.0819064
   0.4578428  -0.0622452  -0.1860987  -1.0750552  -0.8225798  -0.3106271
  -0.2631901   0.6441261  -0.4985975  -0.1090458  -0.4576434  -0.3025436
   0.7695608   1.4453009  -0.8668115  -0.6274328   0.5775519   1.4652827
  -0.1284433  -0.8204184  -0.0614152   0.8321885  -0.1701437   0.6570922
   0.7206408  -1.1839040   0.8485589  -0.0593942  -0.0747057   0.0436839
   0.3683913   0.7857540  -1.2851857   0.9601290   1.8286209   2.0714465
   0.1523736   0.1889598   0.0166168  -0.3654277   0.5884689   0.1865416
  -2.3236885   0.5339746  -0.6091212   0.1500520  -0.1628145  -0.1443988
  -1.0735959  -0.1112497  -0.0054370   0.0405507  -0.9267829   0.7863728
  -0.1723273  -0.3727934   0.0282705  -0.1213303   1.0649499  -1.2290734
   0.7339703   0.1530597  -0.0408008  -0.2161126  -0.2433808   0.2882151
   1.5381565   0.4351592   0.6704172   0.4159600  -0.4669861  -1.5422368
  -0.2273506   0.2762331  -0.0961826  -1.0514104   0.2497632  -1.1031634
  -0.3261457   0.9598514  -1.6664799   0.0764992   0.1702304  -0.0018160
  -1.0490951  -0.1090083   1.7649129   0.1601622   0.6423570   0.0800349
  -0.1547067  -0.0378851   0.0590666   0.1836111  -1.0131054   0.0844755
   1.4957525   0.2264530   1.3776671  -0.0706601   0.2778445  -0.0877038
  -0.2337587   0.2254800   0.4184991   0.6817124  -1.0488087  -0.5488964
  -0.1770909  -0.4339117   0.0675905  -1.0149340  -1.3642406  -1.7283594
   0.3701764   0.3333998  -0.7861735   0.1129209  -0.0855983   0.0818901
   0.2879334   0.3948249   0.0063607   0.6335970  -0.8205624   0.1079058
   0.1333841   0.0364355   0.1333690  -0.1081099   0.6742482   0.4494693
  -0.1167829   1.0383572  -0.8472975   0.3226134  -0.4548124   0.1069972
  -0.6021018   1.1108491   0.9471521  -0.1899054   0.0615321   0.7842639
  -0.1676831   0.1445338  -0.0037210  -0.8327783   0.2537547   0.7547989
  -0.3220865   0.1933350   0.1266103  -0.0471080  -0.3003492  -0.3850023
   0.7711703  -0.8713892  -0.1935576   0.9219262  -0.0069201   0.4770188
  -0.2372054  -0.0091369   0.0345097   1.1586625  -0.8711794   0.3006485
   0.4008762  -0.3016049  -1.2124958  -0.0786682  -0.1988015   0.4234941
   0.5646646  -0.4280511  -0.0307452  -0.4601083  -0.8881653   0.6346374
   0.0037138   0.0900610   0.0221907  -0.3253801  -1.8838749  -0.9367126
   0.1456370  -0.3443760   0.2316912   0.1774367  -0.1234414   0.3686299
  -0.1162466   0.8306839  -0.4794152  -0.7604093   0.2638450  -0.0030796
   0.1865606   0.1870753  -0.0624684  -0.6853422   0.0886154  -0.7624413
   0.8591044  -0.5626009  -0.1049860   0.2237291   0.1071220  -0.0128304
   0.2270743   0.5336569  -0.7057910   0.4367528   0.8877427  -0.7928594
  -0.2340015   0.1922062   0.3397247  -1.0632599  -1.0161005  -0.4589160
   0.1547522  -0.1079754   0.4541152  -0.0819585  -0.1200025   0.2937528
   1.2549246  -0.3579105   0.4379293   0.4611831  -0.0431704   0.2846868
   0.4603596   0.1939224   0.1917083   0.4338297   0.4796046  -0.4184514
  -0.6624272  -0.5355204   0.6194546  -0.2695135   0.2054758   0.2208305
  -0.1584733   0.5173578  -0.7017012   0.9104371  -0.0106182   1.2666620
   0.2169851   0.2831491  -0.1496127  -0.9439140  -1.4536346  -1.0550951
  -1.2667830  -0.0625379  -0.6801521   0.0718073  -0.3138254   0.0454075
  -0.5679148   0.6643430   0.8475321   0.9148790   1.3376744   0.0242355
  -0.1583694  -0.1296580  -0.1324575   0.3097991  -0.9830804   1.2416129
   0.9674009  -1.0509719   0.3635800   0.1566961   0.1572996   0.5188266
   0.2697740   0.8213237   0.1652452  -0.2658728   0.4216495   0.6806870
   0.2419882   0.0029119   0.1706752  -0.7384476   0.6956470  -0.6210174
   0.0422599  -0.4195305  -0.8929210   0.1111635  -0.0854118   0.0357251
  -0.4688038  -0.9357708  -0.4848279  -0.4124624   0.5138070   0.6190101
  -0.1736682  -0.0088293   0.3577888  -0.5274062   0.7047669  -0.7123233
   0.0044215   0.4126600   0.4989548   0.1436610   0.3505158  -0.3980898
   0.3165214  -0.9404285   0.7182206   0.3158745  -0.2982671  -0.6563059
   0.1338408   0.1097177   0.2588362   0.9254813  -0.9737781  -0.9201877
   0.5528403  -0.1335853   0.8432753   0.1207639   0.2982950  -0.0723859
   1.4785206   0.6321495   0.5397257  -0.1745545  -1.0968893  -0.0626661
  -0.2217741   0.2548893  -0.2348330  -0.2061401   1.2026654   1.4710528
   0.3530473   0.6676646  -0.0051863   0.2017102   0.1676362   0.1130177
   0.4146330   0.5197290  -0.0638849   1.1488964   1.5074417   0.8659924
   0.0628768   0.1671064  -0.1980876   0.1090158   0.2218677   0.6032563
  -1.0463189   0.1589697   0.3699291   0.0322437   0.1677382  -0.0913687
   0.0958408   0.2684109   1.3234048  -0.2553458   1.0287203  -0.7869617
   0.3145268   0.2672203  -0.1746356   0.5196019  -0.5897483   0.0850772
   1.1423822   0.4397429   0.4905551   0.2497825   0.0193028   0.0782486
  -1.3734165  -1.4040902  -0.9903000   0.1766280   0.6220415   0.3328622
   0.0324100   0.0773552   0.1493299   0.3831071   0.8349368   0.4647522
   0.0112025   1.6337745   0.3994456   0.0577503   0.3110595  -0.1546598
  -1.2404715   0.4023715  -0.4130746  -0.0898208   0.1109810  -0.7350810
  -0.1100239   0.2267506   0.4254031  -0.7377644   0.4579419  -0.3570825
  -0.4977624  -0.5967198   0.8591669   0.1397722  -0.1344387   0.2136275
   0.8464225   1.7354535  -0.8506208   1.6487012  -0.1255868   1.1014710
   0.1627756  -0.0710259  -0.0605427   0.2678581   0.6855926   0.6341529
  -0.3508768  -0.1688453   0.7742373   0.1065014  -0.1256872   0.2988600
   0.3975708   0.6278104  -1.6539201  -0.1522589   1.9009435   0.7159055
  -0.0986181  -0.0444870   0.1152372  -1.1337822  -0.1966731  -0.8006922
   0.9779413   1.0268818  -0.1300053  -0.1186833  -0.1713401  -0.0223214
   0.1209312  -1.1706641  -0.6010773   1.0202827  -0.1753184   0.2529220
  -0.0684431   0.0169647   0.1537097  -0.3201917  -0.2415556   0.3489306
  -1.3435824   0.8326499   0.2090125   0.0377217   0.0126370   0.2767027
  -0.6406609  -0.1921403   0.2019429  -1.4109435   0.5830104   0.8468369
  -0.0610901   0.0193083  -0.2937252   0.0942160  -0.3826323   1.9249231
  -1.1195329  -0.8790988   0.5111920  -0.1840384   0.0434203   0.0864503
  -0.9495157  -0.6962817   0.0544936  -0.6852001  -0.2982894  -1.0973653
  -0.3670279  -0.2130230   0.1816372   1.2232962  -0.1476641  -0.2556933
  -2.1362857   0.3285329   0.3568376  -0.0272913  -0.1135136   0.0345849
  -1.0660317   0.4028789   0.0614183  -1.9788876  -0.1752590   0.9942018
  -0.0362981   0.0737413  -0.4072284   0.7706043   0.1224100  -1.4354964
   0.0306148   0.3548875   0.1136167  -0.2347095  -0.0420591  -0.3345150
   0.4118154   0.2497187  -0.7000999   0.5162468   0.2953727  -0.7407128
   0.0115860   0.0814371   0.0835674  -0.7128299  -0.2536501  -0.5029566
   0.2036868   1.6056790   1.1448417   0.1258390   0.1797911  -0.0563458
   0.4086218   0.5011159   0.7814886  -0.6829879  -0.7344970  -2.6068881
   0.2017692  -0.2862038   0.0715063  -0.1298916  -0.6292054   0.6530484
   0.6102041   0.3112397  -0.0436387  -0.1101081   0.2802114  -0.1239544
  -0.8813576  -0.8342581   0.9699131  -0.7445402  -0.2290194  -0.1969658
   0.2470037  -0.0656692  -0.2771063  -1.6446327   0.6806717  -0.4864115
   0.9441403  -0.3982242   0.5551332  -0.1242461  -0.1079897  -0.0269974
   0.4858649  -0.6477891  -0.0528487  -2.1223498  -0.6926861   1.2351135
  -0.3448049  -0.1472509   0.0324344  -0.6936962   0.0296784  -0.0313073
  -0.2012778   0.7596804   0.0391122   0.0839890   0.2835153  -0.2942084
  -0.9791408  -0.6001631   0.2664897  -0.1266579   0.0895790  -1.2014380
  -0.1778791   0.0149616   0.1217942  -0.1082402   1.2583980   0.1096430
  -0.8126368  -1.3259262  -0.9751185   0.1412646   0.0221409   0.0231782
  -0.8562980  -1.0860390  -0.3671088   0.2677936  -1.4062572   0.9992646
   0.0085855   0.2123566   0.2123718  -0.4818237  -1.3863401  -0.7052493
  -1.4563459   0.1745089   0.6821374  -0.0791299  -0.3040527   0.1267695
   0.9934047   0.4577748  -0.5317487  -0.0614183  -0.7154683  -0.0376229
   0.0241335  -0.1404718  -0.1531743  -1.2005209   1.1094078  -0.1558557
   0.5344516  -0.3472780   0.7390468   0.0351659   0.2275363   0.0574497
   1.1489725  -0.3921818  -1.3189669  -0.6997288  -0.5606162   0.5051065
   0.0207889  -0.0804928   0.2072004  -0.8902726   0.3392035   1.0562408
   0.2218436  -0.8007736   0.6978044  -0.1088039  -0.1906162   0.0832351
   0.0601533   0.6645925  -0.1619960   1.0892124  -0.9635904   0.4212436
  -0.0635478   0.1817225   0.1269542   0.5689187   1.0564994   0.1840716
  -0.8567240   0.1943231   0.2445994  -0.0515537  -0.0760986  -0.4736545
  -0.7413819  -0.3673461  -0.4909634  -0.2189338  -0.4896432   0.6651973
   0.2040595   0.0359855  -0.1430168   0.4691610  -0.0279715  -0.0568026
  -0.0593778  -0.4251362   0.7638749  -0.0619227  -0.2174954  -0.2889973
   0.9741754   1.1235699  -0.0073243   0.8187206  -0.6385472   0.5133862
   0.0638771  -0.1008316   0.3996328  -0.6777494  -1.3915377  -0.9428872
   1.0653388   0.7347290   1.2379939  -0.0497577  -0.1382698  -0.0312345
  -0.9736521  -0.6117311   0.6696718  -0.0915450   0.1654466  -0.4529026
   0.2275508  -0.4228896   0.0014333   0.1376464  -0.0518223  -1.0973495
  -0.4088563  -0.0367113   0.5671644  -0.0290353   0.2488353   0.0037893
  -0.1767639  -0.4390945  -0.6469949  -0.0493076  -2.0161180   0.0572560
  -0.2032450  -0.1586852   0.1524108  -1.0391452  -0.6756744  -1.1754205
   0.8192888  -0.2678336  -0.3000980   0.1475824  -0.0309156  -0.1705953
   0.2735324  -0.7483009   0.2594629  -0.0292138  -0.0468366  -0.7130566
  -0.3032889  -0.1038478   0.2073790  -0.1278088  -0.3839741   0.7059052
   0.1305349  -0.8085072  -0.7983775   0.1167969   0.0510200  -0.0759452
   0.0826254  -0.5993531  -0.4433010   0.2657421  -0.4939936   0.1009520
   0.0351384  -0.2654540   0.1935727  -0.8161165   0.2751072  -0.8945975
   0.1608710   1.2831041  -0.2268775   0.3321770   0.1305757  -0.2040714
   1.3013613   0.4001236   0.9910186   0.6284896  -0.1020847   0.5784392
   0.0615891   0.0584760   0.2042264  -0.1717140   0.7695980  -0.8672923
  -0.5532613   0.7183392  -0.4593211  -0.2091100  -0.4066240  -0.2077653
   1.4372034  -0.4678040   0.2881965   0.2415216   0.2790702  -2.1177488
   0.0160121  -0.0211675   0.0640095   0.2005609   1.3479566   0.0106314
  -0.3690991   0.5645609  -0.0269075   0.1112051   0.1694734   0.2467639
  -1.3658245   0.2554023  -0.1053238  -0.1827081   0.7856193  -0.0816178
  -0.0150037  -0.1682817  -0.0921946   1.3420331   0.4014663  -0.6655025
  -0.5566015  -1.3018409   0.4193357   0.0922574  -0.0289236   0.0114828
  -0.4679192   0.3094938   0.3813423   0.5624838   0.0208560   0.1739232
   0.0794348   0.1044087   0.0957910  -0.1173185  -0.3892259   0.7664887
   0.6108182   1.0579776  -0.4104045   0.1197675  -0.1576926  -0.2142108
   0.9524208  -0.2382799   1.5334387   0.1091301   0.0332074   1.1705552
  -0.1876486   0.0431108   0.2269993   0.2916412   0.5318496  -0.9640612
   0.6660630   0.5701499   0.9426531   0.0394264   0.3073291  -0.0336509
  -0.0141753   0.1445998  -0.2154882  -0.1857591   0.6096615  -1.3169273
  -0.4341528   0.0139162  -0.0553830  -0.3557722  -1.2370502   0.7299700
  -0.1485902   0.0364969  -0.0429953  -0.0459302  -0.1555350  -0.1409002
  -0.0214602   1.3564145   0.8238085  -0.2994053  -0.8374475  -1.5978050
  -0.0361201   0.0520047   0.4592140  -0.7364226  -0.1888369   0.4758865
  -1.3887691  -1.3023918   0.1586131  -0.0516510   0.0022179   0.0068429
   0.0323076   0.6176341   0.8079949  -0.5324929   0.4358233  -0.7058401
  -0.3311985  -0.0018909  -0.1585185   0.4681234   1.0910936   0.2885092
  -0.4315202   0.0967961  -0.4373800   0.1373300  -0.2842645   0.0327631
  -0.7577963  -1.0554777  -0.2253131   0.9688940  -0.5809608   1.8844502
   0.0681617   0.2697304  -0.0374347  -0.1537616  -0.5004975   0.2424999
   0.5286081  -0.9576063  -0.0766559   0.0145190   0.0296088   0.2048129
   0.7218556   0.1813633  -1.2628399  -0.6677937  -0.9187755   0.1286201
  -0.0866904  -0.2943262  -0.0253226  -0.7963417   0.4969867  -0.4156896
  -0.7322961   0.1764317  -1.6008452   0.1684558  -0.2820126   0.0983798
  -0.4400785   0.1849635  -2.0365336  -0.3407372   0.5458940  -1.9126069
   0.1635583  -0.1713173   0.3082152  -0.3998814   0.0478902  -0.1696948
  -0.4049065   0.2127391  -0.0580276   0.2824834  -0.1929177  -0.2236948
   0.1193535  -0.5703114   1.1856933  -0.4892678  -0.9671459   0.6269558
  -0.1559349   0.2468027   0.2663988   0.3642333   1.0158776  -1.2790730
  -0.3520741   0.2571413  -0.0827438   0.0441534  -0.2288548  -0.3832629
  -0.8239757   0.0419876   0.6536505  -0.4040068  -0.1205611   0.5733046
   0.1439352  -0.1348718  -0.0186470  -1.0983020  -0.2124375   0.6397284
   0.5694278   0.1232554   0.9066738  -0.1426420  -0.2527032   0.0840726
  -1.5280727   0.1497346  -0.8326710   0.4851897  -0.9472988  -0.3419305
   0.0476968   0.1405836   0.0162673   0.7250161  -1.5346947   0.7451843
   0.0979927   1.1240181   0.7466240  -0.0978205   0.1840188  -0.0790377
   1.1243002   0.4298226  -0.2362626  -0.2326212  -0.8652459   1.0872816
  -0.0836302  -0.3579054   0.1283923  -0.3663298  -0.0976098  -1.2493416
   0.5190780   1.5018504  -0.1244368   0.1786156  -0.0953410  -0.3129287
  -0.6125994   0.4364305  -0.4830171  -0.6202988   0.4238112   0.4243253
  -0.1241923  -0.0595815  -0.3686966   1.2100333  -1.0398416  -0.4348398
   0.6709309  -1.4156557   1.2316335   0.0831504   0.1824855   0.2679483
   0.1399774   0.2432851  -0.2166331   0.8376754   0.8112398  -0.9027210
   0.2442796  -0.0156802   0.0195145   0.6242476   0.1236763  -0.4101435
   0.8316649  -0.3791796   1.2538238   0.0394255  -0.1827471  -0.0185345
   0.2364645  -0.8093288  -0.5033539  -0.1580214  -0.8473053  -1.6491120
   0.0714715   0.2665649  -0.1055015  -0.4274559  -0.5261693  -0.6517680
  -0.4912309  -0.5770919  -2.5492161  -0.0903386  -0.1385694   0.1717448
  -0.5350825   0.6884265   0.4582084   0.8007696  -0.6536994   0.2896927
   0.0167429   0.2470393  -0.1202889  -1.0662086  -0.4281309  -0.9135961
   0.8267030   0.5394992  -0.4399580  -0.1840775  -0.2781943   0.0507528
  -0.1041962  -0.4834283   1.0001340   0.4860794   0.2536951   0.1532978
  -0.3177211  -0.5597244  -0.1651922  -1.7185250  -0.2129930  -0.8100397
   0.8194473   0.1720566  -0.0832396   0.1533698  -0.1719410  -0.1959284
  -0.4963057   0.8685064   0.3118059  -0.3716540  -0.7758195  -0.3623563
  -0.3242022  -0.2745173  -0.2139657   1.1979112   0.3121694  -0.2383015
   0.0301468  -0.5901007  -0.4562042   0.0871082   0.0245063   0.0354087
   0.5225957  -0.4725041   0.8692909   0.3267575  -0.8675450  -0.0367444
  -0.0453683  -0.1238293   0.0936730  -0.6760032   0.4525164  -0.3309301
   1.2912483   1.1790469   1.6250846   0.1797270   0.0443377  -0.2760048
   1.9944145   0.4993232  -0.6942411  -0.3363858  -1.8283787  -0.6804900
   0.2485059   0.1941090   0.0785159  -0.4135912  -0.3148663   0.3987005
   1.5674007  -0.5748302   0.0910454  -0.3094510  -0.1581993   0.0872583
   0.0522160   1.1302809   0.6066344   1.0397274  -1.2706403   0.3609381
  -0.2665026   0.1872294  -0.2011601   0.2282049   0.4041922   0.7451159
   1.1991456   1.1765655  -0.0253875  -0.1195684  -0.1337816  -0.1985130
  -0.0150499  -0.6394715  -0.8012041  -0.9263963  -1.2706145   0.1887990
   0.1416741   0.2360843  -0.0687408   0.5100374   0.8816855  -0.1418566
   0.0348081   0.6389327  -0.5696804  -0.2142136   0.0809519   0.1379433
  -0.3122440   0.2451976   0.0842115  -0.4738156  -0.8143072  -0.0022144
  -0.0439555   0.2421517   0.1596341  -0.7615562   0.6515471   0.2508478
   0.0457285   0.8731464  -1.5982331   0.2734884   0.0430334   0.0639321
  -0.3054800  -0.1630423  -0.3139960  -0.6431562   0.5836952  -0.0266319
  -0.2380490  -0.3532993  -0.1906136  -0.8023507  -0.3960168  -0.1413160
  -0.8111637  -0.0841122   1.0570470  -0.0263645  -0.0131341   0.0484723
   0.7400313   0.1740214   0.7670229  -0.0787532   0.0760393   0.1287045
   0.0479445  -0.2531381   0.0060186   0.2245454   0.1196079  -0.0423062
  -0.0228657   0.8317151   0.6480449  -0.4444042   0.0080146  -0.3049138
  -0.2043294  -0.2281107   1.2705272   0.5606143   0.9132057  -1.0798773
  -0.0690499   0.4567794   0.0959195  -1.2127933   0.3665466  -0.0264726
  -0.1947036  -0.0486359  -0.0611127   0.0462262   0.1322055   0.0176089
  -0.7754146   0.4361155  -0.4015479  -0.0675864  -0.8242921  -0.3259507
  -0.1256017  -0.1639596   0.0586672  -1.0272961  -1.0818664  -1.4260677
   0.0912685   0.2894017  -0.0027400  -0.0124821   0.2274100   0.1986875
   0.9924980   0.9793795   0.4211632   0.8303830  -0.6972667  -0.6366170
   0.0595316   0.0525564   0.0953087  -0.2721663   0.7361107  -0.2805382
  -0.0786183   0.5558858  -0.6196244   0.3756764   0.1552760   0.0206970
  -0.2413435   0.0719145  -0.7730705  -0.2958772  -0.3100522  -0.8522996
  -0.2187112   0.0319070   0.3971065   0.0888872  -0.0463834   0.2371413
   1.3945336  -0.0409665  -0.9567604  -0.0568059   0.1726465   0.1861537
   0.1261590  -0.3534416   0.1303643   0.9122154   1.1210326   0.0617320
   0.1122592  -0.1525303   0.4121546  -0.3317731  -0.9088556  -0.4450966
   0.3900150   0.3388240   0.8039833  -0.1762797   0.2771618  -0.1978826
   0.7086051   0.7720152   1.4531205  -0.3307189  -0.7547332   0.1322035
   0.1029108  -0.1573171   0.2444373   0.5357487  -0.6449224   0.5368721
  -0.2438669   0.4096816   1.2628443   0.1448015  -0.0828275   0.1112510
   0.9617174  -0.9414020  -0.5102423   0.3950794   0.7276006  -0.6326025
  -0.1594594   0.5399273  -0.2509110   0.6142402  -0.3029276  -0.3890403
  -1.4229363  -0.7647516  -0.3189072  -0.1753270  -0.1634057  -0.0615404
   1.0326464   1.4270292  -0.4525286   0.5393885   1.1097664  -1.1366583
   0.2518610  -0.2224556  -0.1952573  -0.6959389   0.1052202   0.6765909
  -0.9195041   0.6820665   0.1849798  -0.0185862  -0.1092796  -0.0805478
  -0.5609148   0.7844240  -0.9987208   0.9070544  -1.0088782   0.1777182
   0.1122220   0.0563090   0.2171854   0.2922630  -0.7946130   0.2298420
   0.7695723  -1.8094607  -0.9071077  -0.2543634   0.3881487  -0.1347857
   1.0434548  -1.0233522  -1.8458385  -0.4403505  -1.3347635   0.0964022
   0.0817138   0.1404264   0.1393363  -1.1942280  -0.0384534  -0.4140292
   0.3859208  -0.6770022  -0.1760378   0.2278342   0.0563976  -0.0459809
  -1.1086838   0.5138830   0.2857320  -0.7822090   0.0176753  -2.1390908
  -0.0420378  -0.0631134  -0.0157885  -0.3222188   0.2058065  -1.5002510
  -0.2841157   0.1685436   0.0826921  -0.0007534  -0.0862878   0.3484293
   0.3126425  -0.3135465  -0.4390055  -0.4264917   1.0171105  -0.2715528
   0.0211853  -0.1308763   0.0081438   0.7007277   0.3629713   0.1198319
  -0.9237331   0.8766432  -1.1270102  -0.0974967  -0.1991612   0.0620777
   0.0845291   0.2108764  -0.9438551  -0.2575215   0.9291921   0.5122363
  -0.2300335  -0.0805806  -0.3989090   0.7231877  -1.8393264   0.1903911
   0.8051800  -0.8808964   0.7006849  -0.0479345  -0.1902715   0.2436906
  -0.5462152  -0.0122670   0.9857756  -1.5180456   0.3468319   0.6658806
   0.1113761  -0.0948132  -0.1754031   0.0029848  -0.2915608  -0.4979291
   1.2162255  -0.0205717  -0.3961546   0.0896034  -0.0996897  -0.0283846
  -1.0412294   1.2418097  -0.5696294  -0.7828416   0.3715877  -0.1396996
   0.0961725   0.2430853   0.0481784  -0.0458546  -0.2378447   0.3247256
  -0.2396132   1.1127410  -0.5811208   0.1463218   0.2323375   0.1067556
  -0.0262405  -0.2085168   0.2874500  -0.2279737   0.2573551   0.3741839
  -0.1122279  -0.2966251  -0.1856835   0.8040730   0.2214889  -0.1545803
   1.5156844   0.7200053  -0.0016878   0.0147737  -0.1583875  -0.1292445
  -0.5505192   0.3117449   0.0283764   0.5835589  -0.3121322  -0.8739955
   0.0977170  -0.2462712   0.1845782   0.2583237   0.0182676   0.2719381
   0.0019311  -0.1101925   0.2206118  -0.5279507   0.0953280  -0.0251749
   1.0153384   0.4691484   0.7459901   1.5299450  -0.0739338   0.9245338
  -0.3364627  -0.0393162   0.1990841   0.0536240   0.2340468   0.2547087
  -0.0885484   1.7413637  -0.0712669  -0.0400449  -0.3022086   0.2068974
   0.1469964  -0.1823651  -0.6422922   0.4402217  -0.0543242   0.6202999
   0.0117752   0.0485630   0.4553785   1.0059492  -0.7692907  -0.3557045
  -0.7835056   0.0459572  -0.6286612  -0.2433672   0.0819753  -0.0107118
   0.0768619  -0.8670772   0.5392526  -0.1233421   0.0268341  -0.5712423
  -0.0488315  -0.0632175   0.0273446  -0.0283934   0.8229405   0.3329432
   0.4271930   0.3397810  -0.1226834  -0.1334051   0.0881212  -0.0690250
  -0.0522128  -1.0252693  -1.5550240  -1.7178715  -0.4351482   0.4975794
  -0.0077451   0.2686683   0.0675899  -0.0941841   1.1798115  -1.4472151
   1.0532719   1.0898632   0.4202860   0.2478278  -0.0821281   0.0649449
  -0.6698143  -0.4622105  -0.3631130  -0.7100184  -0.4199535   0.3333932
   0.0424163   0.0154757  -0.2232303  -1.1902179   1.2445860  -0.5769136
  -0.4264251   0.3206730  -0.2997557  -0.0198499   0.2376090  -0.1110806
  -0.0039655   0.0645423   0.1189063  -0.2702772   0.1942133   0.2253877
   0.0377637  -0.1511305   0.2918098   0.2692595  -1.3645915  -0.2051484
   1.3444873  -0.7998597   0.8481089   0.0081148  -0.1112615  -0.5918168
   0.1493359   0.3584369   1.4128891   0.1020554   1.1471032   0.7480131
  -0.0920092   0.0308351  -0.0574242   0.8333543  -0.4173691  -0.7535281
   2.0094927  -0.1370319   0.9407112  -0.1622779   0.0612142   0.4339058
  -0.2882991  -0.7938052   1.3088606   0.5231702  -1.1398991  -0.4526472
   0.0666356   0.2252716   0.0559646  -1.4895303   0.5303363  -0.0975630
   0.5179222  -0.9011840  -0.9113409  -0.0231762   0.0489120  -0.0837480
   0.0023755   0.3980767   0.0553087  -0.4467912   0.9020598   0.0942243
   0.3699672  -0.0691870   0.2676543   0.6376231  -0.1362403  -0.9276958
  -0.2995044  -0.5433689   0.1169512   0.0955692   0.0474042   0.1106073
   1.6684379   1.7212990   0.4864418   1.3126605  -0.9635181  -1.0965770
  -0.1442441   0.2650448   0.1295284   0.4991789   1.7239941  -0.8885193
  -0.0639775   0.5393379   1.0369932  -0.0044992  -0.1374290   0.0948219
   0.0303226  -0.8470192   1.9354282   0.4041832   2.0153848   0.8874911
  -0.1368012  -0.1391619  -0.0558935   0.7179479  -1.0802592  -1.3241461
  -0.2895255  -1.1698696   1.3673754  -0.0977109  -0.0930475   0.2496396
  -0.5319613  -0.8226827   0.3250508   1.5056327   0.7751598   0.7236449
  -0.1457622  -0.1120295  -0.0592661  -0.6701740   0.6406072   0.2149090
  -1.4074259   1.1898071  -0.8947567   0.2882196  -0.0597032  -0.0979824
   0.0068226  -0.0743804   0.5475018   1.3809496   0.0775752  -1.1197808
  -0.1860022  -0.1847548   0.0406387   0.3410300  -0.6861367   0.0107603
   0.5895508   1.1337433  -0.4740091  -0.2921984  -0.0034769   0.3586038
   0.4019879  -0.7663962  -0.0353842  -0.1311975   1.3659875   0.6498865
  -0.1391269  -0.0446875  -0.1980070  -0.2942688  -0.1159848  -0.2739950
   1.7648745   1.1374782   0.2390286   0.0514513  -0.1978071   0.0491233
   0.6221749   0.5036553   0.7404012   0.2757306  -0.3803621   0.3409393
  -0.0021793   0.2686096  -0.0631691   0.6254522  -0.6377778   0.4698578
  -0.2203026  -1.1251521   0.0915851   0.0875151   0.1204686  -0.0051050
   0.1619058   0.0967239   0.9092861   0.4629996  -0.0037749  -0.4687100
   0.1757883   0.1383868  -0.0451360   1.4105937  -0.4805575   0.6072499
  -0.0621776  -1.6843888  -0.7740624  -0.5022478   0.2041906   0.1262737
  -0.0188606  -0.2798722   0.3465256   0.8507265  -0.4949083   0.4575416
   0.1904234   0.0101923  -0.0877477   0.0774742   0.6433479  -0.7579074
   0.0904268   1.9216539  -0.2613922   0.0815903  -0.3222569  -0.0760134
   1.4337387  -1.1552569   0.6798434  -0.0326171   0.0372333   0.0400109
   0.1497413  -0.0870480  -0.0328426   0.6541549  -0.2290101   0.6451226
   0.6061133  -0.0984977  -0.5273950  -0.0753784   0.0919810  -0.2167825
  -0.1974617  -1.8834482  -0.6723792   1.3906087  -0.6010825  -0.4786704
   0.2156766  -0.0606792   0.1495728   0.9156417  -0.1301265  -1.2462078
   0.8408722   0.7773029   0.8634508  -0.2902725   0.3866859  -0.0527180
  -0.6165591   1.4286634  -1.1269811  -0.3490292  -0.1931124  -0.7634400
   0.4703906   0.0312562   0.1416423  -0.8499028  -1.0062712   1.6001720
   0.2265955  -0.7152039   1.1540097   0.1382895   0.0965957   0.0195512
   0.4678056   1.0374117  -0.2678633   1.2079739  -0.0404342   0.9788734
  -0.1459149   0.0036744  -0.1919280  -0.8566774   2.0491695  -0.2736937
   1.1460536  -0.0491206   1.1834746  -0.1431686   0.1034740  -0.2896400
  -0.3964418  -0.3919748  -0.0685393   0.3564174  -0.7803267   0.3465557
   0.0517924  -0.0458115   0.2939529   1.0029286   0.2194809  -0.2955790
   0.6037739   1.3736212   1.2632087  -0.0843419  -0.2098466   0.1750869
  -1.1248023   0.7785268  -0.1831833  -1.3396466  -0.0688801   0.0275311
  -0.0658787   0.4623301  -0.0287528   0.1949476   0.6638831  -0.2419429
   1.0108496  -1.2355194  -0.0100409   0.0800116   0.0573640  -0.1620146
  -1.2999098  -0.1007246  -1.3519843   0.0401270  -1.4065989  -0.4824534
  -0.5583455  -0.2653605  -0.0478309   0.1618606   0.2463659   0.0090703
  -0.1782307  -0.5445490  -0.7265710  -0.0068386   0.1394966   0.2369461
  -1.0556540  -0.5926115   0.9263177  -0.6215580   0.0959604   0.1429677
  -0.0534084  -0.0937468   0.0515938  -0.7682814  -0.8728132   1.3111847
  -0.7158036  -1.3702267   0.5779119  -0.0340454  -0.0943796  -0.3494747
  -0.1019402   1.2612902  -1.1955361  -1.0368283   0.1720548   0.2200732
  -0.0580810  -0.1083028  -0.0528489   0.5016488   0.2801551  -1.8206033
   0.1754588  -1.2806116  -0.3177394  -0.0211337   0.1299319  -0.1642597
   0.5844225  -0.5347935  -0.1167734  -0.3791378   0.3126508   0.1789803
   0.1327958  -0.1123239  -0.0194204   0.1819875  -1.2083844   0.2336496
   0.7987448   0.1844835  -1.4105338   0.0228055   0.0825858  -0.1151646
   1.4605782   1.3021600   0.3092398   0.3298482  -1.4106256  -0.5728814
   0.3063016   0.2543076   0.2888614   0.4562661   0.6686363  -0.4793653
   1.4570502  -0.2226738  -0.6143768  -0.1061255   0.1576433   0.1749056
   0.6733851   0.5038852   0.6610659  -1.6388386   0.4840377  -0.9839542
   0.0053077  -0.0333412   0.1950858   1.1158798   1.2246522   0.1670307
  -0.2602782  -0.3084301   0.4321083   0.0895743   0.1565156   0.0883914
  -1.1317825  -1.0450953   0.2749897   1.6736994   0.6686721  -1.1111085
  -0.0377849  -0.1502256   0.2016490   1.2265927  -0.6161495  -0.8760586
   1.0442690   0.6026634  -0.7362236  -0.0947574   0.1741170   0.2167823
   0.4786989   0.0572953   1.4412310  -0.7448041   0.4670159   0.4436203
   0.0526113   0.2463014  -0.0787493  -0.5894368  -0.6715237  -0.4895479
   0.0087913   0.9732797   0.3372409  -0.0355524  -0.0406429  -0.4077625
  -0.3053798   0.9973889  -1.2247855  -0.2836099  -0.3395793  -1.9065051
  -0.1287300   0.0799426   0.0772376  -0.0564480  -0.3456764  -0.3199957
  -0.1064377   0.0083415  -0.7502781   0.1206269   0.0847930   0.0088485
   1.7220770   0.1687402  -0.0878931  -0.7061243  -0.4226839  -0.4115499
  -0.0858507  -0.1062039   0.1345928  -1.1393471  -0.1314768   0.3892924
  -0.3331802  -0.0077290   0.0930093  -0.0566493  -0.0327893  -0.0264322
  -0.3591824   0.3382641   0.0017922  -0.2680544   0.8070819   0.0255236
   0.2682998  -0.3040589  -0.1293757  -0.1606165   0.5397792  -1.2375986
  -0.4911797  -0.1550631  -0.6902074   0.0888301   0.1208162  -0.2111104
   1.3771303  -0.3887560  -0.0580394  -0.3269580  -1.6751426  -0.2831048
   0.0097921  -0.1174182  -0.1678415   0.8938327   0.8175251   1.0750387
  -1.4481415   1.7561761  -0.7513468   0.0654098   0.0826817   0.1255194
   0.7790143   0.5243771  -0.4864614   0.0798223  -0.2698725  -0.4244185
  -0.2217291  -0.2904842  -0.0544953  -0.8748270  -0.2663291  -0.0329306
   0.3426602   0.7048960  -0.3512063  -0.1398232  -0.1018093  -0.2719198
   0.1925256  -0.4815011   1.0163718   0.6933963   0.6760972  -2.1346147
   0.0635256   0.0960640   0.2537195   0.3686526   0.7990999  -0.1369802
  -1.4814672  -0.2877817   1.2010172  -0.0335727  -0.2701925  -0.2591027
  -0.0761662  -0.5073199  -0.8360314  -0.0932022   0.8192112   0.4056906
  -0.1088429  -0.0884986   0.1572466  -0.1690284  -0.7670788  -0.2672388
   0.5745082  -0.1158305   0.1209909  -0.1219204  -0.1231440   0.2339161
   0.7423579   0.6783428   0.1478806   0.8851506   0.0421473  -0.1371155
  -0.0739555  -0.0139958  -0.0173373   0.7941012  -0.5302914   0.8620978
   0.1851874  -0.1001205   0.1118365   0.0755169  -0.0975308   0.2710348
   1.7126585  -0.5585824  -0.8363268   1.0508388  -0.1602260  -0.7299429
  -0.0794542  -0.0339204  -0.0715683   0.1822692  -0.7074817   1.3053313
  -0.8382506  -0.1795162  -0.1744446   0.0311025  -0.2113846  -0.0475076
  -0.0360788   0.5898311  -0.2259725  -1.6805934   0.0297621   0.7674558
   0.1154363  -0.1655699  -0.2693359  -0.9467668  -0.3548662   1.4503030
   1.4714736   0.0305146  -0.1209076   0.4200446   0.0621537  -0.1114890
   0.8918278   0.6941777   0.3271416   0.1846398   0.3211949  -0.1182806
   0.0072841   0.2024335   0.1352381  -0.4935778  -0.2384920  -0.3312013
   0.8605242  -0.0898105   0.3503699   0.0414147  -0.1425647  -0.1018243
  -0.9646077  -0.6146542   0.2246988   0.4726162   1.5999221  -0.7856930
  -0.1409430   0.0497287   0.0058995  -1.7846445   1.0153343  -0.3519115
  -0.0831423   0.5843818  -0.5773315  -0.1749711  -0.0740990  -0.0785057
  -0.5156422  -0.3189576  -0.3189136   0.5352193  -0.1835005   1.0299041
  -0.2355879  -0.1152944  -0.2048845  -0.0682434   0.0381036   1.0896162
   0.4184452   0.3255335   0.5020953  -0.3343435  -0.2025973   0.1851480
  -1.4573893   0.1467599  -0.8128101   0.6403560   1.1388149  -0.0970338
   0.0770148  -0.0310696  -0.2770014   0.4553023  -1.0811696   1.1558608
   1.4937511   2.1436343   0.5303810   0.3549669  -0.1391701  -0.0002735
   0.2187481  -0.1554784   0.9259655   1.1891274  -0.1817988  -0.1367201
   0.0609761   0.1863285   0.1548027   0.1889362  -0.1193852  -0.6581164
  -0.5897023  -0.7829214   0.4140563  -0.1795885   0.0809114   0.0774084
   1.3009272  -0.3192472   1.4503606  -0.7916643   1.1361814  -0.0121279
  -0.0358028  -0.3584627  -0.0328745   1.6524566  -1.1852162   0.2855277
  -0.0321414   1.8682569   0.2805240  -0.1241392  -0.0511734  -0.0676014
  -0.9714052  -0.6720108   0.4161097   1.4831693   0.4292691  -0.0023020
   0.0816687   0.0278772  -0.3189146  -1.1982087  -0.0606172  -0.3448265
   1.8378769  -0.3758513   0.5260007   0.3216882   0.1467005  -0.1738658
   0.4953086  -0.3840003   0.5320155   0.2406825   0.3363017  -0.3224460
   0.2699870  -0.0648860  -0.2578737   0.4148332  -0.3483830  -0.8555845
   0.9127492   0.9518730   1.0067725  -0.0548470  -0.2405823  -0.3575559
   0.8466738   0.3717756   1.8108241   0.3041199  -0.0352935   0.2442454
   0.1554003   0.1019301  -0.3726113   0.9966258  -1.5738763   0.1804019
   0.1093953  -1.2564498  -0.3779665  -0.0225897  -0.1051166   0.0216438
   0.0636733   0.5149161   0.7786502  -0.7027421   0.2484284  -0.2287749
  -0.2678885   0.0427372   0.0645674  -0.1873155  -0.3750387  -0.7807363
  -0.8547936   0.8595951  -0.7461522   0.2159634  -0.0900665   0.1668060
   0.1694086  -0.0496552   0.2195993   0.6234951  -0.0469145   0.8779337
  -0.1191473   0.1420681   0.2544694  -0.9110161  -1.2767662   0.1858513
   1.3435447  -0.4273806   0.2924513  -0.0833297  -0.0438556   0.1145658
  -1.3864228   0.1700325  -0.0545830  -0.1487628  -0.1886086   0.2287855
  -0.0557812  -0.1952646   0.1015896  -0.6767606   0.8822072   0.1064960
  -0.5391418   0.0838438   0.6371760   0.1110493  -0.0350053   0.0486134
   0.3722380  -1.0183637   0.0083155   0.4649184  -0.7799814   1.6817306
  -0.0853654   0.2778993   0.0406339  -0.4453245  -0.6779520  -0.1157207
   0.3012639  -0.1686842   0.2235423  -0.0284783  -0.2266560  -0.0167496
  -0.5194487  -0.5411574   0.0854125   0.2035581  -0.6199100  -0.0368711
  -0.1518915  -0.1112010  -0.0029312   0.1754779  -0.5345424   0.5483764
   0.2213642   0.2256588  -0.5356324   0.0761135  -0.0219878  -0.1702282
  -0.3092179   1.1248663  -0.0896096  -0.9245273  -0.3289347  -0.7774675
  -0.0770253  -0.0328580   0.3549605   0.4203170  -0.2446952  -1.6513980
  -1.1524792  -0.3608174   0.5298385  -0.3343391   0.2712290  -0.0837465
  -0.3726909   0.1790499  -0.7950287   0.9805733  -0.8693814   0.4346689
  -0.0644908   0.2053360   0.2181743   0.2773879  -0.1967424   0.0695453
  -0.9117804   0.8169475   0.9713194   0.3100007   0.3300644  -0.0449975
  -0.1245859  -0.4174223   0.3117272   0.2228775   1.2489450  -0.0417224
   0.0450570  -0.1306453   0.1260016  -0.8933354  -0.3607168   0.4695604
   0.5776776  -0.6291573  -1.1664402   0.0800600   0.2611954   0.0991525
   1.2423805   0.4315885   0.1064028  -0.7753612  -0.2737015  -1.2933876
   0.0427267  -0.1730691   0.0630576  -1.7263893   0.4926360  -0.4640321
  -0.3871719   0.1156404   0.0039181  -0.0632397   0.2331602   0.0567553
   0.2197043   0.3171251  -0.1641633  -1.3504961  -1.5480670   0.3797091
  -0.3033250   0.3125021   0.1208440  -0.9339791  -0.8345168  -0.2598903
   0.0627921  -0.5548629   0.4587129   0.1197282  -0.1653337  -0.3872049
   0.4546803   1.2590874   0.7946972  -0.3214500  -0.2380638   0.3795934
   0.4867484   0.0803950   0.4278032   0.7086113   1.4909765   1.1199883
   0.1953944  -0.3990834   0.1076001   0.4338430  -0.0215136   0.0653077
   0.0028830   0.5137449   1.5706650  -0.4983906   1.4423153  -0.9942295
   0.2814823  -0.1526414   0.1615495   0.3257848  -0.8645003  -1.5615934
  -0.9120425   1.4387586   1.3588090  -0.2780472   0.1685036   0.0396031
  -0.0213604  -0.9373408   0.5706423   0.5739690  -1.2148923  -1.0833217
  -0.2418563   0.0487061   0.0507389  -0.6485628  -0.2409698   0.8585168
  -1.0773430  -0.9310404   1.4249962   0.1928650  -0.0718087  -0.0211066
  -0.9295355  -0.5350501   0.0330638   0.2117218   0.3335250  -0.6034805
   0.0108494   0.0968675   0.0343886   1.3043441  -0.2856125   0.5782203
   0.7380316  -1.2665369   0.5343517  -0.0467607   0.0062140   0.0915158
  -1.2831488   0.6775204  -0.0898179  -0.6995216   0.0922211   0.3918648
  -0.0940018  -0.1600816  -0.0791986   0.3882243   0.4559699   0.7877459
  -0.3496711  -0.2099333   0.2462111   0.3923360  -0.3284825  -0.0992419
  -0.9775709   0.8631726  -0.3795043  -1.2299742   0.1116552   1.3272045
  -0.5671375  -0.1333840  -0.1664679  -0.0327754  -0.8399826  -0.5251975
   0.8217451   0.6170469  -0.3239375  -0.0773894  -0.1801531  -0.0780597
   0.6342098  -0.6768328   0.0825971   0.3423129  -0.2148648   0.4150186
   0.1800027   0.0514865  -0.2092593  -0.9820270  -0.7143388  -1.1786592
   0.0665524   0.8554807   1.3850006  -0.1919758  -0.0453832   0.0659556
  -1.6166537  -1.0606647  -1.7087866  -0.1103952   0.2345580  -0.0847203
  -0.1970613  -0.2081182   0.0869775   0.1574131   2.5880106   0.8987288
   1.0737286   0.5621947   0.0033719  -0.0663254   0.0622723  -0.0631415
   0.2196517   0.4313011   0.1307893  -1.3739501  -0.7752120  -1.0320921
  -0.3333815  -0.1049760   0.0786861  -0.1541782   0.0780216   0.2700313
   0.4233857  -0.4808459  -0.1232053  -0.0714864   0.0885870   0.0330430
  -0.8206792  -0.0820663  -0.1771425   0.5398489  -0.4176271  -0.2473556
   0.1951178  -0.0683075  -0.0696908   1.1581338   1.8494589   0.2086033
  -2.1947742  -0.7653909  -0.8492290   0.0964124   0.0381827  -0.1569363
  -0.6933736  -0.8188887  -0.2088779  -0.9191489   0.0753996  -0.5261865
  -0.3500772   0.5235445   0.1547741   0.2191415   0.1615920  -0.2175174
   0.6490900  -0.1900603   0.7881085  -0.3050367   0.3061673   0.2798702
   0.8577077   0.8331389  -1.1364989   0.5710891  -0.1590685   1.0032049
  -0.0279068   0.3190536  -0.0791583   0.3496315  -0.6715770  -0.2218516
   1.1080584  -0.0849698   0.2719621  -0.1042070   0.3122046   0.0298402
   1.8218798   0.1370913  -1.1621826   0.0536331   0.8690849  -0.1099055
  -0.0478329   0.1869082  -0.0002021   0.8468003   1.7976450  -0.1453652
   0.8616757  -1.3483882   0.0089592   0.4159264   0.3296623  -0.0713285
  -0.2930444  -0.5090453   0.0226051   0.9027053  -0.5989642  -1.1341239
   0.0214390  -0.0887838  -0.0727802  -0.8685302  -0.3172628  -1.8168757
   0.0769231   0.2890685   0.7053336   0.0339016  -0.1596041   0.1473826
  -1.0418741  -0.0453234  -0.3361694  -0.6823952  -1.1316339  -1.4735511
  -0.2460796   0.0768297   0.0718100  -0.7115359   0.3254680  -0.4695365
  -0.0691384   0.2152925  -1.0845207   0.1352369  -0.2796106   0.0113006
   1.3304050  -0.5768726  -0.7293826   0.3715224   0.2450592  -0.8773707
   0.0490684  -0.1323024   0.1017977  -0.1821082  -0.2945036  -0.6125809
   0.2538785   0.1185515  -0.7211696   0.0594298  -0.0498937   0.1503010
  -0.2697163  -0.5808737   1.1693594   1.7217635   0.6561611  -1.0201118
  -0.1565813  -0.2268379  -0.0747138   0.3570522   0.8433725   0.1745457
  -1.6411297  -0.0437724   0.9691076  -0.3256462   0.2418721  -0.0071678
   1.0353955  -0.3660487  -0.1140600   0.4737478  -0.0487973  -1.2950528
  -0.0360893   0.1012235  -0.2688808   0.6961557   0.7452017  -0.4358850
  -0.2918631  -1.2719865   0.8858955   0.1106052   0.0923482   0.2587604
   0.4363662  -0.3460321  -1.2787557  -1.0425828  -0.6616714   0.6675569
  -0.0709359  -0.1340353  -0.0471636   0.4405234   0.8227625   0.1333498
  -1.0164292   0.5092713   0.6390680   0.0247798  -0.1076593   0.0311414
  -0.1782201  -0.2034821  -0.4902657  -0.3275706  -0.5940318  -1.4656770
  -0.1189810   0.0475280  -0.5082759   0.1203453   0.2121214  -0.1540818
  -0.2236795  -0.7951810   0.5553450   0.1063830   0.0193012  -0.6039968
   0.1560843   1.4459959   0.5398934   0.1997840   0.3480919   0.7818211
   0.2834111  -0.2005287   0.1704248  -0.0903662  -0.1308300  -0.7290049
   1.0160563  -0.4117459  -0.9484649  -0.0699030   0.2070230  -0.1773393
  -0.7477709  -0.2240830   0.0018124   0.1201065   0.5106066   1.7311098
   0.0658091   0.2134052  -0.2098583   0.3827553   1.0994243  -0.8386822
   0.3832927  -0.6912423   0.6615363  -0.0481901   0.1012724   0.2584775
  -0.8895104   0.3325708   0.0257183   0.2082124   0.6284684   0.7587599
   0.0915937  -0.0627086  -0.2927684   0.4389273  -0.2340279  -0.1858689
  -0.3373799  -1.2262637   0.8182187   0.0343596  -0.0524092  -0.0282428
   0.6540597  -0.8145616  -0.6388094  -1.3954865   0.1730887   0.8553454
   0.2317182   0.0275177   0.0221004   1.2856131   0.1372865   0.0310765
   0.6840918   0.5744634  -2.7011900  -0.2067235   0.0467585  -0.1618022
  -0.6611672   0.2086310  -0.6022630  -0.6242731  -1.0330654  -1.2879181
   0.1489848  -0.1457250  -0.0035032  -1.2486769  -0.3799976  -1.1774529
   0.4345805   0.4001452  -0.4345511  -0.1775000  -0.0645141   0.0432064
   0.1166483  -1.4787452  -0.4316520   1.0596020   0.6290780  -0.0890274
   0.1221207  -0.2232901   0.1346562   0.2181797  -0.5211600   1.3955835
   0.1255083   0.2800838  -1.0799700   0.0477603   0.2295874  -0.0291983
  -1.5304487   0.2595054   1.1101055   1.3055352   0.4042903  -0.6993544
  -0.0511654   0.1849108  -0.2541386   1.7764354  -0.7978121   0.2134570
  -0.9229845   0.6810815   1.2087248  -0.2538153   0.0157793  -0.2170663
   0.2166587   0.4704985   0.2340587   0.6685305   0.0954660  -0.5952687
  -0.0860948   0.0338895  -0.0423974  -0.2937563  -0.1128795  -0.3514639
  -0.3910012  -0.0909203  -0.9050312   0.1674222  -0.1691906   0.0637696
   0.0611186  -0.9501269  -0.4609161   1.4545558   0.8527984  -0.4302124
   0.1297968   0.0732955   0.0768157  -0.0031591  -0.0568500   1.3674758
   1.7694454  -1.4503066  -1.5607050  -0.2856083  -0.0545302   0.2350217
   0.3972477   0.4401891  -0.2887077  -0.1694980  -0.2375980  -0.6962627
   0.1013492  -0.1157968  -0.3031745  -0.2528369  -0.9918521   0.1606526
   0.5876935   0.6465999  -0.3461199   0.0897487   0.0284694   0.1938737
   0.1951518  -0.2736071  -1.1417163   1.5042777   0.4200030  -0.8418030
   0.2133077  -0.2559067   0.3621109  -0.4313964  -1.1527374  -1.0476571
   0.2067995   0.1149407   0.0461179   0.1699232   0.5012329  -0.0335634
  -1.0631050  -0.7370194   0.2058862   1.0199978   0.8823347  -0.6155809
  -0.0661248  -0.0526291  -0.1900467  -0.5566680   0.7932299   0.8614814
   0.3128965   0.1169117   0.0481670   0.3883050   0.0311495   0.2649405
  -1.7392342   0.4798229   0.8082064   0.0051607   0.4917790   0.0551570
   0.0583546  -0.3623588  -0.2844080   0.0654322   0.2888551  -1.7408990
   0.5662963   0.0662821   0.0280993  -0.2693722  -0.2772407  -0.3195074
   0.0982501  -0.4999009  -0.0819900  -1.1708945   0.5957100   0.6035507
  -0.2864363   0.0061539  -0.0252537  -0.2656372   0.0163183  -0.6717170
   0.2046143   0.8981913   0.2065593  -0.0817212  -0.0859706  -0.0952829
  -0.3100815  -3.3293664  -0.3006252  -0.9053255  -0.8012470  -1.1448054
  -0.1892735  -0.0178392  -0.0432582  -0.0702895  -0.6626102   0.8391891
  -0.1016877  -1.1070358   0.4397825   0.0479968   0.3246742   0.2563701
  -0.2607065   1.1861491  -0.7376791  -0.3534159   0.5880164  -0.6237850
   0.0562402   0.0033121   0.3543123   0.3214469  -0.6696424  -0.6583797
  -0.0922587  -0.3028543  -0.1300527   0.0380017   0.0619880   0.1819505
   0.7499720   1.4170607  -0.8377795   0.7171936  -0.4371686   2.0558530
  -0.1703401   0.0971080  -0.1231091  -0.7742512   0.5088912  -0.4551032
   1.7465867   0.8632800  -1.4068824   0.0943161   0.0795733   0.3332632
  -0.9046356   0.0149692   1.4331205   0.6758816   0.1953401   1.0348534
   0.0274123  -0.0880569   0.2337263   0.8872175  -0.9158820  -0.3862581
  -1.3628302  -0.6366057  -1.5873406  -0.0579797  -0.0796373  -0.1700494
  -1.4058485   0.0111602   0.9742947  -0.3288691  -0.0083118  -0.7587784
   0.0045635  -0.0217973   0.4416689   1.1796885   0.1462705   1.2173134
  -1.5771457   0.1759031  -1.1239740  -0.0318120   0.2869214  -0.0361170
   1.0749810  -0.1269129   1.6139371  -0.4473279   0.6929008  -0.7743375
  -0.0404232   0.0922003   0.0496375   0.1933604  -0.2350680   0.4806086
   1.1091259   0.9198255   0.5597796  -0.2938782  -0.2233147   0.1922780
  -0.1104481   0.6042787  -1.2202099   0.0927507   1.9668854  -0.7429392
  -0.0885869  -0.0144060  -0.2350282  -0.4261457   0.1197671   0.6123091
  -0.4311903  -0.2186961   0.5492117   0.1636931   0.1515885   0.1749567
  -0.4849930   1.1600026  -0.0318180   0.0555212   1.6282907   0.6216327
  -0.1530990  -0.1592684  -0.0357084  -0.6101633  -0.7168461  -0.1075665
   0.1882630   0.7550605   0.4140759  -0.1956875  -0.2035442  -0.4555674
   1.4451640  -0.0099719  -0.0915891  -0.5869370   0.1269697  -0.8181998
  -0.4313383   0.0317699  -0.0422990  -0.3589108   0.5487225   0.3196058
   0.5928874   0.6517164   0.0769799  -0.2949702  -0.1131124  -0.1911631
  -0.2056734  -0.0133454   1.5347016  -0.1086294  -0.8549719  -0.7737346
  -0.1030726  -0.0054786   0.1933716  -0.8781577  -0.3205012   0.2495979
  -0.8716399  -0.3430718  -0.0301665  -0.1341646  -0.1573733  -0.1383522
   0.2221366   0.4418659  -0.9651159  -0.6944709   0.0456873  -0.2686996
   0.2156441   0.3267985  -0.0443850   0.4677800   0.6731146   0.7088590
  -0.5341563   0.4585710   0.2120076  -0.0290927  -0.1552732  -0.2257759
  -0.8358390  -2.0270743  -0.0488745   0.6681547  -1.1013611   0.5129879
   0.0010110   0.0933262  -0.0127700   0.7073840  -1.3329213   0.1478070
   0.1957175  -0.7652539   0.0910660  -0.0135133  -0.1487811   0.1582085
  -0.3045105  -1.7197375   0.3680983  -0.7737579   1.3057771   0.6725010
   0.2480318   0.0301492   0.0185110   1.0029896  -1.3354669  -1.9812451
  -0.0826448  -0.2498383   0.2945165  -0.1270227  -0.2603745   0.1134161
   0.4202518   0.8518045  -0.0745193   0.8594676   0.5550465   0.8177195
  -0.2639775  -0.0541791  -0.0386931  -0.5257112   0.5376214   0.6806216
  -0.7166437   0.6846103  -1.3512053  -0.1242335   0.1018242  -0.0185612
  -0.7339704   0.7684407   1.0643866  -1.5362250  -0.5232684   0.6489360
  -0.0179640   0.3035182  -0.0351991  -0.1475764   0.4606499   0.0614422
  -0.8823795  -0.2080317  -0.6316442   0.0095806   0.2223572  -0.0012065
   1.1607569  -0.0308678  -1.1825407   1.3238018  -0.3221418  -0.4871401
   0.0724760  -0.4940101  -0.3474199  -0.1854815  -0.1554616   1.0640659
   0.7997272   0.6243281  -0.8945333  -0.1951173  -0.2542393   0.1601305
   0.7309369  -0.0308855  -0.1022307   1.3930463   0.4838302   0.4653103
  -0.1226103  -0.1336946  -0.3309730   0.1687338  -1.0426693   0.1447035
   0.4408657   1.4422532   1.5541458   0.2359856  -0.2120885  -0.1523777
   0.5083817   0.2328398  -0.7961910  -0.1314066   0.1595355  -0.0340099
   0.2516226   0.1008762   0.2272441   1.3854183  -0.1328924  -0.5806886
   0.9070525   0.4157348   0.0249757   0.0961002   0.2050651  -0.0824537
   0.0574388  -0.8075194  -0.2011835  -0.5560472   0.7584343   0.6626125
   0.2198428   0.0075578  -0.1090293   1.1140592   0.3747102   1.3094642
  -0.1865047  -0.4597072   0.5756284   0.0844331  -0.1880584   0.2917838
  -0.2642208   0.1865384   0.2447548   0.5053166  -0.3216716  -0.9729279
   0.1035673  -0.0227308   0.0455359   0.3158606   0.8555024  -1.2557538
   0.1267354   0.1217160   0.7926749   0.0325350  -0.2604351  -0.0074022
   0.9162384  -0.3233433   0.9302284   1.7267906   0.9142110   0.0671810
  -0.0218888   0.1716355   0.0490740   0.5303552  -0.7178319  -0.6721064
   0.4747423  -0.9832742   0.2646128   0.2870260   0.0792647  -0.0910832
  -0.3319443   0.5092524   0.1396087   0.5472980   0.2373832   0.6192559
   0.2021684   0.1629448   0.3006409  -0.0181882   0.6404739   0.5185244
   1.5160462   0.5168848  -0.5798324  -0.2558656   0.2251850  -0.2177396
   0.2614114  -1.3899462   1.0408060  -0.2263030  -1.1693240   0.2333535
   0.2851585  -0.1778515   0.0498989  -0.2144011  -0.0375265   0.2885773
   1.4126908  -1.0228124   0.3287369   0.0932045  -0.1933897   0.0606025
   0.6045795  -0.3860107   0.4265255  -0.6756893  -0.5645977  -0.5380816
   0.1673603   0.0438244   0.2891167  -0.3144297   0.9640769   0.1506829
   0.5717275  -0.0472856  -1.3381182   0.0972761   0.2581343  -0.2198161
   0.8654299   0.8163220  -0.2096154   1.1847767  -1.6268245  -0.2727530
   0.1571255   0.1825773  -0.2737102  -0.7443639   0.5507039  -0.1769406
  -0.8165096  -0.1340406   0.5840009   0.0483192   0.0826397  -0.0041188
  -1.2890435   0.5182940  -0.6820549  -0.8322380   1.7080961   1.2974808
  -0.2704481   0.0032729   0.3158196  -0.6831936   0.1094319  -1.1498526
   0.2071019   0.1195477  -0.0434793  -0.0718962  -0.0364571  -0.1921272
  -0.0041240   0.9176065   1.3699738  -0.8901957  -0.1417295   0.4947818
   0.0586499   0.1232336  -0.2185851   1.7217714  -0.0136230  -2.4878613
  -0.0621644   0.4161700  -0.1149187   0.0402771   0.2940898   0.1571072
   0.2349178  -1.1931404  -0.6196059   1.3279280  -0.0040712   0.8167303
   0.5877947  -0.0639175  -0.1868082  -1.3964685  -0.6474375  -0.4873336
  -1.3593921   0.4795569   0.8575055  -0.0074377   0.2739046  -0.0473888
  -1.2526129   1.1233993   0.0717869  -0.5509602   0.2709027   0.1517410
   0.1104089   0.2562674  -0.3620832  -0.2924612   0.4334405  -0.5780393
   0.0245564  -0.2505882  -1.1125966  -0.2841013   0.2245810   0.1411146
  -0.1001828   0.9785962   0.7617615  -0.0715146  -0.0667766   0.9114154
  -0.0693236   0.0638057  -0.1151037   0.5365982  -0.2203280  -0.6160614
   1.0773159  -0.1019054  -0.4813889   0.0392602  -0.2153371  -0.4736627
   0.2372450   0.0451448  -0.6297004  -0.0165595  -0.3546175   0.4006486
  -0.0716156  -0.3084497   0.0077703  -0.5529135   0.5805015   0.8025930
   0.6510292  -0.8952583  -1.2292827   0.0180535   0.0685397  -0.0184012
  -0.4778945  -0.3300349   1.9490861   0.1316058   1.0325361  -0.5316117
  -0.0908901  -0.0246494   0.3604624  -0.0819650   1.0155142  -0.9779432
  -0.5615395   0.1860879   0.9516276   0.0083802  -0.1913865  -0.2773081
   1.1517700   1.1884587  -0.2132958   0.1737790   0.8926829  -1.0411923
   0.2783015  -0.1100258  -0.4400311   0.6442100  -0.6355841  -0.4304123
   0.8177697  -0.0612931   0.5071590   0.0213851   0.2863521  -0.1201822
  -0.7677624   0.0898762   1.4086634   0.9549421  -0.3127587  -1.2839252
   0.2923380  -0.0254579  -0.0124346  -1.3227936   0.3933363   0.0513497
  -0.5760066  -0.6620827  -1.2425098   0.1314661   0.0175982   0.2122576
  -0.1428909  -1.0863170  -0.1952288   0.8028118   0.7801621   1.0055194
   0.1787885   0.2308704   0.0747130   0.5923420  -1.2857887   1.0136708
   0.6440333  -0.8641900   0.2267439   0.2557970   0.1078889   0.0480889
  -0.2360869   1.1462509   1.1562656   0.6276444   1.4442447  -0.0977520
  -0.0832817   0.1750984   0.1413258   0.0012204   0.5997311  -1.0607424
  -0.5890598  -0.5364950   0.8457928   0.0697845   0.2012139   0.1189094
   0.5977426  -1.1021502  -0.0970123  -0.2207765   0.8203889   0.3534980
  -0.0890792  -0.1214230  -0.4360561  -0.3279829   0.1731705  -0.0646937
  -0.6816732  -0.0286265  -0.2127822  -0.0521999  -0.1099778  -0.3351260
  -0.3865613  -0.9161263   0.2634807   0.6098475  -0.4946222   1.2050193
   0.0696070   0.2564587  -0.1018155   0.4889946   0.9924400   1.9567789
  -0.3224657   1.2074306  -1.1365321   0.1576521   0.1296664   0.1072620
   0.1674677   0.8564257  -0.1824370   0.2974498  -0.0963697   0.0236425
  -0.1700458  -0.0536172  -0.0442749   0.7138040  -1.3228860  -1.5815355
   0.3359960  -0.7539816   1.0876207   0.0995824   0.1159467  -0.1150871
   0.2469856  -0.7169634  -0.3233667   1.1800405  -0.2863613   0.7266479
   0.2036246   0.1076219  -0.2341811  -0.4151969  -1.1254633  -0.6080281
  -0.1504369   0.4504584   0.6163884  -0.0993545  -0.2555609   0.2421370
  -0.6243228  -0.8787596  -1.4526469  -0.5057866   0.6313344   0.9129982
   0.0469971   0.1814521   0.2594173  -1.2642786   0.0443776  -1.4306956
   1.1279647   0.1055511  -0.1436316   0.1486469   0.4200744   0.1236413
  -0.0011723   1.4957861  -0.7461563  -0.1492074  -0.1272548   0.8412446
  -0.0990155   0.0351719  -0.0496538  -0.2283374   0.6808971  -0.4738488
   0.9457630  -0.9796310   0.5760872   0.0921923  -0.0394329   0.2812071
   0.8595055  -0.9038283   0.1588733   0.1934713   0.1095201  -0.8056702
   0.2147504  -0.0681236   0.2238499   1.3538285  -0.6277562   1.0328672
   0.5530129   1.0292036   0.2188564  -0.1405619  -0.0897938  -0.1354324
   0.2124987  -0.9269109  -0.3745084  -0.3152767  -0.6761757   0.1757419
  -0.2414529  -0.2098643   0.0094737   0.0915574   0.6751127  -0.2998606
  -0.6333013  -0.5763956   0.9720354   0.1524688  -0.1890604  -0.1034284
   0.1658018  -0.2758728  -0.3708021   0.1765860   0.6305220  -0.7537880
   0.0732969  -0.2081461   0.2298946  -0.8858450  -0.1132165  -1.0606085
   0.1296143   0.6259530  -0.0547253   0.2466812  -0.1117484  -0.0438675
   0.7892332  -1.2680939   0.4905983   0.7012388  -1.0758430   0.1924049
  -0.0268403  -0.1380033   0.0740114   0.2831981  -1.2095819   0.1689874
   0.3611456  -0.5365327   0.6440086   0.1295107  -0.0785791   0.0901975
  -1.7463569   0.6039366   1.0814974   0.4322420  -2.0642646   0.2382548
  -0.2443415   0.1428313   0.1327918   0.2376175  -0.6695430  -1.3012292
  -0.6392823  -0.1195956  -0.0595824   0.1763004   0.0344305  -0.1533722
   1.1599284   0.6385979   0.7765175  -0.7009299   1.0168117   0.3900851
  -0.1169745  -0.0244998   0.0930697  -0.8095156  -0.1845148   0.3774953
  -0.2166730  -0.9077560  -0.4755082  -0.3680025  -0.0254782   0.2669567
  -0.9513511  -1.3058617  -0.7173964   1.3765254   0.6112601  -1.2017421
  -0.3830402  -0.1113676  -0.0100533   0.6089777   0.7249305  -0.2856727
   0.0347372   0.7671153  -0.4207909   0.3580237   0.0535980   0.0092643
   0.1201699   0.1357847  -0.0351042  -1.1331377  -0.1336001  -1.0892381
  -0.1293145   0.2574070  -0.1560704   0.6788415  -0.4275551   0.1415787
   0.9007291   1.4996993   0.1781130   0.0367276  -0.3704463   0.0250664
   0.3567666   0.0128418   0.1640529   1.4988111  -0.3792524   0.7133308
  -0.0476284  -0.1796904  -0.1721519   0.9178138  -1.4427903  -0.6508306
  -0.2748841  -1.3949804   0.0279568   0.0516790   0.1659238   0.3184853
  -0.5998687   0.4403929   0.3313948   0.1430319   1.0794686   0.4965713
   0.2339755  -0.2252831  -0.1440065  -0.7771517   0.1382679  -0.1263401
   0.6381477  -0.1322374   0.5575601   0.2036197   0.2827531   0.1235943
  -0.2423591   1.2993136   0.1811923   0.4249325  -0.6720643  -0.8573232
  -0.2401365   0.0229994   0.1223870   0.3537628  -0.0118261   0.0033602
   0.0051754   0.1673300   0.1781644   0.1477418  -0.1528606   0.2553601
  -0.2943987   0.5024298  -0.7676434   0.1040092   0.0483368  -1.2209774
   0.2731810   0.0136745  -0.1405030  -0.5374893   0.1249758  -0.1079837
   1.2417252  -1.6890946   0.2890565   0.3576403   0.1823468   0.4511134
   0.6060916   0.4665332  -0.6893701  -1.9702044   0.9723090  -0.1227155
   0.1319026  -0.3221683   0.3291385   0.0246556   0.8550092  -0.2064593
  -0.0288404   0.8430660  -1.1919434  -0.1765681   0.2140320   0.2727649
   0.6056836  -0.2698542   1.4432290   0.0624840   0.6713324  -2.2510488
   0.4245137   0.0691463   0.0451484   0.6769218  -0.3102481  -0.6208342
   0.1885232   0.1023987  -0.4300152  -0.0479489   0.4820636  -0.1602628
  -0.9984439   0.5850172  -0.3276702   0.8981252   0.4891730  -1.0846096
  -0.3234739   0.0887666   0.1195066  -0.6468019   0.0859204   0.3170610
  -0.1805531  -0.3081615   1.3601445  -0.2550111   0.0954145  -0.2279149
   0.1930652   1.8661444  -0.8940647   0.7747577  -0.9732220   0.0823189
  -0.1369103   0.1338560   0.1936710  -0.1298718   0.4181257  -1.9554030
   1.8515800   0.2846540  -0.0863287  -0.2923374   0.1392303   0.0859158
   0.3773014   1.1638932  -0.8105697  -0.5586849  -0.1523297   0.5629761
   0.2597795   0.3692165   0.3157402   0.8499957  -0.6123508   0.0908518
   1.1818315  -1.4100071  -0.4835237   0.0344922  -0.0634327  -0.0708942
  -0.2221513  -0.2808248   0.2220954  -0.5268466   0.5722306  -1.9520699
  -0.1272107   0.0375025  -0.0774678  -0.7590842  -0.1141660  -0.9437824
  -0.5771082  -0.9064653   0.3792452  -0.1123836   0.0096934   0.1538865
  -0.4468847  -0.3393020   0.4624645  -0.2481386  -0.9169871   0.0753349
  -0.1685247   0.1189974   0.1917019  -0.9834267   0.0088210  -0.6532945
   0.4993583   0.1404783  -0.4093184  -0.0390756  -0.1671860   0.0108780
   0.3949354  -0.5899563   1.1094046   0.4316270   0.3705906  -1.3964822
  -0.2052469  -0.1630588   0.2453765   0.2698556   0.1176068   0.9009075
  -1.6291604  -0.5035367  -1.0362407   0.0913076  -0.0729470  -0.3262753
   0.9246790   0.8742222   0.6072193  -0.6660481   0.6510429   0.1275179
   0.3822670   0.0796960   0.2034772  -1.1410434  -1.4430508   0.1036339
  -0.5063726   0.1867468  -0.3424039   0.1535773   0.2385801  -0.2596299
  -0.4039429  -0.1498981  -0.0545643   0.0933011   0.1392862  -1.5047091
  -0.4510780  -0.0466453   0.1833278   0.0052248   0.4201205   0.3500493
  -0.3719922  -1.0071356  -0.2782095   0.1645435  -0.2637464   0.0883152
  -1.0850890  -0.2645372  -0.6346621   0.1836181  -0.0969529  -0.1292983
   0.1349950  -0.2321853   0.3228391   0.6072740  -0.6647477  -1.0214128
   0.2112489   0.5607044  -0.5180534  -0.0156288   0.2609866  -0.0387313
   1.0699929   0.5521400  -1.6593750  -0.2163626   0.3902310  -0.4175535
   0.2297985  -0.1223766  -0.2828322   0.6201600  -0.5154692  -0.1413044
   0.3651584   0.5248784   0.6221312   0.3782987   0.0199374  -0.0000363
   0.0452707   0.2007460   1.4119137  -1.2044493   0.7042339   0.5675186
   0.2515583  -0.0154083   0.3458750  -0.6451810  -0.4872186   0.3688065
  -0.4060352  -0.7037690  -0.0435682  -0.2717541  -0.0801114   0.0767990
  -0.0979354   0.7469231   1.0455698   0.8119845  -0.8365512  -0.5139398
  -0.2063222   0.2194328  -0.0639421  -0.4796423   0.3003898   0.3029112
  -0.1071619  -0.0073273  -1.3732056   0.1919620  -0.2296128  -0.0544206
   1.3059939  -0.3247256   0.4121658  -0.0858455  -0.0280521   0.5440155
  -0.0920763  -0.0294877  -0.0149183   0.5060835  -1.1420013   0.2898745
   0.1738915   0.0219115   0.0196651   0.2860879  -0.3294257   0.1616879
  -0.2362709   0.5894007  -1.0963315   0.4831941   0.5108294   1.5278152
  -0.2076839   0.2224360  -0.1173902  -0.7368181  -1.5050072   0.8303498
   1.0152168   1.2990011   0.5921151   0.0583384   0.0145453  -0.0465499
   1.8521067  -0.8659242  -0.0763343  -0.7599539   1.0829188  -0.3968536
   0.1719846  -0.2745761   0.3579965  -0.6777012   0.4527556  -0.6141863
  -0.0330272  -0.6307698   1.0393431  -0.1207091   0.1247613   0.1569019
  -0.1836203   0.6638454   0.4090625  -0.5656601  -0.3711754  -0.9606231
  -0.2630069  -0.0461209  -0.0760004  -0.4504493   0.0651302   0.3347375
   0.2380167  -0.3156291  -0.0081079   0.0450469  -0.0737261   0.0306329
   1.1959398   0.5144705  -1.1304089   0.8106232   0.1353952  -0.8344219
  -0.2079767  -0.1712050   0.1936245  -0.1134281   0.2377697   1.6936656
  -0.0718673   0.8667557   1.1430111   0.0847563  -0.1445832  -0.2814367
  -0.1392206   0.2970316   0.4278296   0.9719039  -1.7299624  -0.7887041
   0.2530460   0.0903626  -0.2586504  -0.6305305   0.0675167  -0.7130131
   0.0842436   1.5498221   1.2070422  -0.1727453   0.0797669   0.0196531
  -0.3064399   0.5888455  -0.3188120   0.5882860   0.4716940   0.8440831
  -0.1355111   0.2702553   0.0348637   0.2425024   0.0092201  -0.4923819
   0.6802595   0.7622706   0.0568672   0.2140078  -0.1270996  -0.2300146
   0.1710460   0.9915284   0.2847944  -0.3286881   0.2539336   1.4238951
  -0.2051795   0.0066444  -0.0451308  -0.3703445   0.4789383   0.6686499
  -0.1865202   0.4419107  -0.3597156  -0.1245039   0.1078768  -0.1610973
  -0.1642872   0.1731787   0.3492814  -0.9322803  -0.7969851  -0.4058638
   0.0703573   0.1444029   0.0091494   0.2077453  -0.5138813   0.4274162
  -0.4632536  -1.2156217   0.9481692   0.0228857   0.0021854   0.1820974
   0.8953042   0.1875147  -0.5497908  -0.7725930  -1.4911828   0.8149368
  -0.2106779   0.2285149  -0.1736516  -0.7590291   0.1932320  -0.4593566
  -1.1662612  -0.2765357   1.4106017   0.1129637  -0.2617177  -0.0961438
   0.7218939  -0.2898357  -0.1450896   0.0559278   0.7323293  -0.1138314
   0.1780603  -0.2186758  -0.0130066  -0.5700862   0.0311676  -0.3703136
   0.3351503  -1.2452549   0.1962499   0.1050338   0.0331152   0.0763475
  -0.3512008  -0.7886457  -0.4229787  -0.5676931   1.3399748   1.1147797
   0.0109760  -0.1703928   0.1657590  -1.0790512  -0.1935261  -0.9815378
   0.9458317   0.7619805   0.1802628  -0.0289591   0.2388579   0.0318058
   0.1005778  -0.2610359   0.5916506  -0.2836392   0.2096499  -0.9211894
   0.2907469  -0.0785136   0.3827962   0.1786311  -1.0317310  -0.7346215
  -0.3669871   0.1942873  -0.9508612  -0.0331878  -0.0999947  -0.0285778
   0.4324519  -0.1817255  -0.0140255   0.4829061  -0.3229519  -0.5091001
   0.0410854   0.0682671  -0.1402217  -0.1381850  -0.6559686  -0.3027216
  -0.3088018   0.6160998  -0.0569344  -0.0741051  -0.0829487   0.0469897
   0.0133428  -0.9253904  -0.3097783  -0.4624851   0.2680384   1.1500171
  -0.3362763   0.0946927   0.2401165  -0.3958841  -1.2662252   0.1127547
   1.2938485  -0.1306598  -0.1472292   0.0270569  -0.1276032  -0.1481733
   0.7880702  -1.2154790  -0.5164293   0.6574694  -0.1937296   0.6363424
   0.2709423   0.2645992  -0.0492316   0.7268250  -0.7658458  -1.2815196
   0.2565446   0.0460581  -0.0822010  -0.3638141  -0.0381718  -0.1783354
   0.2920362  -0.9297455   1.7342748   0.3429742  -1.1980596  -0.2256231
   0.2641740  -0.2622233   0.0461424  -0.2111191   0.5531289  -0.1967757
   0.0953098   0.0389198   0.1639366   0.0894504   0.2684705   0.1546656
  -0.3425216  -1.3148371  -0.8188683   1.6855305  -0.1372810  -1.4638589
  -0.3352247  -0.0157091   0.0394595  -1.0208262  -0.0639624  -0.8617236
   0.1914819   1.3121336  -0.4510204  -0.1603710   0.0035617   0.5195905
   0.0209762  -1.2713541   0.7004900  -0.3365620  -0.7118019   0.0664572
   0.0002889   0.1513061  -0.3244476  -0.0770924   0.0028762  -1.3287790
  -0.5601831  -0.0422753   0.1261433  -0.0065491  -0.0506366  -0.0694154
  -0.4104836   0.2088373   0.2032600  -0.2500398   0.1719361  -0.2395179
  -0.1090654  -0.2198024  -0.0968849  -0.4837330  -0.2903017  -0.0492362
  -0.9945754  -0.2376948   0.5386252  -0.2096381  -0.1699894  -0.0248524
   0.0199516   0.6416109   1.9686034  -1.2455445  -1.7398134   0.0365687
   0.0957376   0.0906973   0.1925410  -0.4096396  -0.8656280  -0.3549203
  -0.0129426  -1.7689055   0.1496014  -0.1169513   0.1287077  -0.0079905
  -1.4472244  -0.7283090   0.6548959  -0.7752073   1.0860087   0.7974483
   0.0450182  -0.1501148  -0.0004095   0.5020981  -0.5331776  -0.1539117
  -0.0551691   0.4313121  -1.0568370   0.0813426   0.3101498  -0.0930091
   0.1990644  -0.6805847  -0.0518799  -0.1363507  -1.0216306  -0.8207273
  -0.2593559  -0.0934973  -0.1302581  -0.2279282  -0.6307025   0.6984471
  -0.1702027   0.8538955  -1.0127361   0.0775500   0.1632154  -0.2934031
  -1.2607418   0.0254677   1.0602239  -0.3225346   0.9364674  -1.8479325
  -0.3856751   0.0634376  -0.0392164  -1.1067147  -0.9080242   0.6378183
  -0.5563037   1.2836093   0.3809913   0.0982633  -0.0396533   0.0409033
  -0.3138924   0.3110232  -0.0372443   0.0305602   0.5063673  -0.6092442
   0.0252002  -0.0768044  -0.0217470   1.7548202   1.0199352  -0.3294569
   0.2248362   0.4595722   0.3304268   0.2999083  -0.0726684   0.3664113
   1.1153400   0.6424556  -0.6079251   0.2893232   0.0915956   0.2311870
  -0.2315338  -0.1036052   0.0720365  -0.3666463  -1.0377898   0.0825338
   1.6513538   0.1857121   0.8852828   0.0475002  -0.1264255  -0.1472698
  -0.3625705   0.2467024  -0.2637752  -0.1586482   0.5398818   0.4925648
  -0.1233900   0.0013507  -0.0705244  -0.4897326  -1.8413503   0.5074122
  -0.1860738   0.7286090   0.8012004   0.0104177  -0.2663485   0.3259300
  -0.6216455  -0.9671979  -0.3507274  -0.7543810  -1.0433955  -0.9933848
  -0.1639098  -0.2341019   0.3544356  -0.1048192  -1.0164936   0.4865917
  -0.2304001  -0.2944964   0.5249036  -0.4626033  -0.2013238   0.1945858
   0.6711641  -0.9063574  -0.7480255   0.0430626   0.7251252   0.1348166
   0.0908811   0.1609895  -0.1594118  -0.4478986   0.2108657   0.8437648
   0.0036038  -1.3120152  -1.2586318  -0.0224779   0.2316543  -0.1732436
   1.2128929  -0.1014624  -1.6262334   0.1259447   0.3301719   0.3728998
  -0.0788447  -0.0850756  -0.0722902   1.3839646  -0.3923936  -1.7568881
  -0.7330197   1.2551351  -0.7045280  -0.2394646  -0.0829373   0.0499187
   0.6102721  -0.8015643   0.0561935  -0.0695500  -1.5176973   1.0080734
   0.0603185  -0.0560192   0.0375005  -1.3011025   1.8153224   0.4069650
   0.3502190  -0.5388612   0.2467413  -0.3039883   0.0232481   0.1228139
  -1.2514536  -0.2399115  -0.8184084   0.9933575  -0.4419258  -0.1946356
   0.0262476   0.0559967   0.3540389   1.1273183   0.5578047   0.0893945
  -0.2504948  -1.4142098  -0.9748570   0.1221370  -0.2379039   0.1464337
  -0.1900386   0.5917635   0.9290145   1.0631769   0.1027916  -0.0238519
  -0.2095600  -0.0314356   0.0256822  -0.4022842   0.4218942   1.3904725
  -0.6473206   0.0197945  -1.8714535  -0.1131317   0.1438461  -0.3081688
   0.2646251  -1.3894255   1.0230993   0.7162181  -0.1224918   0.9939963
   0.1559287   0.0810909   0.2117573  -0.6917955  -0.9662232   0.3882327
   0.1377965   0.3429977  -0.0740317  -0.0440999  -0.1570201  -0.0226444
  -0.0689723   0.7352995   1.4819218   0.3418635  -0.2949244   0.6490893
  -0.1624362  -0.0805065   0.1902157   0.9673867  -0.4209736   0.3383373
   0.5806917  -1.9663431  -1.2083834   0.1712030  -0.2511825  -0.0477645
   0.9811391   0.0301184  -0.3960839   0.7986085   0.7173067   0.4054351
   0.0528828  -0.2960185   0.3726196  -0.8268694   0.0946692   0.6073696
   0.1414029  -1.3275670  -0.2137363  -0.0106394   0.1746824   0.2558519
  -0.3637297   1.7426898  -0.2381666  -1.2380304  -0.6355285  -0.3781070
   0.0189975   0.0453102   0.1436914   0.9920269   0.3592757  -1.8973014
   0.4462920   0.1829417  -0.5428832  -0.1565032   0.1694249  -0.1331385
   0.1421566  -0.3569516   0.5064152   0.9764318  -0.2405363  -0.8871998
   0.0813798  -0.0862681  -0.1023764   0.1006114  -1.1833638  -1.3623449
  -0.0761946   0.0875800   0.7015161  -0.0748931  -0.1395255   0.0553790
  -0.6891657  -0.8719571   0.4280705  -0.0269882  -0.8666436   0.8233532
  -0.3419549  -0.3416450   0.1966177  -0.1404126  -0.2098300   0.6856795
  -0.3948732   0.0480117  -0.7095326   0.3074651  -0.0628534  -0.0231085
  -0.0072842  -0.7115322   1.5899593   1.0375399   1.4307121  -0.0015221
  -0.0753383  -0.4531020  -0.1172723  -0.8309926  -0.7338644  -1.2927859
   0.0812507  -0.0801307   0.8506850   0.0015009   0.3375004   0.2167482
   0.0730322   0.2499800   0.6159208  -1.1950065  -0.4496531  -0.6912622
   0.1443844   0.0049804  -0.0621676   0.9604433   0.3189611  -0.4384259
   0.0322506   0.9531538  -0.0667833   0.0371121  -0.0388458   0.0099893
   0.5192701   0.9882508   0.2012493   0.3600404   1.5006378  -0.6557901
  -0.0525137   0.0464123  -0.5604273  -1.8647719  -0.9646880  -0.7106875
   0.1003611   0.3230737   0.8827022  -0.0341687   0.1220545  -0.2140689
  -1.5451436  -0.5087181   0.5608157   0.4520365   0.1509146   0.6088535
  -0.0460370   0.1218164  -0.1616230   0.5509717  -0.5874492   0.5738284
   0.4116540   0.8663723  -0.3054422  -0.0800279  -0.1499111  -0.1049668
   0.3561335  -1.3037054  -1.4629528  -0.7121693   0.8036719  -0.5246662
   0.2796748  -0.0120465   0.1877762  -0.3574912   0.8402864  -0.5948847
  -0.9438973   0.0860038  -1.4114418  -0.0937376  -0.0375107  -0.1971019
   1.0778163   0.1988040  -0.3314478  -0.3057351   1.4938316   0.0400561
   0.0205347  -0.0599613  -0.0923256  -0.4939756   0.1273307   0.2815366
   0.5603146   1.6559918  -0.7784330   0.0172967   0.0784706  -0.2307958
   0.7003862   0.5967047  -0.1172583   0.6620613  -0.6045600   0.2971273
   0.0953401   0.0956095   0.2709188   0.0075547  -0.2655931  -0.7302565
  -1.1864719  -0.2370880   0.5614128   0.2352209   0.0986919   0.2749971
  -0.0725748  -1.0644241   0.6692858  -0.8480097   1.5894256  -0.1218840
   0.0700546  -0.0554513   0.0836913   1.0306376  -0.1868353   0.0658178
   0.3089002  -1.3037792  -1.4749681  -0.1061520  -0.0764580   0.1231912
  -0.5624872   0.9217778   0.1231870   1.6702047  -0.4899219   0.3077941
  -0.1717122  -0.2422334   0.0526482  -0.9600986   1.6777376  -0.1562511
  -1.3859985   0.4100949  -0.2475521   0.0979703  -0.0387716   0.0740486
  -1.1045555  -1.8082584  -1.2330859  -1.0366522  -0.5341462  -0.1262051
  -0.1797608   0.0783700  -0.0338376  -0.4076715   0.4705615  -0.0385344
  -0.4483048  -0.6924268   0.5975813   0.1399876   0.1428354  -0.1871594
  -1.0090688  -0.0452085  -0.5663893   1.3361849  -0.6345123   0.1558575
   0.0944177   0.5001289   0.2006335   0.6805291  -0.0822041  -1.0378716
  -0.5047651   0.1859554  -0.7557974  -0.0515229   0.3788004  -0.1504694
   1.0707052   0.9379712   0.4336506  -0.7488563   0.2269483   0.5630248
   0.0813069   0.3010845   0.0178171  -0.0234993  -0.7968924  -1.3083148
   0.7403141  -2.3047344   0.8882660  -0.0117797  -0.0398758  -0.1047884
   0.6906762  -0.0299407   0.2796754  -1.1277887   0.0945099  -0.6129922
  -0.0803514   0.0369517   0.1180035   1.9419994   0.1311642  -0.5552877
   0.5717041   0.4755456   0.0894258   0.1940152  -0.0159064   0.0175320
  -0.0621583  -0.6596069  -0.2705228   0.8901244   0.2263752   0.3975210
   0.3879132  -0.1999401   0.4037566  -1.5605406   0.3109895   0.1212370
   0.6631576  -0.0015775  -0.7171283   0.1179610  -0.2107329   0.0115034
   0.9590185  -0.0914548   0.0074232   0.1249935  -0.7526996  -1.0796176
  -0.1393306   0.0279772   0.1250280   0.8947410  -0.5640623  -0.2279532
   0.0648188   0.6885359  -0.0742629  -0.2246215   0.0927926   0.0633101
  -0.6088433   0.5110736   0.9678719  -0.4939495   0.0044600   0.6075686
  -0.0349673   0.0705464   0.1026967   0.8687211   1.7355993  -0.3716620
  -0.3117247   0.4632665   2.2609259  -0.0237366  -0.0027601  -0.1579616
  -0.4322349   0.2022450   0.7541098   0.3915934  -0.5236763   0.0281223
  -0.1227855   0.1898723   0.0405063   0.0199474   0.4438161   0.7380756
  -0.3000538  -0.7751608  -0.4240181   0.0662086   0.1375797  -0.1839780
   0.7764865   0.1075861   0.6580321   0.2086218   1.2111454  -0.1523995
  -0.1213489  -0.2199781   0.2026477  -0.3463597  -0.5245770   0.0177163
   0.4518115  -0.3874021   0.6372634   0.0847518  -0.4527402  -0.2576298
   1.9020778   0.0480088   0.2320650  -0.5305761  -0.6755997   0.1886032
   0.0230616  -0.0613145   0.2806385   0.2255061  -0.2365969  -1.0368157
  -0.5271578   1.8528121  -0.2125856   0.0060736   0.1262491   0.1170993
   1.2104559   0.0878730   0.2547131  -0.6355192   0.2579085   0.0265227
  -0.0257731  -0.1926109  -0.0170909   1.1870599   0.1364526   0.0834174
   1.6309443  -0.0327298  -0.5721071  -0.1346308  -0.0924664   0.0078638
  -1.0602944   0.1895891  -0.0965321  -0.6286203  -0.6807034   1.0190321
  -0.0066622  -0.0523171   0.4729314   0.0596919  -0.0823047   0.2648185
   0.6698101   0.2856386   0.3350284   0.4320303   0.4504076   0.1469659
   0.7241420   0.5996381  -0.1936004   0.4227489  -0.9752942   1.9409069
   0.2722834  -0.0795367   0.1882521   0.7426172   0.6081751   1.0229294
  -0.9272586  -0.6494457   0.1684479  -0.0120382   0.1106130  -0.1385087
   0.3442950  -2.6829618   0.1200372   0.1445147   1.2649400   0.5487734
  -0.1814667  -0.0539969   0.0922802   0.2664594   0.1808586   0.1027825
  -1.1904118   1.6028929  -1.0870306   0.1280125  -0.3941927   0.1254899
  -0.7139486  -0.0810415   1.3049340   0.2063198   0.6142313   0.9302587
  -0.0123711  -0.1247785   0.3249451   0.2912149   0.4443643  -0.8447789
   0.6006365  -0.2739503  -0.7943514  -0.0195428  -0.1386008  -0.0557609
  -0.5353988   0.1170475   0.2845744  -0.0586256   0.1148220   0.8683993
   0.0625840   0.2965556   0.1957108  -0.1584344  -0.9915565   0.4379611
  -0.5622986  -0.2280816  -0.7551461   0.2804420   0.1214305  -0.2850548
  -0.8287132   1.1889786   0.1826182  -0.3410413   0.0810053   1.8394519
  -0.1878931   0.1301845   0.3529673   0.9476472  -0.3896049  -1.0374224
  -0.5230350   0.3643065  -0.2692065   0.2099397  -0.0890476   0.0162368
  -0.6855182   0.1638970  -0.5991452  -0.1104436  -0.0229034   0.7175389
   0.0102399  -0.0975563   0.0384344   0.7882811   0.8270520   0.3977106
   0.0058510  -1.2499733  -0.2629374   0.1019068   0.2588429  -0.1730180
  -0.1527496   0.3618479  -0.2543137  -0.8401178   1.1251568   0.0417319
  -0.0791857  -0.3166071  -0.1654961   0.2009789   0.0640841   0.9399604
  -0.6814261   0.1373841   0.5916438  -0.2140022  -0.2107504  -0.1203499
  -0.2204114  -0.5655980   1.1015594   1.5401739   0.8795700  -0.4116649
  -0.0895498   0.0530330  -0.4899410  -1.4366358   1.9164703   0.1578073
  -0.5565294  -0.2141539  -0.4506914  -0.1567906  -0.2456818  -0.2996739
  -0.5216883  -1.2781213  -0.3051750   0.9542162   0.0823067   0.2232109
   0.0908557   0.1817187  -0.0248692   0.2880285   0.2111591  -0.2015432
  -0.3683130  -1.5350640  -0.8330096   0.1558979  -0.1824335   0.1163594
  -0.7841275  -1.2586723  -0.5282989  -0.0416230   0.7630116   0.5477546
  -0.1872400  -0.1196640   0.0034281  -0.8060343   1.3161165   1.1801448
   0.4950827  -0.3274478   0.8212818   0.1000044   0.0306956  -0.2772600
  -0.9615498   0.4767395   0.8687325   1.1262685   0.8076478  -1.1247471
   0.0125575  -0.0268525  -0.4159362   0.6874878   1.5141312  -0.6865714
  -0.6664361  -1.3831557  -0.8137980  -0.0668554   0.3456057   0.0278026
   0.4259773  -0.8470283   0.5340841   0.5142336  -1.0730122   0.6337760
   0.1733316   0.0496199   0.1137510  -0.4319048   0.0150953  -0.3726896
   0.3406569  -1.1905312   1.2833932   0.2056385   0.0688896  -0.0455603
   0.2575835  -0.8545357  -0.0201491   0.5235229   0.5768271   0.2762650
   0.0356670  -0.0216411   0.2008558  -0.3170756   0.0426398  -1.4368956
  -0.9764453  -0.5523552  -0.8227342  -0.0634774   0.0561392   0.3151641
  -1.3543185   0.2456590  -0.4489143   0.9070770   0.4131493  -0.6762345
   0.0672605   0.0452744  -0.1319572   0.4722644   0.0846138   0.0520567
   0.7337216  -1.1364368  -0.2116841  -0.0554019  -0.0930391   0.1822235
  -0.4556673   0.8130484   0.4986762  -0.5864134  -0.2573298   0.9903898
   0.0122737   0.1907493   0.3968944   0.7641889   0.0812724   0.6235350
  -1.7100546  -2.0934325   1.2006855   0.1084141   0.0634344   0.2302258
   0.9452137  -0.5511796   0.6640140   0.5106132   0.9565320   0.2784926
   0.2429127  -0.1214814   0.0221834   0.4921128   0.2745461   0.0818926
  -0.2193471   0.1232931   0.2181607   0.2289241   0.2150388  -0.1821786
  -1.3335693   0.4892435  -0.1076106   0.0901453  -0.5102319   0.6753158
   0.0348319  -0.1707724   0.0454372  -0.6765773   0.3579152  -0.3633864
   0.1123780   0.0997528  -0.9417785  -0.1462610  -0.0450157  -0.0839592
  -1.3491445  -0.6643468   0.4536084   1.1679486   1.6879318  -0.5641670
  -0.3093590  -0.1356633  -0.0998429  -0.7815287  -1.0127286   1.0400077
   0.2792506   0.1623207   0.5038464   0.2117234  -0.1645402  -0.0494772
   0.6866707  -1.0769439   0.6115989  -0.3119057  -0.5529735  -0.2951666
   0.1391935  -0.1111198  -0.0115993   1.4740645   0.8203114  -1.3846992
  -1.7692863  -0.0222899   0.9896146   0.1782144   0.1544877   0.2113933
   0.8520712  -0.3265561  -0.0535114  -0.4199871  -0.2436304   0.1891979
   0.0034049  -0.3017814   0.0070740   0.0947604   0.1722291  -0.0652914
   0.7076203   0.1129806   2.7266932  -0.0093006  -0.0117942   0.3092058
   0.4380892   0.6704098  -0.8336329  -0.7889185  -0.5220746   0.1508708
  -0.2538265  -0.0916685  -0.0237371  -0.2163280  -0.8579715  -0.8407240
  -0.5816466   0.3962014  -0.3084918   0.0339916  -0.0909335  -0.0085957
   0.3743826   1.1864689  -0.0199014   0.5716201   1.2444146   0.4555584
   0.0360968  -0.2054072   0.0733992  -0.9071445   1.2668398   0.0404677
   0.6363303   0.0414711   0.5210304   0.1967316  -0.1140922  -0.5255277
  -0.2414082  -0.6304040  -0.0828257  -1.2130965  -0.5536888  -0.0059367
   0.0557217  -0.0725559  -0.0343109   0.0155148   0.0538545  -0.0612188
   1.4072201  -1.0663998   0.1898987  -0.2034325   0.1922596  -0.0874297
  -1.4613826   0.0440506  -0.4157737   1.0271983  -0.1660550   1.0291262
   0.3233496  -0.3478555   0.0242990   0.7025887   1.0824423  -0.0822326
  -0.1437383  -0.4084268   0.1380661  -0.1360846   0.0130955   0.1533094
  -0.2786636  -0.0838142  -0.2402150   0.1892651   0.6628743  -0.6104683
  -0.3984427   0.0376921  -0.0515380  -1.2952204   0.4524686  -0.0099830
  -0.4441697   0.9928145   1.6183578   0.0072096  -0.1870104   0.1735475
   0.7242232   0.7219507  -0.2915188  -0.1538076   0.5824853   1.7295415
  -0.2189212   0.1196309   0.1667527  -0.5051921   1.1578402   0.3802442
   0.1033895  -0.1166016  -0.4805564   0.0457124  -0.4348531  -0.0115256
  -1.4694339  -0.7316556  -0.7644356  -0.1690769   0.0459268  -0.3982032
   0.0006813   0.1976372  -0.0958167  -1.3926193   0.7853950  -0.3720693
   0.0533177   0.1312159   0.5903683  -0.0523523  -0.2740871  -0.0358322
  -0.1025068  -0.6404912   0.4547377   0.7363138  -1.7057440  -1.3577609
  -0.1520724  -0.1525602  -0.2057788  -0.5582817   0.2316414  -0.5672990
   0.4923520  -0.7271363  -0.1575641  -0.0111851   0.1974439   0.0856694
  -0.1685754   0.7321169   1.0931500  -0.5745292  -0.9016010   0.6210330
  -0.0246407   0.1437986   0.2508436   1.0595622  -0.8303649  -1.2098275
  -1.4123174   0.4808631   1.0051229  -0.0115812  -0.0040001   0.0985968
   0.8489669   0.0750866  -0.2350191   1.4657572   0.7351336  -0.0500624
  -0.1374155   0.0181792   0.1191450   0.6716638   0.1640451  -0.2326974
   0.8551675   0.0895821  -0.0767190  -0.3288925  -0.0483135   0.0945591
  -0.0649982   0.0465810  -0.8792548   0.0121935  -1.2736287   0.9554029
   0.1370088   0.0183128   0.1291686  -0.9173598   0.2483601   1.8242956
   0.4926047  -0.8537625   1.5643383   0.1326271  -0.0051414   0.0768220
  -1.1374726  -0.3214684   0.5257963   1.5332773   0.8990569   0.4097756
  -0.0210178  -0.0960560  -0.2652830  -0.8390581   0.5381860  -0.1855449
  -0.0563800   1.2567233   0.2060109   0.0546308  -0.2056849   0.1885741
  -0.4510468   0.1420073  -1.3856555  -1.1208988   0.1215266   0.5383915
  -0.0245596  -0.0656384  -0.0681208   0.4138979   0.7300464  -0.4447332
   0.4942784  -0.4994784  -0.1449391   0.1606535  -0.0452678  -0.0011514
  -0.8758958   0.5470553  -0.0752804  -1.7743578  -0.1294596   0.9119430
  -0.1548638  -0.1441471   0.2288252   0.8549812   0.7107668  -1.0779451
  -1.6075622   0.2309418  -0.1457735   0.0594156  -0.1289699  -0.0506571
   0.1111206  -0.1298691  -1.6672912   0.5501901  -0.5570951   1.0253615
  -0.1915735  -0.4301934   0.0649899   0.1489047   0.0385669  -0.5514231
  -0.2120828   0.5128536   0.6041468  -0.0904565  -0.1730345  -0.0316543
   0.3866033  -0.0521800   0.0115475   0.8039676   1.0784517   0.1003528
  -0.2461340  -0.3126539  -0.2749627  -0.1320532   1.5629696   2.6161828
   0.4113648  -0.8211516   0.5707146  -0.5141993   0.1283505  -0.2596631
  -0.0649636  -0.1461004   0.4457825  -0.8855099  -0.2162083   0.8759396
  -0.1807737  -0.3747258   0.0075857   0.8756446   0.8269841   0.5397724
   0.6816766   1.1289925   1.0980048   0.0007185  -0.2430875   0.2211186
   1.2320073  -0.3974243  -0.2565889   1.3319981   0.9213910   1.9899000
   0.2496587  -0.1122601  -0.2862252   0.5354413   0.1058685   1.3084969
  -0.1737127  -0.4976116   0.5670128   0.0591287   0.3393798   0.3227688
   0.8311938  -0.1193954  -1.7495465   0.4484601  -0.9112544   0.5020956
  -0.3958334  -0.1139336  -0.1194195  -1.5506069   0.4473323   0.7298401
   0.1829249   0.6979946  -1.2077886   0.1820899   0.2024476  -0.3290858
  -0.2323901   0.2439627  -0.5019622  -0.9244150   0.0974357   0.3840892
   0.0082762  -0.1870012  -0.2982140  -1.3157060  -1.0658328  -0.2135455
   1.1290500   1.0160343  -0.5373397  -0.3098632   0.1760215  -0.0605251
   0.2156591  -0.0361047   1.4236117   1.1192989  -0.0154065  -0.2984217
  -0.0777010  -0.0602247  -0.0767359   0.8987132   0.3269540  -0.7087351
  -0.6786479   1.0543441  -1.2479048  -0.1055265   0.1542504   0.0568690
  -0.8181532   0.4886483   0.2059801  -0.5771995  -1.2925352  -0.0414147
  -0.2054275   0.1742877  -0.0116919   1.0150736   0.1692373  -0.3487669
   0.0771124  -1.1019869   1.8736565   0.1296571  -0.1721107   0.1325383
  -0.1994293   0.3761262  -0.7695476   0.6114345  -0.5359498   0.3530300
   0.1217789  -0.3905247   0.2947207   0.2501502   0.3095961  -0.5691136
  -0.4867408   0.7816050  -0.5281417   0.0260383  -0.2159391   0.1074763
  -0.3869318   1.5566882   0.0525806  -0.7416399  -0.2346471   0.1539988
   0.0068764   0.1190149  -0.0822569  -0.4204604   0.5640472  -0.0272419
   0.1118176  -0.2791937  -0.4692068  -0.0377248   0.3604791   0.0158598
   0.4592095  -0.3569269   0.4758628   0.0523766  -0.1538493  -1.3905813
   0.0046743  -0.0420237  -0.1674991   0.7000486  -0.3818943  -0.0243931
   0.7848204  -0.4394806  -0.4545457   0.0740677   0.0707866   0.2222451
  -0.4794937  -1.7151856   0.3307020   0.8123104   0.0052695  -1.3970590
  -0.3241831   0.2404948  -0.2944304   0.3595932  -0.3278436   0.5733677
   0.2672936   0.2729271   0.1531265  -0.0444941   0.1177403   0.1201068
  -0.1289994   0.2870567  -0.3822982   0.0872358   0.8715667   0.2697381
   0.2786839  -0.4016259   0.0282265  -0.1904943   0.0423416  -0.1268593
   0.8821647  -0.1297499   0.1845405   0.1221545   0.1971066   0.2551702
   0.2103774  -0.1081356  -1.4700907   1.8707092  -0.7119987  -2.7077028
   0.2133206   0.1242182   0.3300108   0.6458107   0.9277520   0.5743400
   0.8877199   0.5768314  -1.0760416   0.1106627   0.0668055   0.1451598
  -0.6164364   0.4362911   0.2180757  -0.5838484  -0.7034101   0.6208408
  -0.1753068  -0.2475413   0.0182511  -1.0113578  -1.0223248  -0.1101357
   1.5798180  -0.3016374  -0.0953040  -0.2771642   0.2022031  -0.0414007
   1.1027606  -0.5061013   0.2085772  -0.8040238  -0.6534588   1.2244342
  -0.4628706  -0.1589760  -0.2677373  -0.5714726   0.3135812   0.0596854
  -1.3454677  -1.2263087   0.4644966   0.3404029  -0.1378025   0.3048170
   0.1249306  -1.1158302   0.0423297  -0.7272703  -0.0974173   0.0811922
  -0.2479812  -0.0554109  -0.0924835  -0.9335976  -0.7005068   0.1196424
   0.0134390   0.5334318   1.1825228   0.1199897  -0.0537744  -0.0740003
   0.7250830  -0.6531730   0.1483251  -0.5717280   0.4291639  -0.5047549
  -0.0219230   0.0009936   0.0648606   1.2405150  -1.0336582   0.2871728
   0.3584584  -0.2686099  -0.2961028  -0.0052180  -0.1258313   0.3825255
   0.2216846   0.3386076   0.4584569  -0.6397774   0.5433950  -0.1993063
   0.0335374  -0.0232338   0.1974858  -0.3090505  -0.8445324   0.9496310
  -0.3853301   0.7606505  -1.2571351  -0.3355666   0.2814465  -0.0407810
   0.1675072  -0.7255520  -1.1834715   0.4972244   0.2154063  -0.9696374
  -0.0365837   0.3240478  -0.3231862  -0.2649417  -0.7568182   0.6147093
  -1.7830087  -0.9781211  -0.9775623  -0.3319342   0.0443230  -0.0473307
   0.0553512   0.1089352   0.4449553   0.8655653   0.6755660  -0.4949126
  -0.0372263  -0.1279536   0.3427022  -0.9314311  -1.4706621   0.1047554
   0.3778248  -0.4245008  -0.5351857   0.2488911  -0.3133807  -0.0434828
   0.6594114  -0.5170318  -0.2405194  -1.1995799  -0.0651913   0.8932954
   0.1857115   0.3285297  -0.0084028   0.2411081  -0.4705393  -1.3111799
   0.0427474  -0.1941548   0.7608904   0.0579058   0.1837817  -0.0610054
   1.4712594   0.6722140   0.1392454   1.4671499   0.1612973  -0.0079273
  -0.0568325   0.2801582  -0.1444044   0.4678688  -0.1750894  -0.4585908
  -0.0195407   0.7343709  -0.5650611  -0.1445738   0.2086507   0.0709183
  -1.3153850   1.5305724   0.5311853   0.5593410  -0.6215306   1.3990735
  -0.1742233  -0.1054871  -0.0577788  -0.1123319   0.7094246   0.1365465
   0.4615489   0.1392084   0.5600828   0.1338876  -0.0930032  -0.3072302
  -1.2797683  -0.3742784   0.5059387  -1.1531254   0.4799622   0.1127611
  -0.0910573  -0.0040519  -0.0513349   0.6759153  -0.5608945  -0.2633918
   0.4977992   0.2196882  -0.2436412  -0.0722941   0.2695149  -0.1293012
  -0.1678566   0.1275008  -0.6753924  -0.3229777   1.5307274  -0.8837193
   0.1454532  -0.1178801  -0.0776943   1.5288192  -0.8685085   1.7135618
   0.4635810  -0.1023937   2.4077576  -0.0806132  -0.2204090  -0.1415132
  -0.5058151  -1.0340361   0.7600104  -0.1039766  -0.1664651   0.3346757
  -0.1868749   0.1629018   0.1150325  -0.5453937  -1.2646160   0.8086566
   0.0111191  -1.3112925   0.7857126  -0.2963721  -0.1893877  -0.1577459
  -0.6180084  -1.2753647  -0.5196935  -0.4428167  -1.1230027  -0.2428556
   0.5928647   0.0263673  -0.0535703  -0.2398052   0.3179061   0.2537610
  -0.0932584  -2.3082628  -0.6333484  -0.4691644   0.0801081  -0.2443775
  -0.5509540  -1.0888545   0.0792261   0.0074637  -0.9446806  -1.6799145
   0.0349578   0.0260444  -0.1249632   0.4163408   1.0111956  -0.0040667
  -0.2097282  -1.2201513  -0.9889311   0.0875003   0.0619698   0.2204435
  -0.2260696   0.2593583   0.6224220   1.1176704   0.9244534  -0.5362288
   0.1097670  -0.0267369  -0.1917591   0.1625832  -0.2500267   1.7868851
   0.5226524  -0.0403046   0.3638139   0.1103565  -0.0206404  -0.0949261
  -0.0416145   0.6029930   0.6111537  -1.5778625  -0.8607830  -1.0227504
  -0.4230948  -0.0684735  -0.1346648   1.7419111   0.4417352  -0.6517161
  -0.3430881   0.9405804   0.4217273   0.1182993  -0.2319696   0.2128305
  -0.1107199  -0.9856888  -1.3925029  -0.2162126  -2.1982931  -0.2086951
  -0.0441834   0.0101765   0.1065029  -0.6311919   1.3107489   0.7266159
   0.0820181  -1.4543772  -1.0916666   0.1525699   0.0550504   0.0117235
  -0.3666861  -0.4578640   0.5071783   0.3497384   0.6535196  -1.3309241
  -0.3547992   0.0194737  -0.1891317  -1.0464371  -0.2148039   1.0778539
  -0.3324104  -0.8553767   0.4825736   0.1365219   0.0765096  -0.0443558
   0.7182360   1.1892331  -0.2358843   1.1312842   0.1609994   0.3407299
   0.0195483  -0.1018438   0.1593055   0.3942583  -0.7729207   0.8509116
   0.4142303   3.0917876  -0.3947718   0.2375539  -0.0583107  -0.3349687
   0.0439612   0.4165930  -0.9331904  -0.1721020  -0.2653514   0.0958072
   0.0307016   0.4410083   0.1960102  -0.4888095  -0.6660399   0.9866458
  -0.9721675   0.4459591   1.3231172   0.1619764   0.1514459   0.4542960
   0.6893755  -0.4156668   0.1438228   0.4161115  -0.2302764   0.9290857
  -0.2657668  -0.1747491   0.0655594  -0.0758016  -1.0408072   0.6845908
   0.5063366   0.2523213   0.2625646  -0.0474351  -0.2360691  -0.2011539
  -0.8459791  -0.2478352   0.0493112  -0.3383236  -0.5489984   0.0111618
   0.1453472  -0.5188571  -0.0155192   0.0015922  -0.4202171   0.1348354
   0.8849771   0.6778405  -0.4408823  -0.0126833  -0.0350699   0.2087032
  -0.5616822   0.1807917   0.1807843  -0.8578300   1.0074767   0.0127369
   0.1840944   0.0264888  -0.2748341   0.7495401   1.2632527  -0.7013249
   0.9848822   0.3937261   0.3906453   0.3660850   0.2089981   0.1000341
   0.8901752   0.1765568  -0.4831890   0.6041998  -0.8399419   0.4952433
   0.1742766   0.1324447  -0.1841301  -0.0221189   0.8641989  -0.3600582
  -0.2939386  -0.6792721   0.7280913  -0.1558525  -0.1445164  -0.3310459
  -0.5259795  -0.4339737  -2.3707603   0.7827503   2.1423864  -0.1289876
   0.1837171   0.1614875  -0.4782094   1.7378639  -1.4581848   0.3696762
   0.9533193  -0.9434354  -0.0073139  -0.3494390  -0.1503065   0.1400448
  -0.3865113  -0.1707828  -0.7940125   0.9542547   0.2065748   2.0542337
   0.0342914   0.1817415   0.0280038   1.6454948   0.5027783  -0.3461030
   0.7211139  -0.1465419   0.6739493  -0.0352475  -0.1999076   0.0502985
   0.3679868   1.1961389  -1.0482958  -0.4088009  -0.3357355   0.5366292
  -0.1687988   0.0034238   0.0743867  -0.0422953   0.5758807  -0.0907782
  -0.5996223  -0.2228124  -0.4389874   0.3054211  -0.3517053  -0.1530879
   0.6095838   0.9701837  -0.6659718  -0.6518930  -1.2790141   0.8235625
   0.1011865  -0.1004867  -0.3334965   0.3113748  -1.5360169  -1.6009337
  -0.0570531   1.3463813  -1.3901088   0.0964519  -0.1445303   0.2286699
  -0.5141452   0.3730332   0.2998261  -0.2588473  -0.9897084   0.8572204
   0.2243367  -0.1164916   0.2479827   0.1223254   0.2039722   0.3592756
  -0.5547683  -0.1769559  -0.6539798   0.1220166  -0.0523614   0.0650020
   0.2321545   2.0046899   0.6976196  -0.4107996  -1.2615629   1.2360658
  -0.3498273  -0.0281017   0.1643499  -1.9139773   0.5222789  -0.4330947
   0.1985369  -0.1911223  -0.0094394   0.0533528   0.0164473   0.2933936
   0.5859833   0.6775336   0.6935725   1.8603199  -0.8952337  -0.1695223
  -0.1709361   0.1533229   0.0894602  -1.1880677  -0.8084018  -0.0509361
  -0.0339044   0.9163611  -0.2932464   0.2658735   0.0713072  -0.0411699
   0.2007596  -1.2722769   1.3316753  -0.0039701   1.1828544   0.4046357
  -0.4820205   0.0028184   0.3486080  -1.3549441  -0.7794011  -1.0756696
  -0.6815606   1.0435355   0.5046258  -0.0216026  -0.2628362  -0.2879486
  -0.3786688   0.2328724   0.2288933   0.0547354   0.6371949  -1.4759293
   0.0285828   0.0403772   0.1199066  -0.0655981  -2.2074303  -0.3475831
  -0.2931675   0.5177162   0.3582401  -0.2748620  -0.0119435  -0.0119870
   0.4370847   0.1116257   0.2039492   2.4931373  -0.1189778  -0.5945330
  -0.0447064  -0.0839819   0.1772321   0.4335958  -0.5405812  -0.3990552
   0.1241145  -0.4737331   1.0231156   0.1113851   0.1231931  -0.0284792
   0.2006154   0.5720647   1.1652359  -0.1867002   0.5083860  -0.5749530
  -0.2423311  -0.2090665   0.3971116   0.9755323   0.5438293  -1.1915641
   1.1940991  -0.4456845   1.0331758   0.2495915  -0.2206329   0.0533757
  -0.1774979  -0.5675042  -0.3947946  -0.0796414  -0.6461381  -0.5051260
  -0.1339513  -0.2669197  -0.0926483   0.1787241  -0.3503533   0.8408191
   0.1594898  -0.0687081   0.6092569   0.0080842   0.0339614  -0.1434713
   1.0754838   1.3924791  -0.7088436  -0.1543703   0.0292793   0.3728220
   0.0553708  -0.0482057  -0.0634182  -0.5425988   0.8836793  -0.1117939
  -0.4680673  -0.9412346   0.5343680   0.2657451   0.1640507   0.1065173
  -0.1397978  -0.2552214  -0.4292668   0.5044452  -0.7647117  -0.9214339
   0.1318531  -0.1480342   0.4054775  -0.3728015   0.5488080  -1.7140826
  -0.4397545  -0.3638897   0.2296281   0.2574551   0.1205868  -0.0370147
   1.9817889  -0.5665529  -0.5364120   0.3230062   0.2570354  -0.2595180
   0.1396166   0.1208577   0.0544390  -0.3415675  -0.7928320  -0.5546970
  -0.0020683   0.5425472   0.0141745  -0.2966384  -0.0745186  -0.3206783
  -0.2274605  -1.1939318  -0.0721046  -0.8027449  -0.8929961   1.5547972
  -0.0385196   0.2331447  -0.1043334  -1.3894788  -0.3326674   0.2793823
  -0.0921643  -0.6717740  -1.5727502  -0.2817778   0.0721412   0.0058020
   1.0423825   1.1293813  -0.1702560  -0.4704853   0.3199933  -0.2011329
  -0.3027864   0.4000839   0.1755200   0.3023221   0.9235360   1.7929587
  -0.6839370  -1.5476527   0.0929986   0.0030883  -0.1422375  -0.0605294
  -0.7427138   1.1608274   0.4282193  -0.2231947  -0.6408858   0.5146310
  -0.0999218   0.0979079  -0.2378781   0.3904820   0.8298033   0.6998058
   0.1545982  -0.0226568  -0.1240354  -0.0340750  -0.0373496   0.0481545
  -0.7357271   0.4247383  -0.7253857   0.8764842  -0.0503954   1.5437442
   0.1277432  -0.2708330  -0.1346713  -0.1347948  -0.7592913  -1.0479205
   0.0118258   0.1093830   1.0797901   0.1798363  -0.0747777   0.1206627
  -2.1920139   0.3712477   0.6660953  -1.4319844   0.3435584  -0.7065590
   0.4470220   0.0570788   0.0903229  -1.0576832  -0.5817252   0.4645508
   0.1305726   0.4328473   0.5104478  -0.0694168   0.0642133  -0.1661089
   0.6979897  -0.6719479   0.7064607   0.0985035  -2.6196122   0.4003509
  -0.0299263   0.0910365  -0.0814386  -0.8338583  -0.6625805   1.2861750
   1.8151721  -0.4461368  -0.9471986  -0.1656364  -0.2380452   0.3732509
  -0.1442309  -0.0688367   0.5865634  -1.7260653  -0.5303846   1.0505783
  -0.5512802   0.1538344   0.3254760  -0.4959947   0.6969124  -0.4336305
  -0.2656293  -0.5375576  -0.7251146  -0.0483454   0.2122788  -0.1037616
   0.9048164  -0.2930694   1.0441001  -0.3307225  -0.0066146  -0.5824616
  -0.1498829  -0.0158641   0.1665394  -1.0060511  -0.0204840  -0.6222123
   0.4271604   0.0553598  -0.3538306   0.2344228   0.2195694   0.1891139
  -1.2474110   0.2367453  -0.5670472  -0.1990926   0.3959082   1.1168970
   0.1972389   0.1627406   0.4254861  -1.3638836   0.9422915  -0.5891499
   1.1768617   0.2793160  -0.3561488  -0.0386550   0.1047046  -0.5400164
   0.0411564  -1.5843770   0.5279507  -0.1375239  -0.3019791  -0.0493993
  -0.1659741  -0.3019638  -0.0290116   0.2090607   0.3688395   0.2609008
  -0.8244349  -0.3986886   0.4417887  -0.1016553  -0.1586238  -0.3626099
  -0.7234528   0.0218329  -0.5579170   1.7582346  -1.1264585   0.3819195
   0.0409794  -0.3277435  -0.0752210  -0.2459008   0.2076346  -0.5813484
  -0.7728921   1.0938855   0.2779149  -0.2075077   0.4211203  -0.0892445
   0.3161703   0.7462266  -0.2352098   0.2150913  -0.1818192  -1.2439036
  -0.1091302   0.0325632  -0.1941375   0.0191545   0.1328418   0.9835413
   0.4624824   0.3686157  -0.5954933   0.0472637  -0.1433227   0.0781282
   0.3286807  -1.2600921  -1.5387203   0.3393494  -0.4728491   0.3415910
  -0.0955669   0.3375616   0.2534991   0.0506255   0.4767606  -0.0987336
  -0.0863967  -0.8913474  -0.2045699   0.0173360   0.2324347   0.1920940
  -0.3696048   0.2514245   0.5827814  -0.0416460  -0.6985886   0.3839266
  -0.2049582   0.2123125   0.1150268   0.9199363  -0.8001239   0.7136438
  -0.9233325  -0.1204482  -0.0963345   0.1884040   0.1628440   0.2764059
   1.5144117   1.0505655  -0.3215955   1.2225094   1.1144097   0.8621548
  -0.1970491   0.0438724   0.0321336   0.0787885   0.8177813   0.2612618
  -0.1352408  -0.5384842   0.8371428   0.0172093  -0.0491144  -0.1344371
   0.6953985  -0.8556605  -0.7368769  -0.4654578  -0.1966188  -0.9221141
  -0.0703136   0.3281077  -0.0418272   0.5805318   1.0659311   0.3577091
  -0.1965763  -0.0977074  -1.2788277  -0.2820801   0.0286821  -0.0255964
  -0.7180071  -0.5399869   0.0006846  -0.7332651   2.6118574  -0.4920625
   0.0030216  -0.0419116   0.1906980   0.3917752   1.0342390   0.3120078
  -0.4429050  -0.1672133  -0.1185200   0.3309561  -0.0864926   0.4129220
  -0.1905198   1.0009297   0.8244887   1.0371303   0.1462757   0.6471061
  -0.1891601  -0.1330442   0.0790706   0.4489583   0.0772416   2.1876293
  -0.5707248  -0.8270395  -1.2081997   0.1399389   0.0922798   0.3049569
  -0.6684512  -1.7027605  -0.7135433  -0.1364844  -0.7221575   0.0795071
  -0.0126925   0.1893733  -0.2158535  -0.7405017   1.1234628   1.1626134
   0.9062670  -0.8758203  -0.7013631   0.4819001  -0.0875574   0.3168299
   0.8933439  -0.4337819   0.6960423  -0.6312559   0.0563639   0.5639064
  -0.2887530  -0.2906349  -0.2237992  -0.8818879  -0.4629333  -0.4031135
   2.4159190   1.3677173   1.5129947  -0.3054451  -0.2337668   0.0510576
   0.6329157   0.0661107   0.7040007  -1.1637418  -0.4552876  -0.1242107
  -0.6733650  -0.0892032  -0.1919108   0.4898353  -0.7942199  -0.4104715
  -0.2244231   0.5326348  -1.1113444   0.0246074  -0.0307324  -0.2848566
   0.8497867  -0.6873694   1.2230862   1.5660786   1.1433596   0.7465058
  -0.1925962   0.0022992   0.3895351  -1.3982905   0.5592756  -1.3346161
   0.5748855  -0.5253054  -1.3597599  -0.1876857   0.1848164  -0.0241287
   1.0888155  -0.6857721  -0.5626169   0.8739493  -0.2104951   0.9694175
   0.3052319   0.0286300   0.0753364   1.0710452   0.6001141   0.1306726
  -0.6494374  -0.3401182  -0.0096805  -0.0068040  -0.1633208  -0.0327754
   0.0890140  -0.7294415  -0.6954166  -0.1316616   1.3746700  -0.0486016
   0.0416669  -0.2367888  -0.1936375  -1.2773299  -0.2743316  -0.0885174
   0.0379503  -0.7879746   0.1968715   0.0417558   0.0349740   0.0100460
   0.0709724   0.6561520   0.3409373   0.7643761  -0.3906887   0.2381129
  -0.1460889  -0.3304377  -0.1437498   0.5068663  -0.6316247  -0.1216609
  -0.7618323  -1.1144671   0.9734768  -0.1314210   0.1833301  -0.3971574
   1.4686621  -0.5833514   0.2596506   0.5039940   0.8627971  -1.4945799
  -0.0105922   0.1321958  -0.5350025   1.1058004  -0.0323904  -0.6369024
  -1.0572736   0.2434873  -0.2422038  -0.0976905   0.2555608  -0.2439443
   0.4698987   1.2317695   0.7391930   0.6230949   1.4181491  -0.9268534
   0.0452004  -0.2372497  -0.1623581  -0.1768125   0.5751696  -0.8515393
  -1.2131821   0.7062009  -0.6141252   0.0505705   0.0693976   0.2114473
   0.3369484   0.4789274   1.7449287  -1.3717543  -0.4452424   0.9008797
  -0.0872054  -0.0619371  -0.0559818   0.1348760  -0.8067753  -0.8455532
   0.3947098  -0.3968024   1.3257572   0.0187103   0.0331569  -0.3800294
   1.4005578   0.0288663   0.8536582   0.7070751   0.1596847  -0.0856868
   0.0982235  -0.3507746  -0.4176534  -0.0361318   1.3246894   0.0364446
   0.6784863  -1.1744609  -0.8914298  -0.0232295   0.1124053   0.0001551
   1.1382434  -0.3676114  -0.0473825   0.3233212  -0.2151775  -0.6743323
  -0.0241027  -0.0893361  -0.1461444  -0.4477291  -0.3806487  -0.0755149
  -0.5379231  -0.2073220  -0.1924675   0.1678172  -0.1198214   0.2736217
  -0.5839962   1.4703583   0.6937268  -0.6688479  -0.0341893   0.0560681
  -0.2057365  -0.2115134  -0.4163528  -1.5355368  -0.7412544  -0.0625384
   1.0716039   1.5558642  -0.6597296  -0.2941008   0.0925976   0.2314179
   0.2086976  -0.6542390  -0.6892689  -0.1855318   0.0384882   0.0385439
  -0.2814335  -0.0247582   0.2349936   0.3488600   0.6640151  -0.7986780
   0.4607460  -0.1292738   0.0496482  -0.2687842  -0.3228672  -0.1052436
   0.1742733  -1.4338864   0.1541112   0.6370171  -0.1289952  -0.5296484
  -0.5781947  -0.2403981   0.1097963  -0.6122432   0.2057570  -0.3506695
  -0.0485657  -1.0722768  -0.7370320  -0.1642388  -0.2927007  -0.2400789
   0.3333434   0.1376506  -1.0103238  -1.0143412  -0.7713083  -0.9191626
  -0.1913919  -0.0222819   0.2537689  -0.2081408  -0.1094982   0.2632601
   0.7379970  -0.8003002   1.3368135   0.0017297   0.3388430   0.3374381
  -0.5037888   0.7473242   0.7392336   0.0110517   0.3979133   0.4902373
   0.1299224   0.0792325   0.1581260  -0.2668117   0.7633009  -0.3515511
   1.2529888  -0.6924962   0.0189735  -0.1043389  -0.1324130   0.0957376
   1.3526262   0.3742916   0.2967660   0.4898962  -0.8260746   0.1894158
  -0.1628032  -0.0281790   0.0643634   0.4273488   0.4435408  -0.4670681
  -0.4118762   0.1731387   0.3415618  -0.2120965  -0.3461874   0.1230051
  -0.6129312  -1.0446323  -0.3896226  -0.3237175  -0.7143544   0.0776153
   0.1624204   0.1013585   0.2606654   0.3140978   0.1159413  -0.0511431
   0.4292752   1.3636040  -0.2832171   0.2373956  -0.1320149   0.1320780
   1.1792669   0.1882757   1.7214170   0.0348798  -0.5550724  -0.2208216
  -0.2922409   0.1446737   0.1181387  -0.0708401  -0.6035096  -0.2357321
  -0.2999351  -0.6653905   0.2935398   0.1737895  -0.2885511   0.1007277
   1.4346162  -0.7045681  -0.3106763   1.1009353  -0.5683527  -0.6014866
   0.2248556   0.0432539  -0.0065508   0.6069199  -0.0236241   0.9843553
   0.2820222   0.5585663   1.9307580   0.0441323   0.1129303  -0.2263697
  -0.0252110  -0.6308482  -0.1798589  -1.0092389   0.1715702   1.4021767
  -0.0315534  -0.2997582  -0.2826170   0.0475678  -0.9203670   0.8897965
   0.3625666   0.8693780   0.4673015   0.2770012   0.0874976  -0.1233076
   0.8717766   1.0154918   1.3785880  -0.3993145   0.4967110   0.9279636
   0.3203754   0.0584139  -0.0310253  -0.2289334   0.5870141  -0.2569750
  -0.6227040   0.1591457   0.3104549   0.0979006   0.4172808   0.0558703
  -0.6503995   0.8969767   1.0674827  -0.3817375  -0.9179744  -0.9978469
   0.0556090   0.0382591   0.1054167  -1.8364005  -1.4243950   0.2047792
  -0.8222722  -0.7631991  -0.6274004  -0.0575751   0.3193546  -0.0427361
  -0.0129542  -1.3100409  -0.8599807   0.4864796  -0.8899104   0.7714634
  -0.2141234   0.2658699  -0.1171162  -0.2847603   1.5793814  -0.1568065
   0.6075332  -0.4271446  -0.5073177  -0.0080945  -0.1584309   0.0717974
   0.6920233  -0.5022796  -0.8025162  -0.1328168  -0.2904173  -0.2282488
  -0.0942164   0.2114641   0.1024328  -1.3208461   0.1231288   1.5687595
   0.9526969   0.7591503   0.6273099  -0.2083146  -0.1343401  -0.3144409
  -1.6438759  -1.0723118  -0.6890144   0.2702294  -0.4309886   1.2346109
  -0.1561153  -0.0878289   0.1673025  -2.9104504   0.5526941  -0.3494083
  -0.7873219  -0.1291776  -1.3871673   0.0498656   0.0107949  -0.0298602
   0.9081785   1.3743489   2.9265429   0.4451727  -0.0552453  -0.0693504
  -0.0524718   0.1912010   0.0501433   0.8439028  -0.3926381   0.0835159
  -0.3427684   0.4820195   0.8792169  -0.1475675  -0.0080681  -0.0542516
  -0.2555566  -0.6791725   1.0232425   0.0827095  -0.4362437   0.1706202
  -0.0505460   0.0906580   0.1883241   0.0701567   0.3119297   0.2081214
  -1.2948354   1.0900426  -0.0503051  -0.2517768   0.1727448   0.5081988
  -2.1532687   0.5364406   1.6771434  -1.6615030  -0.6886608  -0.0061038
   0.4849716  -0.1029927   0.2452163   0.5824396  -1.6901507  -1.5365679
  -0.1186030   1.0535341   0.3209346  -0.0989768  -0.0993712   0.1657096
   0.4619137   1.1867708   0.4250539  -1.2177964   0.0431415   0.1044103
  -0.1963902   0.1003207  -0.3049003   0.9605193  -1.3033301   0.9209417
  -0.2301360  -0.0635022   1.0720184  -0.0018998  -0.4355571  -0.1371003
  -0.5782601   0.2619421   1.0942960   0.2541654  -1.5816932   0.8812371
  -0.1098901  -0.0790686   0.0169609  -0.5399606   1.3817837   0.6565331
   0.1074517   0.4926391  -0.2591979   0.5483456   0.0423147  -0.0424543
  -0.4631883   0.1782044   0.7714987   0.1492130  -0.0403385  -1.0373403
  -0.1602992  -0.1305597   0.0238261  -1.4888693   1.0018944  -0.0181175
  -0.2944676   0.4397972   1.0677314  -0.3473653  -0.0717715   0.0700959
   0.6551225   0.4940991  -1.1202353  -1.1142117   1.1546516   0.8552545
   0.0457043  -0.3783145   0.0925685   0.3755846   1.0450989  -1.3922202
   1.4122944  -0.7270391  -0.2180114   0.2148904   0.2001493   0.0195944
  -0.2713636  -0.6405230   1.1291872   0.7914686  -0.5441774   0.1207711
  -0.2303217   0.1105344   0.0536281   0.0471802   0.6504575  -0.8177670
  -0.9869665  -0.5267315   0.5200599  -0.1605899   0.0454291   0.0899711
  -0.2579515   0.1391265   0.9687564  -0.3739364  -0.2452668   0.9133677
  -0.2178461   0.1779021   0.1048319  -0.7977361   0.3447593  -0.2907614
   0.2322064  -0.8102393   0.4457257   0.2294858  -0.0051982   0.1099964
  -0.6744907  -0.1745762   0.1607333   1.3548160   0.3555413  -0.2354753
  -0.1923351  -0.1282493  -0.0485250   0.5398808   0.8258818   0.0266807
   0.7520723  -1.2932216  -0.0210299   0.0349958   0.2576042   0.0445482
  -0.9694792  -0.0232462   0.0946489   0.9845336  -1.1574572   0.7564976
  -0.0339035   0.0187682   0.1515938   0.0647729   0.1227294   1.0594135
   0.2956827   0.2722420  -0.6953805   0.0390885   0.0042514   0.0396245
  -0.6314320  -1.5459457   0.0202519  -1.7977260   0.1556517  -0.2832773
   0.1458860   0.1316643  -0.2623600  -0.4767825   0.8603952   0.2536464
   0.3380457   1.8992390  -0.8216461   0.1641610   0.1135398  -0.0647498
  -0.6452636   1.3039321   0.2392561   0.1370484  -0.0211201   0.0904580
   0.1383859   0.3506767  -0.0796495   0.1204448   0.1441855  -0.1997858
  -0.3569227   0.2381088  -0.1229590  -0.0746083  -0.3871447  -0.0432269
   1.0173000   0.9683051   1.0058220  -1.0659877  -0.6962087  -1.8644973
   0.0000218  -0.1280460   0.2040094  -1.1207864   0.0145657   0.9224900
  -1.0445505  -1.5915552  -0.4090880   0.2512385  -0.1650291  -0.1105749
   0.1697182  -1.1228625  -0.4896121  -0.7427200   0.2587394  -0.3094717
  -0.1318412  -0.1124921   0.3149841   0.5116020   0.1740141   0.6171535
   0.0596888   0.6773003  -0.3001315   0.2222181   0.1441732   0.0372817
  -0.1168930   0.4316196  -0.0865743  -0.2493851  -0.7780227   0.3457736
  -0.0190623  -0.0727598  -0.2015225  -1.3118471  -0.8015075  -0.0147298
  -0.2548482  -0.7445600   0.5169938   0.0868446  -0.1221257  -0.0067251
   0.0832715  -0.2907442  -0.2099505   0.5297972  -1.5158048   0.8136578
  -0.3467087  -0.0825786   0.0518211   0.6893950   0.2863869   0.4258688
  -0.0433592   0.1468121   0.3166102  -0.1366344   0.2583863  -0.0948888
  -0.6781520  -1.1843706   0.0376065   0.3454485  -0.4364352   0.5427689
   0.5674074   0.3482406  -0.0895008   0.3886100  -0.2599205   0.6193700
   0.8535724  -0.6267434   0.4024635  -0.0578107  -0.0801686  -0.2298484
  -0.7156542  -0.3485111  -0.5821437  -0.0348416   1.3159196  -0.7889043
   0.0072039   0.2162962   0.0345702   0.0392867  -0.2305802  -0.2130686
  -0.0322907   0.9269526  -2.0667969   0.1375965  -0.3248577   0.1014871
  -0.3304208  -0.6771252   1.1586078   0.7297826  -0.1962194  -0.8814458
  -0.0363402  -0.4858169  -0.3970223   0.6098511   0.1446121  -0.5796243
  -0.3763353  -0.1556893  -0.0079943   0.1059613  -0.2178527   0.1172444
   0.1625221   0.2382082  -1.1446555  -0.7082331  -0.5721139  -0.8637029
   0.0635544  -0.0189886  -0.0945017   1.7754894  -0.4631467  -0.8342102
   0.3167942   0.8806966  -0.5361858  -0.0260340   0.4053747   0.4751405
  -0.9249149   0.6608840  -0.6261888  -0.1774800   0.3785409  -0.4605920
  -0.0653094   0.0086267  -0.0226082  -1.3806032   0.3610713  -0.5940138
  -0.1806162   0.0162227  -0.8463093  -0.1257014  -0.3192186  -0.0354241
   0.2372147  -0.7797113  -0.0618193  -0.8923028  -0.5465742  -0.0509297
  -0.1767741   0.2065988  -0.3347329   0.3492538  -0.0088890   0.2765067
   0.2799188  -0.5970324   0.3465488   0.2399972   0.0398679   0.1681779
   1.4744608  -0.6972623  -0.0857868  -1.2309050   0.9684439  -0.3401423
  -0.2137546   0.1440123   0.1867544  -1.0621508   0.4730038   0.4242138
  -1.9432398  -0.5221504   2.0285293   0.1161630   0.0589257  -0.2115415
  -0.0569007   0.2301822   1.1739920  -0.6562648   0.5172165  -1.0086740
  -0.4030734  -0.1282148  -0.1941834   0.1393904  -0.9208599   0.8546248
   0.5801418   1.4865783  -1.0583209  -0.2264863   0.4050869  -0.2688003
   1.3016535  -0.3780483   0.1022197   0.8046993  -0.7042835   0.0847033
   0.0045176  -0.1972440  -0.0702309   0.6607354  -0.6503705   0.0465841
  -0.4415680  -0.3393659   0.1279356  -0.1408751   0.1668256  -0.1375940
  -0.6369905   0.1973715   1.0149616  -1.3848143   0.9573710  -0.1728599
  -0.0966078  -0.0864617   0.0324046  -1.3515289  -0.3680228  -0.2954916
   0.6660357   0.3887808  -0.8931277   0.0043193  -0.1720720   0.1404859
   1.1148486   0.5166293   0.9987941  -1.2989167   0.5711739   1.0605124
   0.2182281  -0.1534123  -0.0859606   0.4152648  -0.2836549  -0.4597866
   0.5678374   0.7944792   0.8433808   0.3325893  -0.1380546  -0.1475842
  -0.5984679  -0.4593509   0.7119847  -1.0850121   0.3231439   0.8935984
   0.2643221   0.2256887  -0.0454344   0.1139957   0.5295487   0.8205510
   0.1663892  -0.1735968   0.0643041   0.3340988   0.3351755   0.0353083
   0.6754317  -1.4182543  -0.5809153  -1.5153040   0.3602531  -1.1054989
  -0.0146341  -0.0842446  -0.2513034   0.8169868   0.3984539  -0.4582736
  -0.5570517  -0.2273952   1.0545423   0.4571246   0.2456346   0.1028887
   0.0894696   0.0989648   0.6674441  -0.0996816   0.0694836   0.7482834
  -0.0589195  -0.4609465   0.0672061   0.2946895  -1.1004846  -0.4699162
   0.7089978   0.1906403   0.0716535  -0.0569651  -0.1026093  -0.0981812
  -0.0963172  -0.9001558   0.1334008  -0.7711619  -0.5673290   0.3850542
   0.1630036   0.1444907  -0.0054886  -0.2142650  -0.7792715  -0.1374647
   0.0044089   0.5524323  -0.0745763  -0.0886963  -0.2712451   0.2974856
   0.1432504  -1.1374317  -0.2203730   0.2717058  -0.2719525  -0.9548568
   0.1089827  -0.2337179  -0.2336144   0.5862784   0.8833202   0.8025949
   0.4865294   0.1255295   0.0084110   0.1477182  -0.1661271  -0.3977307
   0.0543300  -0.2453643   0.0785764   0.0934355  -1.0687533  -1.5267396
   0.4183232   0.0019740  -0.0109152   0.0976154  -1.1761186  -0.2014895
  -0.1981428   0.3744650  -1.5868488   0.1753605   0.0846355   0.0589214
  -0.5608515  -0.6748533   0.3138396   1.4668829   0.4017379   1.0574557
   0.2176709   0.1473043   0.2171933   1.2859155  -1.2477504  -0.1360309
  -0.5477310   0.1087006   0.7869549   0.0616519  -0.1743025   0.2315778
  -2.1117380   1.4184637   1.0020838  -0.6171309   0.1115963  -0.6421160
  -0.0247955  -0.2179112   0.1581726   0.4908287   0.9162825  -0.8140924
  -0.6156517  -0.8587799   0.2066330  -0.3086382   0.3229653   0.1726000
   0.3779882   0.1390059   0.1591167   0.7603439  -1.1615764   0.6156864
   0.0599661   0.1165722   0.1797215  -1.2778342  -0.2929802   1.0938552
   0.3116959   0.5196724   0.3797307  -0.0216991  -0.0432884   0.3858714
   0.2330778  -0.1088482  -0.6504162   1.4078764   0.7330443  -0.7799347
   0.0998365   0.0255737  -0.3003293  -0.4083278   0.1999697  -0.6783220
  -1.2748142  -0.1639740   0.7212731  -0.1546311   0.2954166  -0.1310101
   0.0267641  -0.8297802  -0.7986762  -0.8344323   0.9997622   1.0282470
  -0.1913874  -0.0468430   0.0509808   0.4399151  -0.4553450   0.1786818
  -0.2158708  -0.2284858   0.0205828   0.0447266  -0.0198315   0.0237287
  -0.5801309  -0.0133950  -0.0947030   0.8989525  -0.1003693  -0.4108726
   0.2322846   0.2840487   0.0518328  -0.0895291   0.7432307   0.1710035
  -0.6007435   0.0816680   1.2081185  -0.0281374   0.0182803   0.0729282
  -0.7098171   1.9397360  -0.5766764  -0.7462072  -0.1399712   0.3494442
  -0.2156889  -0.1751530   0.1360948  -0.4669507  -0.6286897   0.2799793
  -0.8787338  -0.5677316   0.5598264  -0.3034148   0.0762182   0.3273350
  -1.5958356  -0.4923417  -0.4196870  -0.8169047   0.4164949   0.0909755
   0.1929902  -0.0442393  -0.1201620   1.2058273   0.0380613   0.2828821
  -0.6885383  -1.3855166  -2.1619129   0.1125413  -0.1063014  -0.1224996
  -0.2128199   0.1877573   1.8384219   0.6657704  -0.6343854  -0.5068964
   0.2433440  -0.1880872   0.0093584   0.9857512  -0.2987615  -0.6700403
  -0.9678141   0.6768243   0.7073032  -0.0809453  -0.0991654  -0.2863783
  -1.0547786   0.1100995   0.7259798  -1.2808044  -0.1104014  -0.2416544
   0.2567844   0.1276101   0.0492045  -0.4205112  -0.5729844   0.0704328
   0.0763946  -0.4221120  -0.2501935  -0.1757402   0.1387759   0.3542551
  -0.0526987   0.0195720   1.4626305   0.1915715   0.6131906  -0.6473300
  -0.2823364   0.0874411   0.1750779   0.3427790   1.0159014  -0.0538144
  -0.3217548   0.9970538  -0.9746713   0.0748995  -0.1234119  -0.2635752
   0.6828236   0.0513321  -0.3378710  -1.1624578   0.6149063  -0.9702329
   0.2136247   0.1488388  -0.1995726  -0.7546887  -0.1367206   0.1221958
   0.7119543  -1.7141440  -0.7146007   0.0316875  -0.0716531  -0.1321107
  -0.1948417  -1.6330434  -0.0883420   1.1156634  -0.8913657  -0.7662241
   0.0613327   0.2300007   0.1224522  -0.0475993  -0.8756504   0.1618335
  -0.7735596  -1.0637430  -0.4885885  -0.0225289   0.2202518  -0.1967511
   0.1273603   1.1600188  -1.3711820   0.8885018   0.2665028  -1.0067005
   0.3697689   0.0235996  -0.4110328   0.2928228  -0.7665793  -0.0649498
   0.5818595   0.1962460   0.1317563   0.0110933  -0.0209446  -0.1315072
  -0.8783854  -0.3783136   0.3570906  -0.0282745  -0.3588090  -0.9567854
  -0.0731953  -0.0336906  -0.1959394   1.1712752  -0.5439747  -0.4136002
  -1.0996137   0.9353784  -0.1535170   0.0086141  -0.0689572  -0.0361534
  -0.2288727  -0.4468533   0.3061009   0.0032348   0.5633245  -0.2385642
  -0.3388027   0.0319325   0.0172868   0.5229621  -1.0313843   1.0695032
  -1.2306399   0.3516182   0.0144916   0.0502471  -0.0327418   0.2088664
   0.1978700  -1.0339416  -0.9496705  -1.0517995   0.1662291   0.4997429
   0.0197361   0.1329282  -0.0031973  -0.5289433   0.1450313   0.0956711
  -0.3470270   0.1923486   0.7752485  -0.0447804  -0.2268687   0.4706511
   0.8232116  -0.2918272  -0.1210458   0.3158412   0.1716930  -0.5490645
  -0.1918591  -0.0304631  -0.3705627  -0.3491588   0.4483504   1.3354363
   0.2208387   1.3695145   0.1337591   0.0262721   0.1025426   0.1998958
  -1.3224870   0.3547088  -0.5112725   0.7495990   0.0006395  -0.2481341
  -0.0010761   0.1802385   0.1359757  -0.7171152  -1.1375475   0.3985696
  -0.0063211  -0.0273966   0.9429861   0.2058117  -0.3063565  -0.3251119
  -0.6782469   0.3424542   0.4058062  -0.2643541  -1.0187678   0.5632215
   0.1458935  -0.0325616  -0.1638893  -0.4586865  -0.2286629   0.6509831
  -0.2274207  -0.2245397   1.8108707  -0.3574227   0.2944170  -0.3323973
  -0.7612851  -0.4960133   0.2284852  -0.7817007  -0.7570326  -2.5916041
  -0.0461755   0.3329633   0.0325593  -1.0532725  -0.5673943   0.0538786
  -0.8564082  -1.9670911   1.1091196   0.1861214  -0.0337608   0.0439493
   0.1953686   0.0869932  -0.4396821   0.4216390  -1.7118670   0.1113444
   0.1879055   0.0730709   0.0755254  -0.3684455  -0.0360231  -0.7459086
  -0.6549017   0.5116166  -0.5742955  -0.1524918  -0.0351437   0.2383988
   0.0673809  -0.5695052  -0.8224490  -1.6313346  -0.0512656   0.2866124
  -0.3107243  -0.2120151  -0.0425205  -0.0416997  -0.1181899  -0.3097036
  -0.3367174   0.0487851   0.0822574   0.0642441  -0.2277272   0.1506256
  -0.8941846   0.1537392  -0.8299458   0.3557742   0.2360004   0.3451715
  -0.2369465   0.1434883   0.0556785  -0.1656809  -0.5262182   0.0054896
   0.1696132   0.9706307  -0.0705673   0.1720705   0.2677323   0.2960727
  -0.1899398   0.5860527  -0.1772686   0.7879369   1.9525496   0.2559273
   0.1768815   0.3652305   0.1537655  -0.7590884  -1.4719302   0.4278402
   0.0354841   1.1469359   1.4167349  -0.2940378  -0.1679643  -0.2769226
   0.0638402  -0.3547887   0.3488673   0.0571636   0.0084182  -0.5736799
  -0.0529706  -0.0163351   0.2874057   1.0110002  -1.5123804  -0.1081458
  -0.8512312  -0.9987758  -0.2934353   0.0734138   0.1098701   0.1137122
   0.6460055  -0.3567412   0.5888667  -0.3189417  -1.2249080   0.1905727
   0.1992950   0.2184067   0.1732877   0.4841612  -1.3991746   0.4173085
  -0.8013413   0.0106109  -1.3616879   0.2143045  -0.0545346   0.0037893
   0.9274313  -0.1977394  -0.1969918  -2.2267408  -0.5078930  -0.6492782
  -0.1579484  -0.0594129   0.1453965  -0.5474408   1.6705599  -0.2435201
  -0.0710901  -0.1015878   0.2940149  -0.1823672   0.1695568   0.1116027
   0.1765971  -0.1328710   0.3251296   0.8479082   0.9571753   0.1221303
   0.0404780   0.3056985   0.0737577  -0.2475143   2.5112186  -0.5023324
   0.0189678   1.1978806  -0.8165498  -0.0285751  -0.0996037  -0.1456998
  -0.0409269  -0.9340885  -1.4064111   0.0958503  -0.0393123  -0.0794225
  -0.2701691  -0.1627515  -0.1239672  -0.0309994   0.4167647  -0.1093398
  -1.1587691   0.5051265  -0.2995110   0.4578876  -0.5051039  -0.0525673
   1.0780311   0.6396541   0.0857885  -0.4635363  -1.0074465   0.2342428
  -0.0828744  -0.2603649  -0.0901136   0.6781349   0.8611743  -0.7655523
   0.2436020   0.3721487  -0.5134353  -0.0216375  -0.1058111   0.0419453
   1.8868518   1.1688888   0.5421452  -1.3332998   0.6437462   1.1329605
   0.1761983   0.1093476  -0.0517788  -0.1106787   1.1025841  -0.3378074
  -1.1740752  -0.6046032  -0.5150992  -0.0760038  -0.0212830  -0.0493568
  -0.1594815   0.6678695  -0.1551946  -0.4050356  -0.6255042  -0.9365701
   0.2423106   0.0250081   0.1199294   0.1466853  -1.7916181   1.4866400
   0.3337923  -1.3844543  -0.3774217  -0.5400177  -0.4285478   0.1267287
   0.2474983   0.1658856  -1.5545779  -1.0762132   0.4199042   0.3500932
  -0.1080798   0.0721508   0.0681071  -0.8496935   0.2711847   0.6842015
  -0.6691242  -1.3254014  -1.4025410   0.0470527  -0.1389875   0.1408807
  -0.8112418   0.9257744  -0.6683671  -0.9968997  -0.8394491  -0.7813053
  -0.2827665  -0.5445916   0.0799569   1.0408618  -1.1251317  -0.8031809
   0.4811468  -0.6806377   0.2861571  -0.5687558  -0.4357391  -0.0715290
   0.4228086   1.0073672  -0.5111858  -0.7384899   0.5210011   1.2204187
  -0.0266854  -0.0483623   0.0011428  -1.2210982   0.1667233   0.2589513
  -0.8617437   0.0802376   0.8820854   0.0561517  -0.3047924   0.4625710
   0.7968068  -0.6227552  -0.0193056  -0.7049385   0.7227409  -0.6953371
  -0.0765677   0.0028757  -0.0585268   0.4784935   0.5399986  -1.7149587
   0.7895572  -0.7824102  -0.2845516   0.1896403  -0.1080651  -0.0532593
  -0.5043732  -0.5284388   0.3451597  -0.7181549  -0.7615016  -0.4455238
  -0.2479346  -0.1786514   0.0321750   0.8332598  -0.8175549   0.0223807
  -0.0676146  -0.0126246  -0.6696727  -0.0366486  -0.0088999  -0.0379943
   0.3673611  -0.3003050   0.2024479  -0.4406833  -0.3965689   0.0976440
   0.0323092  -0.2003770   0.2029211  -0.2711095  -0.8596973  -0.5317564
   0.9551761  -0.0343308   1.6463557  -0.1658672   0.0898603   0.2918391
   0.0420113  -1.6549184   0.0893866   0.0654410   0.1669966  -0.0562804
   0.1329520  -0.1834993  -0.3656991   0.3133393   0.7583659   0.8009399
  -0.3246309  -0.2103895  -0.4848494   0.0931838  -0.0014550   0.1139848
   0.4441513  -0.3085416   0.2914239  -1.6500100   0.4079763  -0.4636805
  -0.2805345  -0.1394189   0.0474851   0.0746949   0.2767120   0.9231126
  -1.2774792   0.1364131  -1.0139618   0.3118654  -0.0912999  -0.1317858
   0.6025156  -0.4220880  -0.1734906  -0.7331025   0.1171023  -0.6056913
  -0.2075987  -0.2008963  -0.0252438  -0.9715183  -1.5313549   0.5391228
  -0.0281883   1.1103342   0.6436500   0.0300347  -0.0102776   0.0362992
   1.4257233   0.1459607   0.0763216  -1.2302035  -0.1098579  -0.1919786
   0.0820575  -0.2408522  -0.0757722   0.1845266  -0.7261377   0.8829430
  -0.0434836   0.4869088   0.3340059  -0.1551514   0.0086276   0.0594033
  -1.1133104   0.7531942  -0.7361082   0.4469627  -0.9508992  -0.1047902
  -0.1071852  -0.2568946   0.1098926   1.8293299  -0.0094048  -0.5972211
  -0.2964443   1.5045791  -2.0505917  -0.1456592  -0.1890463  -0.0775298
  -0.2420348   0.1760241   0.1255673  -0.0260261  -1.3982374   0.0690866
   0.0027337   0.1787195  -0.2015622   0.1978915   0.8155316  -0.0455309
   0.8877146   0.6446158  -0.8889599  -0.1214244   0.2744113   0.1051290
   1.5358367   0.5175024  -1.7046071  -0.2673773  -0.3346151  -0.2979784
  -0.3568897   0.0957412   0.0123581  -0.5137325  -0.4186567   0.1092310
  -0.1544795  -0.1241097   0.3802083   0.0624007  -0.2699756   0.1223278
   0.2710140   0.2636962   0.5879936  -0.3373303  -0.5657749  -0.0445312
  -0.1259347  -0.2798646   0.1000868  -0.0472649   0.0368817   0.0548825
   0.8113556  -0.5853671   0.9688009   0.1578906  -0.2435624  -0.0109297
   0.9559240  -0.7213245  -1.4793674  -0.5808725  -0.4695174   0.2558894
  -0.2098621   0.0838182   0.0538784   0.4475022  -0.1278484   0.1090172
   0.3504914  -0.0556185   0.4016016   0.0011746  -0.2473724   0.0475219
  -0.6865517  -0.4349559  -0.0788173  -1.0880397   0.1491241  -0.3330740
  -0.0744855   0.3372745  -0.3241884  -0.8247726   0.1149314  -0.2640856
  -0.6521113  -1.0771341   0.3803620   0.0360075  -0.2595614  -0.0250638
   0.2533368   1.6984466   0.4084473  -0.4414039  -1.0848728  -0.0596255
  -0.0405904  -0.0613488  -0.0520520  -0.6814973  -1.3071434  -0.9089633
  -0.2436543   0.7645131   0.2718001   0.0969061  -0.1463328   0.1733675
  -0.5465701  -0.4043239   0.0718669  -0.7701784   0.4770964  -0.0530285
   0.2172827  -0.1366429   0.0014828   1.3801055  -1.3841514  -1.0203144
  -0.3967027   0.4429806   0.0930507   0.0672879  -0.1103340   0.1839525
  -0.6982396   0.7277925  -0.3176531   0.0927966   1.2210176  -0.9799675
   0.0313821   0.1532394   0.2246206  -0.8994937  -0.3110405  -0.1654283
   0.3863814   0.0457684  -1.4991310   0.0033589  -0.2122109   0.0032590
  -0.4601762   1.3695618  -0.2423830   0.5715243   0.0531724  -1.0795668
   0.4041299   0.2000905  -0.1206453  -0.7604824  -0.4187577   0.0987803
   1.5381819   0.2672295  -0.4136253  -0.2808741   0.1248636  -0.0510362
  -0.2174524  -0.5318862   0.8277689  -1.8871047   1.1856947  -0.3930053
   0.1950753  -0.1676274  -0.1397907   0.3748011  -0.1414005   0.9237307
  -0.6636974  -0.2027654  -1.0051379  -0.0802806  -0.0625800  -0.0682286
  -0.5589337   0.0650395  -0.3034825   0.5142673  -0.0515636   0.2514319
  -0.1289980  -0.1011786  -0.1572830   0.2723959   1.5145112   0.7604325
   0.5308532   0.0893929  -0.5326485   0.0104210   0.2302911   0.2425010
   0.0271563   0.8098858   1.2681311   1.0937800   0.8632899   0.5693811
   0.1444936  -0.0756063   0.1386943  -0.0798447  -0.7776145   1.3590415
  -0.3782372   1.0754723   0.2058527   0.0219737  -0.2712278   0.0711373
  -0.3893553   0.4051158  -1.1965798  -0.1520858  -1.2517441   0.3158747
   0.0229905   0.1035586  -0.3604353   1.0443885  -0.5040488  -0.0038624
   0.6431747  -0.0901658   0.3712395   0.0562547  -0.1236880  -0.0180747
  -0.7008245   0.0278607   0.5562050   0.2665975  -1.3971254   0.3700496
  -0.2800768   0.0225208  -0.0942171   1.0697702   0.9236846   1.7710696
  -2.1542665   0.2674865  -0.2864720  -0.0795818  -0.1845782  -0.3737266
  -0.0392401  -0.0801883   0.2980776  -1.0279691   0.4788355   1.5239633
   0.3930714   0.0213784   0.2126193  -0.4651755   0.1660726  -0.2699046
   0.5141886  -0.8569440  -0.4543006  -0.1631244   0.4478397  -0.2222356
   0.2714381   1.6509637   0.0313756  -0.0123201   0.3742710  -1.1078892
   0.0060435   0.3312785   0.2663346   1.0115410   0.2024472  -0.4787503
   1.0499854   0.0497207   0.3777489  -0.1183439   0.3127848  -0.0586315
  -0.4373276   1.3016813   0.2380466   0.5635450  -0.8587497  -0.3339866
  -0.3746721   0.0791223   0.0285831  -0.2038618  -0.1649509   1.6796584
   0.6379905  -0.1284969   0.3562374   0.0381397  -0.3621231  -0.0758836
   1.2313855  -0.6051824  -1.4056968   1.4044063  -0.7280870   1.5783578
   0.1514509   0.1771012   0.3944834  -0.4792014   0.1490958   0.8524489
   0.7735249  -0.0974059  -0.2917094   0.1074700  -0.3043764   0.1132498
  -0.0476835  -0.9946160   0.2185703  -0.1468699  -1.0449831  -0.6447826
  -0.2538197  -0.4076187   0.0169490   0.6056668   1.0378769   0.3417627
   0.7364457  -0.5721757  -0.2797492  -0.1704695   0.0571887   0.4296790
   1.0171251  -0.2386954  -0.7416396  -0.4392000   0.2444401  -0.9279809
   0.0054682  -0.0806583  -0.0641227   1.2387471   0.1756770  -2.2305994
  -1.1594472   0.1118100  -0.1204813   0.2783281  -0.3053720   0.3007404
   0.5905401   0.2735618  -0.8983835   0.4229998  -1.5175570  -0.2940283
   0.3834184   0.1012649   0.2517925  -0.9704574   0.7280574   0.0743267
  -0.4919500   0.1874969   0.2590364  -0.0156320   0.1041964   0.3459639
   0.3646838   1.2511495  -0.6297899  -1.1137867   0.8339529   0.3597303
  -0.6947712   0.0248600   0.0636574   0.2279124  -0.3409402  -0.2761001
   1.7161043   0.6721180   0.2763018   0.2107620   0.0015859  -0.1927216
   0.5763208   0.8982148  -0.0143208  -0.9625892   0.3173379   0.8046287
  -0.2771199  -0.3460176  -0.1243880   0.1331742  -1.1011438   0.3015880
  -0.4022034   0.2782812  -0.1705122  -0.2539054  -0.1703041   0.2679125
  -0.3456907   0.5195751   0.2924695   0.5182381  -1.1297776   0.0986686
   0.0675215   0.0606176  -0.2304209  -0.0801469  -0.6173711  -0.2759922
  -0.0916377  -0.3047390  -0.7125416  -0.2181285   0.3101445  -0.1282918
  -0.6887218   0.0683869   0.0343139  -0.0772131   1.8113980  -0.4556258
   0.2314906  -0.1201371  -0.0805171  -0.6998256  -1.1380132   0.0853256
  -1.0645992  -0.2463390   1.2711317  -0.0292900   0.0486816  -0.0356602
   0.4323759   0.0238561  -0.7792240  -0.6098559   0.2311053   0.3113545
  -0.0301092  -0.3327501   0.1485685   0.9158871  -0.3274941   1.0687026
   0.3661406  -1.4030442  -0.2818536  -0.0128796   0.0024899   0.2057496
   0.1119953  -0.0160866   0.3988385   1.2823131  -0.2182379  -0.8163688
  -0.0114682   0.0105517   0.2630733  -0.3671820   0.9337458   0.3568976
   0.2347013   0.0014478   0.9568954  -0.1455376  -0.1149170   0.0809062
  -0.6640033   0.5036442   2.4049723   0.5938793   1.0311417   0.0798504
   0.0318192  -0.2672454   0.0539065   0.7421421  -0.1166211   0.0264593
  -0.2462094  -0.2389841  -0.0282615   0.0086344   0.1435575   0.0244333
  -0.7714523  -1.3165304   0.9986742   0.8887210   0.3954849   1.0233882
  -0.0109743   0.1564944  -0.1479377  -0.4326694   0.4788758   0.0299223
   1.4988695   0.8612433   1.3551097  -0.3262981   0.0318497   0.0938351
   0.8421359  -0.9343865   0.4275718  -0.6914093   1.6945425   0.8005863
   0.1615028  -0.0012763  -0.3306257  -0.0712402   0.3693647  -0.2352297
  -0.0819447  -0.2108992   0.9862024   0.0946346  -0.1429482   0.2516177
   1.1655728  -0.2983319  -0.0547993  -2.3705948   0.4376428  -0.5256996
   0.1221663   0.0793201  -0.2951191   0.1109461   0.5398899  -1.1877123
   0.5036029   0.6036709  -0.6819239  -0.1217386  -0.1879428   0.1338746
   0.7673990  -1.3023412  -1.6740397   0.0373892   0.7842690  -0.5609273
   0.1370507  -0.1708084  -0.2084406   1.5699819   0.7055531   0.6517731
  -0.6190057  -1.2705696  -0.4815416   0.0145271  -0.1242994  -0.4278247
   0.4945136  -0.0991847   1.0132121  -0.6547301  -0.4341085   0.5824519
  -0.1824560  -0.1628751  -0.1662558  -0.2446544   0.1353797  -0.0747833
   0.2118775  -0.0039642  -0.0443490   0.1766369  -0.2374651   0.1490843
   0.0108747  -0.0818683  -0.0686372   1.3588342   0.5519665   0.2761987
   0.0936948  -0.1276640  -0.3956955   0.0564943   0.1194935  -0.1235295
   0.3866398   0.0454727  -0.0686535   0.0393560  -0.1084295   0.0916590
  -1.1064558  -1.6448527  -1.8129321   1.6302053  -0.7094224   0.3596241
  -0.0206508   0.0022765   0.2295528   1.0603796   0.9015515   0.9322090
  -0.0259139   0.3062224  -0.6720972  -0.0217767  -0.2886934  -0.3461769
   0.0738743   0.4526167   1.4458687   0.5500371   0.0394434   0.5817009
   0.2566655  -0.2476060   0.0982886   1.0751995   1.2241637   1.2087712
   0.8323981   1.0217463  -0.8688973   0.0049498  -0.0116957  -0.0078558
  -0.0071308   0.0007236   0.1278104   1.0512553  -0.3407685   0.9346940
   0.1225471  -0.0759223   0.1380413  -0.2553963  -0.1016259   0.0153416
   0.7768913  -1.2363322   0.6929415  -0.1464456  -0.1350660   0.2100008
  -0.0037717   0.7484826  -0.3899183  -1.6103451   0.5835430   0.5194252
   0.1985778  -0.0378110  -0.1954625  -0.0587687  -1.1229584  -0.0685521
  -0.2651643   0.0550063   0.1106240   0.0415430   0.3725098   0.2584418
  -1.1254278  -0.1260569   0.6695750   0.0294545  -0.0978660   1.5248081
  -0.0503406   0.2585639  -0.2178443  -0.8370307   1.2254847  -0.7870834
   0.1337277   0.8419996  -0.0276873   0.2921417  -0.0733824   0.0080751
   0.6496506  -2.1286138  -0.3142957   1.2598882   0.6665798  -1.3498540
   0.1860963   0.3838447  -0.1653712   0.2430608   0.0732072  -0.8383456
   1.2053572  -0.1373302  -0.3021109   0.2932027  -0.3004875  -0.1773901
  -0.2310322  -0.3349084  -1.3003305   0.4738214   1.0718230   1.1122366
   0.0159466   0.0657913   0.1286879  -1.0958869   0.4929643   0.4684260
  -0.0655524   1.6122671   0.1643470   0.2070615  -0.0841775   0.1616843
   1.9203902   0.7629860  -0.4918765   0.0761605  -0.6718678  -0.5209059
   0.0345126  -0.2776070   0.2239433  -0.7866506   0.6794601  -0.6506878
  -0.2770905  -0.7735255   0.0754184  -0.1615609   0.0449077  -0.0980176
  -0.0155488   0.7710363  -1.1495650   1.0818990   0.5397763   0.4227249
  -0.0072248   0.2778902   0.1921145  -0.1794202  -0.3958511   0.2211303
   1.2715661   0.4865858  -0.2025901  -0.2521892  -0.3397392   0.0186422
   0.0101606   0.1174397   0.8694106  -0.7381747  -0.8895448  -0.6850737
  -0.1457920  -0.0481491   0.1007831  -0.2845952   0.5433028   0.7001445
   0.2540227  -0.2959572   0.4883126  -0.2682178   0.2557789  -0.1846400
  -0.5905564   0.5970504  -0.1614755   1.4397610  -1.0989067  -0.0235819
   0.0452516   0.1390840   0.2864291   0.5258163   0.2922768  -0.2887329
  -0.2807799  -0.7348746   0.3801120   0.2908326  -0.3745937  -0.2125405
  -2.1436625   0.5700419  -0.5559564  -1.1959234  -0.1298564   0.7399480
  -0.0499554  -0.0888936  -0.3328165  -0.4699352   0.0130485   1.1108591
   0.4959498   0.7861680  -0.6731288   0.1052192  -0.0180025   0.0745108
  -0.0868711   0.9873225  -0.8267015  -0.8050533   0.8969038   0.5911291
  -0.0777967  -0.1476843  -0.1274196  -0.7755704   0.4345232   0.4605580
   0.1262232   0.7325493  -0.4878550   0.2460293   0.3843335   0.2404118
  -0.1267609  -0.7542133  -0.4238335  -0.3460053   0.7948392   0.3142909
  -0.1422271  -0.1833576   0.0706384   0.4471442  -0.4732370  -0.8844007
  -0.7144970   0.2162589   0.6864614   0.0492501  -0.0957625  -0.1076050
   0.7689573  -0.0831300  -0.3486949   1.0720537   0.7927220   0.3596469
  -0.1552186  -0.3681344   0.0198677  -0.0538063   0.0697222   0.9510474
  -0.0168284  -1.0739510  -0.2226407   0.0118914   0.0825368  -0.0634185
   0.5097197  -0.0122643   0.4406666   0.1522271  -2.0156945   1.6090784
   0.1001375   0.1494321  -0.1336047   0.3903239  -0.1327903  -0.0252421
   1.0063567  -0.6719086  -0.9389610   0.0500939   0.0368336  -0.4691755
  -0.2637744   0.1019637  -0.6255085  -0.5513224   0.0057196  -1.3140948
   0.2091756  -0.0399704   0.0378380   2.9974376   1.0656042  -0.2096062
   0.8074993  -0.1166066   0.4606248  -0.0391276  -0.4155657   0.2243938
   0.1595554  -0.7100375  -0.6703794   0.9354547  -1.1174719   0.5159727
  -0.2891781  -0.1362981  -0.4894192   0.9185764   0.1778327  -0.6368088
   1.9733409  -0.3777828   0.8916160  -0.0645172   0.1127543  -0.0590062
   0.2675664  -0.8206780   0.7530890  -0.0829660   0.3827298  -0.6113230
   0.0255819  -0.1708959  -0.0269871   0.0732082   0.6683550   0.5322474
   0.0892742   0.6773714  -0.2121177  -0.0815474  -0.2259263   0.0021538
  -0.3556978  -0.2343680   0.1002076   0.8766105   1.1303846   0.2173028
   0.1643012   0.4089181   0.2749642  -1.6124334  -0.7560200   0.5338128
  -0.3992643  -1.4802976  -0.5937858  -0.0706790  -0.0107088  -0.0153884
  -1.0052095  -1.0859675  -1.0510187  -0.1470661   0.5474903   2.3638749
  -0.0544332   0.0551680   0.0682986   0.1617785   0.5367727   0.0748229
   0.4711665  -0.6771495   0.1467681   0.1146162  -0.0111333   0.1079177
  -0.2945066   0.3111975  -0.8288941   0.1773420   0.1765568  -0.3215034
  -0.0210541  -0.3683172  -0.2202574   1.1975980   0.1202326   0.2971374
  -0.5323285   0.8789120   0.1654709  -0.1406448   0.3015184   0.1838653
  -0.8146088  -0.1119940   1.0528623   0.5314030   0.2156556  -0.8450759
  -0.1585114   0.0403604   0.0832550  -0.5079321   0.3498749   1.1290527
   0.3417887  -0.0139910  -0.7502462  -0.0337132   0.1393792  -0.3118384
  -0.9046635   0.2165604  -1.3361478  -0.0309231   0.4297542  -0.9946377
  -0.1937281   0.0123404   0.2283201  -0.5690735   0.2239517   0.3250103
  -0.7589389  -0.4873473  -0.7094467   0.0798377   0.1743562   0.2701277
   0.1111244  -0.6229412   1.0406795  -0.0653340  -0.0545752  -0.2125751
   0.2454278   0.2415324   0.0880127   0.8731345  -0.0497782  -0.7778041
   1.7876550  -1.3044020   0.7388628  -0.0551140   0.1600843   0.1977025
   0.5600220  -0.7921754  -0.5129556  -0.2216650   0.7557952  -0.1358820
  -0.0408731   0.1434225   0.0665633   0.8143151  -0.6534657  -0.0198517
  -0.2787810   0.5988505   0.1094234   0.2670867  -0.1376255   0.0644638
  -0.9284593  -1.5545737  -0.3802608  -0.1096232   0.4822613  -0.1828402
  -0.0386622  -0.2287204  -0.0981798  -0.1550328   1.5504517  -0.5519461
  -0.2046960  -0.7616397  -0.3953915   0.1929293   0.0063674  -0.0780388
   0.7669902   0.0592652  -0.4687816  -0.1315404  -1.4995854  -0.6361780
  -0.2449079  -0.0330955   0.1758093  -0.8208707  -1.0913161   0.0616529
  -0.2646900  -0.2308200   1.4391712   0.1982435   0.1640471  -0.2149237
   0.1065380   0.3529730   0.3800742   0.4760093   0.2051557   0.2463038
   0.1166949   0.0476142   0.2028473  -0.9227162   0.1140841  -0.2901798
  -1.2365407  -0.3220685   0.1371554  -0.0420369  -0.1427574  -0.1108976
   0.4150010  -0.6682134  -0.3403204  -0.8643519   0.0430033   0.4430374
  -0.0970608  -0.2044275   0.0280474   0.4667362  -0.2659740  -1.3385833
   0.2900223  -0.6892797   0.6346427   0.2775596   0.1536460  -0.5332174
   0.7370489   1.8611745   0.5682942  -0.4834950  -0.3621679   0.0039292
   0.0239508   0.0314846  -0.0449638   0.3270042   0.6396856   0.4601925
  -0.9958442  -0.0069204   0.4806940  -0.1563163   0.0510938  -0.2211556
   0.6535861  -0.4207171  -0.2492069   0.5575739   0.9594924  -1.4800462
  -0.3011988  -0.1301539   0.2698785   0.7267811   0.5044354   1.0566865
   0.3978988  -0.3173041  -0.0111901  -0.1241635   0.1842536  -0.0329727
   1.2197732   0.1316387   0.2379731  -0.2033314   0.0245562  -0.0513794
  -0.1607553  -0.0040710  -0.0648377  -0.6532198   0.2086895  -0.6766694
  -0.0553281   0.9127525   0.1541169  -0.0368031  -0.0473499  -0.0532779
  -0.2913997   0.1494004   0.6973988  -0.8220234   0.2300453  -0.6246917
   0.3868166  -0.1001115   0.0673920  -0.0111081  -0.2454845   1.2198498
   0.0491364  -0.3555246  -0.2993307  -0.2866537   0.0286142  -0.0315229
  -0.3631276  -0.2484533  -0.4235800   1.4551547  -1.8881261  -0.0880489
   0.1694449  -0.1251212   0.0373951  -0.6120977  -0.3765528  -0.6349295
   0.7316909   0.0950686   0.3891140   0.1538219   0.0387261  -0.0699846
  -0.0144564   0.7373780  -1.4959705   0.0992498  -0.8620696  -0.5589383
   0.2547763   0.0678719   0.0177216   0.4643872   0.9515706  -0.4820851
  -0.2990246  -0.7249018  -0.3638497   0.2052535   0.0896704   0.2142962
  -0.0011911   0.7278642  -1.2018479   1.1695370   0.6241196  -0.4316030
   0.0595972  -0.1328373   0.2136846   0.5012615   3.0408136   0.2519225
   0.5799033   0.8953213   0.5593108  -0.2827799  -0.0074055  -0.0582126
  -1.1765075  -1.9940075  -0.8454537  -0.6676379   0.2264959  -0.0933368
   0.0998737   0.1018703  -0.2295738   0.4046890  -0.0418060  -0.5855374
  -0.1667006   0.9252827   1.0905251   0.0477840  -0.0784631   0.0243641
  -0.3678037   0.1294149  -0.2673882  -0.6568183   0.9147769  -0.7722268
  -0.2978486   0.2377722   0.0093312  -0.4821292   1.3220032  -0.6440229
   0.5789309   0.9281679   0.7423861  -0.1472159   0.1988558  -0.0187492
   0.9048533   0.1161438  -0.3403686   0.8159913   0.6600696  -0.0980194
   0.2319603   0.0735505  -0.2589992  -0.9789535   0.2343234  -0.7219304
  -1.6057862  -0.4856827  -1.4853237  -0.0863745   0.1737197  -0.3794985
  -0.0357081  -1.7502693   0.2969022   0.8275708  -0.0033219   0.1281405
  -0.2855641   0.1523315   0.3229612  -1.6992331  -0.7499425   0.6212475
   0.3459852   1.0184016   0.1192301   0.0448706   0.1315260  -0.0879138
  -0.6746210  -1.4744168   0.3765905   0.2220501   0.4415380  -0.7525725
   0.0608359   0.1533662   0.1612061  -0.2531194   0.0811458  -0.1718978
   0.2705422   0.5984647  -0.6621684   0.1902131  -0.1206241   0.1614771
  -1.1294202   0.8497065  -0.2755279   0.2020086   0.1700272   1.1845472
  -0.1229081   0.1721136   0.0227149  -1.1761062  -0.6369293  -0.6405952
  -0.3860292  -0.5931542   0.3357053   0.1204914  -0.1436698   0.0460444
  -0.9871649   0.2401975   0.9686902   0.4245414   0.2171380  -0.0633406
   0.1356762  -0.0281639   0.0117621  -1.2208931   0.0944816  -0.2482680
  -2.3320137  -2.4181803   0.5592277   0.1009872  -0.3216635   0.0889473
   0.9626349   0.1019795  -1.3298648   0.9412506   0.6502191  -0.0200451
  -0.0303569  -0.3076340  -0.1328980   0.5634251   0.3619954  -0.5678951
   0.3646318   0.0793664  -0.3963570   0.0960589  -0.1070699  -0.1610605
  -0.6172051  -0.2842396  -0.4064284  -0.4015514  -0.8014774  -0.1518551
   0.1645386   0.1819606  -0.1883481  -0.8412805  -0.8585991  -0.5313380
  -0.0083229  -0.4076476   0.0979535   0.2273648   0.0242615  -0.5985582
   0.7341785  -0.4853470   0.1691453   0.8405098   0.1386943   0.4367127
   0.2123492   0.2078814   0.1221896  -0.1249220  -0.7997433  -0.8426577
   1.3555721   0.8652161   0.5880537  -0.1338299   0.0388994   0.0885417
  -0.1788906   1.2255543   0.1107550  -0.0764282  -1.5740326  -0.7596214
   0.2176890  -0.0869101   0.1436038   0.2756330   1.1451463   0.7994161
   0.1240144   0.2023597   1.1247137   0.2946448  -0.2018396  -0.0247719
  -0.5929793  -0.2344049  -0.6663575  -0.6877114  -0.1247446  -1.0205444
   0.1018854  -0.1510626   0.0000091   0.0824318   0.0786960   0.7154875
  -0.3017248  -0.5906996  -1.0802028  -0.1958511   0.1202538   0.1943430
   0.7852625  -1.7462350  -0.3195016  -1.0747503   0.5832683   2.7699160
  -0.2973427  -0.1597614  -0.0152214  -0.0815705   0.2599673  -1.3237953
  -0.0382975   0.7481373  -1.4187949  -0.1024397   0.3168406   0.0717280
  -0.7411387  -0.9531787  -1.0940960  -2.0042211  -0.3804266  -0.1173124
  -0.0179041  -0.0318205  -0.0450544   1.1632037   0.0771087   1.6621311
  -0.7779301  -0.7900317   0.2927312  -0.2905827   0.1469474   0.2345217
  -0.1114374   1.0212895   0.5805381   0.5513983   0.6336193   0.0020544
  -0.0792965  -0.2712361   0.1213304  -0.1159560   0.4196388  -0.7284484
   0.8132958  -0.4052179  -0.9196200  -0.1756097  -0.2104677  -0.0228489
  -0.7182451   0.5920683   2.5150756   0.9850283  -0.3933677   0.1615375
  -0.0558242  -0.1799099  -0.1521734  -1.2657371   1.5003189   1.0546298
   0.2364472  -0.2019361   0.2180779   0.2565632   0.0288196   0.0515260
   0.0406351  -1.2041156  -1.0252581  -1.0388230   0.1115736  -0.4245231
  -0.0929591  -0.1384008   0.1326838   0.8678207   0.7039852  -0.4633927
   1.8473528   0.5417202  -0.0728812   0.0016318   0.2639286   0.0409983
   0.1487332  -0.3523316   0.1628815   0.6647452   0.1098040   1.2273857
   0.0805323  -0.1221185  -0.1478153  -0.3351033   0.9471631  -0.2207388
   1.5456575   0.5632516  -0.2700169  -0.0113234   0.3791344  -0.0094087
  -0.3747130  -0.6438366  -1.5553314  -0.0154256   0.5807435   1.0554211
   0.0882552  -0.1066397  -0.0024206  -0.2566612   0.3113543   0.2322822
   0.4928770  -0.3241714  -0.6033177   0.0039589  -0.0746542   0.1535563
   0.4274928  -0.6462675   0.2105295  -0.1554548   0.7760001   1.5350508
  -0.1498996   0.0226198  -0.1600797  -0.1863520  -0.0110410   0.1214798
   1.0967469   1.4496130   0.2576781   0.1786134   0.0377918   0.1911968
  -0.4990685   1.2500813   0.2841219  -0.7481637   0.1290124  -1.0143315
  -0.3872615   0.0034787   0.2516389  -1.7942033  -1.0846863   0.1651717
   0.1975948  -0.3933353   0.5925707   0.4346277  -0.3447420   0.2511492
   0.6509170   0.0594088  -1.0249297  -0.8692850  -0.1817399  -0.0629144
  -0.0946679  -0.1652287   0.0423376   0.3428781  -0.9578487   0.2777233
  -0.1194079  -0.0585647  -0.7237808  -0.4775843   0.2248500   0.5125262
  -0.0769605   0.2521945  -0.0862336   1.2613429   0.4222570   1.3057099
   0.2450491   0.0255131   0.0250571   0.5203823   1.1338315   0.1434043
  -1.7164499  -0.2051053  -0.7262884   0.1369862  -0.1195856   0.0914947
  -0.9616911   0.4157341  -0.5893033   0.9803909   0.0840743   0.0258178
  -0.2975583  -0.0448847   0.2727090   0.1432794  -1.1618189   1.6673142
  -0.8153586   0.9867749   0.5755467  -0.2573293   0.0552383  -0.0254777
  -0.5683903   0.0330675  -0.5352642  -0.7342797  -0.8775139   1.2635950
   0.4723466   0.0502725   0.0256353   0.8721725   0.9419834  -1.1925398
  -0.8911463  -0.3733600  -0.8965779  -0.1654471  -0.0959921  -0.2958766
  -0.4540987   0.3592066  -0.4297362  -0.5644825   1.6181104  -0.2498324
   0.0768008  -0.3421540  -0.3245975   1.2409641   0.3640778   0.6235656
   0.2605224   0.2899227  -0.3552920  -0.0651214  -0.2690786   0.0048122
  -0.0062041  -0.1225001   0.7094175  -0.0616251  -0.6130632   0.0853937
   0.1987919  -0.1020623   0.2294192  -0.4936685   0.7605367  -0.3418707
   1.2835883   1.3178961  -0.9945454  -0.0455925  -0.2297068  -0.4834997
  -0.3554009   0.7490016  -0.0128280   0.6320880   0.8846164  -0.7041434
  -0.0506225  -0.0430385  -0.0144669  -1.1076774   1.4652258  -1.8701345
   0.0071008   1.3622485  -1.3314432   0.1121272  -0.2586577   0.1695608
   0.5428556  -1.1523922   0.9708841  -0.7726271  -0.2412152  -0.7499814
  -0.0237229  -0.1447721  -0.2899442   2.0719046  -0.1504933  -0.0140203
   0.2919757   0.2811919   0.7673883   0.0592349   0.2285766  -0.3674985
   0.0504779   0.2531869   0.1429968  -0.5626833  -1.2114850  -0.1394081
  -0.1626316  -0.1470657  -0.1346858   0.0871927  -0.2479531  -0.6368539
  -0.9564085  -0.1597043   1.0277706   0.0784662  -0.1108746  -0.3765163
   0.2016132   0.8685104  -1.9625208   0.6771402  -0.2035133  -0.0331392
   0.2059779  -0.2274912  -0.0512362   0.4809874  -0.3507875  -0.1353386
   0.3503648   1.6451089   0.2222931   0.0323521   0.0528188   0.1828618
  -0.3374869   1.1834747  -0.3442547   0.3414822   1.8711627   0.6839197
  -0.2410960   0.0462718  -0.0627137   0.0189061  -0.6603457   1.1495923
  -0.2262466   0.8614048   0.5420197  -0.0010454  -0.3380967  -0.0025434
   0.8493456  -0.7145518   0.8029538   0.1667047   0.4899679   0.6120503
   0.0403371  -0.0881433  -0.0488248   0.4569457  -0.3733593   0.7200272
   0.5084018   0.6652095  -0.1659317   0.1462652   0.2162714   0.1899702
  -0.4207016  -0.6712734  -0.3265163   0.2320296  -1.2265311   0.7329335
  -0.1505755  -0.1849871  -0.1017032  -0.1535207   0.5114757   0.1058546
   0.4790142   0.9932008   0.3400427   0.1237483   0.0197441  -0.1522118
   0.6870311   0.0581572  -0.4128198  -0.6316977   0.2449199   1.5062172
   0.1125620   0.0184746   0.0396452   0.8697147   0.8331606  -0.1020292
  -0.0917267   1.2050703   0.0148112  -0.0106432  -0.1622736  -0.1805324
  -1.5532648  -0.4634710  -0.0804536  -0.8821019   1.0061219   1.2518482
  -0.2012595   0.1248056   0.0855505   1.5090465  -0.3156400   0.5586363
  -0.2607525  -1.8164539  -0.1315844  -0.2966587  -0.0499431   0.1210871
   0.0649010   0.0388190  -0.5526743   0.2252975   0.0135765  -1.3291198
   0.1104034  -0.3040476   0.3415535  -0.9432152  -1.1671744  -0.7039743
   1.2432091   0.0521075  -0.6218719  -0.2300981  -0.3393052   0.0944558
  -0.0852537   0.2105373   1.0284560  -0.4646791  -0.3839132  -1.4440405
  -0.1534503  -0.0120478   0.0793042  -0.8656217   0.5357673  -0.6482883
   1.1213206   1.7815349  -0.5318967   0.1568110  -0.0848344   0.3228733
  -2.0931902   0.3956675   0.8132967   1.3490336  -0.3340016  -0.1514275
   0.1607105  -0.3051636   0.0643340   0.4785254  -0.1698459  -0.1474289
  -0.0753481   0.0846824  -0.9656007   0.2258187  -0.2379623   0.1195325
   1.0431625  -1.0162632   1.3218227   0.3825656  -0.1889701  -0.0076343
   0.2943700   0.1693121   0.3092775  -0.5221107   0.7226661   0.4690769
  -0.9359176   1.4974193   0.1074674  -0.1328501  -0.2708170  -0.1810612
  -0.3659829  -0.6841848   0.7657532   0.7338293  -1.0907604  -0.9701643
  -0.0342107  -0.0851524   0.1231327  -0.3695474   0.4825758  -1.3808184
  -0.6227062   1.3195537   1.2652579   0.2657370   0.0784295  -0.1118788
  -0.5069200  -0.4841311   0.1101519  -0.3623050  -0.3723374   0.4609733
  -0.2101092   0.2685931   0.1163432  -0.3968050  -1.0408183   0.2917906
  -0.1180019  -0.0655691  -1.0312322   0.1509309   0.0234319  -0.1582747
  -1.0547093  -1.2443291  -0.2891582  -0.5417658   0.2570579   0.4676743
  -0.0837532  -0.0842355  -0.0450474  -0.5473955  -0.8895609   0.9703904
  -0.0729945  -0.4713443   0.7374075  -0.0918337  -0.2374540   0.3252428
  -0.7647425   0.2678980  -0.3870460   1.3486544   0.1296247  -0.2187433
  -0.2293664   0.1129200  -0.0210899  -1.1932950  -0.7697551  -0.2440875
  -0.4653345  -0.0785313   1.0348327  -0.2448131   0.0098764  -0.2046667
  -0.4347251   1.7970926   0.8655462   0.3407629   0.0297778  -0.4558991
   0.0727519  -0.0233261  -0.3015742  -0.2931762  -0.6922632  -1.4409361
  -0.7003872   0.1166176   0.5415449  -0.2356984   0.1432779  -0.0755482
  -1.2119731  -1.0857239   0.0026717   0.7624825  -0.6328361  -0.6403449
   0.1725816  -0.1029122   0.1804791  -0.3289147  -0.2176040  -1.1512457
   0.2080726   2.1700583  -0.1447732   0.1318271  -0.0313128   0.2404872
   0.7265035  -0.3483347   0.2070278  -0.5313926  -0.0890550  -1.0303552
   0.1342777   0.0102405   0.5883977   0.0651988   0.0596029  -0.1322326
   0.6932599  -1.7889502  -0.2062257   0.1644176   0.2115248   0.0659744
   0.9898713  -0.7192259   0.7895538   0.0292681  -0.4805674  -0.3004096
  -0.0215488  -0.0488341   0.0588560   0.0958737  -0.5758640  -0.7378768
   0.0874054   0.0625722   0.6382686   0.1369683  -0.2278533   0.2831337
  -0.5314131  -0.5799486   0.0493091  -0.9409116   0.0981940   0.2793651
  -0.1251704   0.1970668   0.0827157   0.9235061   0.0927810   0.1031133
  -0.0487377   1.8761262   0.6478782   0.0043581   0.4884093   0.0883462
  -0.4457267   1.3682664   0.9665003  -0.5426590   0.8736027   0.9606465
  -0.2792894  -0.0346334   0.1004269   0.2898616  -1.0849397   0.6398338
   0.7191102  -0.2373676  -0.2231288  -0.0669652  -0.2203096   0.2647838
  -0.6257295  -0.8417152  -0.2342734  -1.8297447  -1.0798132  -0.3461766
  -0.0665242  -0.1542092  -0.0903065   0.2388332   0.3918239   0.7102172
  -0.3735343   0.1767597   1.5617623   0.1979351   0.1028547   0.2386794
  -0.0066788   0.7322980   0.1172365   0.7988086   0.6117977  -0.4427129
  -0.0223162   0.1925632  -0.2566313  -0.4293937   0.2312263   1.7794861
   0.0357031  -0.6992444  -0.6132573   0.1026847   0.0749485  -0.0187681
  -0.3031574  -0.2963689  -2.1619197   0.4634057  -0.2700557  -0.1579557
  -0.0231953  -0.0650901  -0.3038885   1.2904727   0.7548328   0.8258552
   0.0978282   0.2106938  -0.6302341   0.1182012   0.0200699   0.2043039
   1.0533232  -1.1597754   0.3864616   0.1967382  -0.9813790  -0.6372574
   0.2119578   0.2936097  -0.2141264  -0.8127791   0.8598077  -0.1186425
  -0.9613494  -0.7997550  -0.4558891   0.4186178   0.2562333   0.0661217
  -1.0214899  -0.0600689  -1.3709222  -0.7101925  -1.3254575   0.8612509
   0.1683101  -0.0189124   0.2707555  -0.7802973   0.0590843   0.6090334
   0.4720010  -0.2937215   0.3099283  -0.3976825  -0.3313233  -0.1019564
  -1.4974529   0.2228854   0.6243425  -0.3186137  -0.6847560   0.9613552
   0.0636448  -0.2842492  -0.0430225   0.1576500   0.7714577  -0.0923494
  -0.8582098  -0.1707691  -0.8908626  -0.1291511   0.0886146   0.1386059
   1.3570395   0.0083267   0.4767499  -0.0907960  -0.3758208   0.5404396
   0.2822341   0.0171568  -0.0640812   0.3380470  -0.4646740   0.7610342
   0.3872929  -0.5187323  -0.6358763  -0.1236789   0.0667463   0.3531334
  -0.2350875  -0.6509066   1.1334702  -0.9806422   0.5206532   0.4086157
  -0.1999776   0.5229713  -0.2018427   0.5535049  -0.1720472  -1.5596732
  -0.2831164  -0.5950376  -0.7393378   0.0898849  -0.4076508  -0.0055570
  -0.4118251  -0.5199557   0.2862805   1.1997188   0.4611968  -0.4336936
   0.2550778  -0.0007959   0.1293237  -0.8699359  -0.3829112  -1.2958063
   0.7447054   0.0001206   1.6509281   0.0105962   0.0456025  -0.3795566
   0.4029058  -0.2522216   0.3636429  -0.7603485  -0.3619584   0.6908726
   0.1547670  -0.1211067   0.0422661  -0.0785892   0.2663718   0.1823897
  -0.3099755  -0.0718361   0.1899651  -0.0169529   0.0049292   0.2251237
  -0.2756957   0.8906003  -0.0982041  -0.2326166  -0.0793461   1.3474977
   0.1390144  -0.0045836   0.2227165  -1.4654017  -0.2775198   0.3078485
   0.0978355  -0.5395214  -1.9555128   0.2973900   0.2025852   0.1090953
   0.8604201   0.5501976   1.2433012   0.0932458   0.2455823  -0.5265033
  -0.1208886  -0.1059117  -0.0015819  -1.2983044  -0.1771435  -0.3216857
  -0.6519660  -0.1426316   0.4379113  -0.0496160   0.1177718   0.2005430
   1.2058250   0.4497561   0.0488860  -0.3320546   0.7357115   0.1510269
   0.1671921   0.2741144   0.0948158   0.3554805   0.4965777  -0.4602404
   0.7139931  -0.1357340   0.3510655  -0.1552173   0.1017848  -0.3311935
   0.7146860   0.1571145  -1.8107083  -1.0805836  -0.4931924  -0.7541198
  -0.1851897  -0.2223833  -0.1148241  -1.8102544  -0.0211159   0.8232708
   0.0191036   1.0006884   1.2484243  -0.0467684   0.0631734   0.1021228
  -0.9090897  -2.2240085  -0.0997123  -0.8917689  -1.1121018   0.4259479
  -0.0020980   0.2449412  -0.0599481   0.2739568  -1.3450371  -0.1930002
  -0.0709220  -1.3113995  -0.4163088  -0.0493573  -0.3969160   0.1098544
  -0.2080824  -0.9428597   0.9058243  -0.3231581  -0.8706402   0.4145172
  -0.0684819  -0.0416538  -0.0342450   0.2224675  -0.7906406   1.0746806
   0.9640632  -0.0824475  -0.6102823  -0.0405410   0.0284126   0.1563352
   0.7956184   1.0292571   0.1292241  -0.2294470   0.4010283  -0.1939781
  -0.2320991  -0.0632750  -0.1684150  -0.9453535   0.4063868  -0.2472810
   0.1500562  -1.0513953   0.2865152   0.2621208   0.0085255   0.1987455
  -0.4327758  -0.4518079   1.4104744  -0.0795775  -0.6396280  -0.6737994
   0.0424026  -0.1066459   0.2138441   1.6389607  -0.5538660  -0.3786249
   0.2976076   0.4439643   0.8494976  -0.0548580   0.1433796  -0.3286193
  -1.3747778  -0.0850671   0.4566421   0.6072527  -0.3722949  -0.4431234
   0.0364483  -0.2496041   0.1077423  -0.5875890   0.7184794  -1.0037037
  -0.0625834  -0.3019589   1.1668270   0.0169687  -0.2788564  -0.0446758
   1.4528164  -0.2890957   0.6393722   0.2639551  -0.1369367   1.0943494
   0.1534459   0.0491015  -0.2010703   0.6379777  -0.1300074   2.3088317
   0.9873709  -0.5165439   0.3361426  -0.1015525  -0.1320169  -0.2686120
   0.2473277  -1.0354649   0.0372748   0.2650869  -0.7168192   0.1971140
   0.1265683  -0.1393751  -0.0354014  -1.1557305  -1.1686462   0.4819362
   0.1698240   0.8283969  -1.0974880   0.0219537  -0.1911886   0.3343630
   0.1679875   0.3924295   0.7451135  -0.9699277   1.1671176   0.8185100
   0.0954396   0.4308369   0.2438685  -2.6969277  -0.1094143   0.0189421
  -1.1767130   1.1495534  -0.4712660   0.1733210   0.0555569  -0.2294259
  -0.5464745   0.8576728  -1.0756195   0.4386483  -0.1188535   0.4059766
  -0.0566962   0.0301434  -0.1209207   1.0071453  -1.1625161   0.2105106
   0.5294402   0.9490709  -0.8269145   0.2224569   0.0430899   0.2646767
  -0.2169602  -0.5860578  -0.9032311   1.8115905  -1.3301476   1.1293336
  -0.0138292   0.2050385  -0.0984137   0.4436864  -0.2724428  -0.1570433
   0.2622556   1.5346423   0.6812441   0.3686360   0.3007631   0.0962669
   0.4921193  -0.6510297   0.3645026   1.2298110  -0.0397458   0.0976519
   0.2495228  -0.1423904   0.1122789   1.0538256  -0.9011074   0.0285541
   0.7830989   0.3784371  -0.7600267   0.1456381   0.1267296  -0.5525878
   0.5800816   0.4597789  -0.2486079  -1.5664068   0.0312349   0.8208134
   0.2094622   0.1261240  -0.2772348   0.8172725  -0.8763415  -0.4428676
  -1.0671070  -0.6242065  -0.5685996  -0.0515460  -0.0767965  -0.0078297
  -0.0815058   0.4624955   0.3683660   0.0874157  -1.2226886   0.6611966
  -0.0367225   0.2151353   0.0192733  -0.7837295  -0.2753170  -0.0525411
  -0.3441826   0.0640196   0.7759508   0.2309316   0.0661040  -0.1603818
  -0.2403036  -1.4212465  -0.4989895  -0.2302581   0.5098332  -1.0397119
   0.0261824   0.4190878   0.0279184   0.1635484  -0.0489874   0.4425866
   0.1135626  -0.7791338   0.9891795   0.3545527   0.1608970  -0.1459848
   0.6498634   0.3056443  -0.0671638   0.6284687  -0.5201625   0.8033675
   0.1542656   0.0975089   0.2430425  -0.2341390  -0.8968858  -0.0765992
   0.8436925   1.0864217   0.5706796  -0.1400308   0.1962811  -0.0073272
   0.9974953  -0.6542410  -0.4014757   0.7673067  -0.4308438   0.3734648
   0.2406672   0.2666175   0.2348859  -0.9042746  -0.8210380   0.6709735
   1.1684099  -0.4452458   0.2371245  -0.2140305   0.0061675   0.0303236
  -0.7734438   0.4722097  -1.1215250   1.0606935  -1.0918976   1.4369419
  -0.0396281   0.0772330   0.1202918   0.0192008   0.1943299  -1.5462408
  -0.7612866   0.0880361  -0.7180924   0.0445831   0.2001919  -0.0112926
   0.2956492  -0.7426904   0.2033890   0.5158062  -0.8937140  -0.2154913
   0.4976159  -0.0990501   0.0222065   0.0545997   0.2951539   0.1685810
  -1.1079889   1.2105810   0.1678991   0.3921673  -0.0019149   0.1729591
  -0.0925917   1.1125556   1.0529854  -0.0288798   1.2257091  -0.9384565
  -0.0739584   0.1123536  -0.0317079  -1.1640291  -1.1693125   0.4544855
   0.0640937  -0.5290032   0.2941034   0.3198715  -0.1736150   0.1139117
  -0.3536909  -0.4420342   0.0053335  -0.5173305   0.6036029  -0.3028986
  -0.0355557  -0.1272708  -0.2164864   0.2945323  -1.3463670  -0.7609008
   0.5512462  -0.2052817   0.4753700   0.0822951   0.1907408  -0.1457333
  -0.2351323  -0.2338662   0.3715711   1.3110116   0.0613443   0.3064597
  -0.1967026  -0.0513420   0.0774764   0.6132190   0.6892578  -0.2189876
   0.5116511   0.6477696   0.0046296   0.3314530   0.0603855   0.0365370
  -0.5140215  -1.3972742  -0.0847658  -0.5136991  -0.8736287   0.7217194
   0.1020352   0.2715435  -0.1500655   0.5339663  -0.1500132   0.2519967
   1.2230676   1.0449427  -1.2494475  -0.1195882   0.3146591   0.1046682
  -0.2717612   0.9513403   0.3033122  -0.3043736  -0.2509943   0.2639271
   0.0970894   0.2750525   0.0584547   0.2487504   0.5553152  -0.0902877
   0.9866833   0.0679364   0.5849357  -0.0598555  -0.1361805   0.3516365
  -1.3132469  -1.4974918   0.1185595   0.2172158   0.2817503   0.5811863
   0.1323701  -0.0036433   0.0987086   0.1248353   0.3886874  -0.1991228
   0.3525779   0.2197337  -0.6102763   0.0902527   0.1612333   0.2335305
   0.4658244   0.0369272   1.2323036  -0.6728217  -0.2489056   0.8147466
   0.0283673  -0.1814204  -0.1516953  -0.2391699   0.6818322  -0.3055893
  -0.1964491  -0.1030636  -1.3135386  -0.0583009   0.3065318  -0.1022256
   0.9660998   0.3933965   1.6516475   0.1830024  -0.3685982  -0.2232379
   0.1735339  -0.0514621  -0.0868821   0.2613627   0.1556807   0.3049058
  -0.0731189  -0.2281067   0.0993742   0.2327519  -0.1188557  -0.1238801
  -0.7390643   0.1157252   0.3695955   0.2550872  -0.0060851   0.6477463
   0.1316821   0.2323157  -0.2489398   0.1324146  -0.0816966  -1.4325820
  -0.7258181  -0.5019698  -1.0079426   0.1340093  -0.1418799   0.0456535
   0.7292500  -0.2010312   0.0818210   1.7659293   1.1107978  -0.0349423
  -0.1188321   0.3455431  -0.1712288   0.7116807  -0.6374039   1.3572046
   0.7793536   0.2690200   1.2325673  -0.2018501   0.0132463   0.1182736
   0.4395014  -0.0395610  -1.5567583   1.8615552  -0.7549632  -0.8727916
  -0.0899007  -0.2652292   0.1045230  -0.2373339  -1.2375575  -0.0810297
  -1.1830139  -1.5829074   0.4724393  -0.0438151  -0.0834109  -0.2005566
   0.4035385   1.0319293  -1.0917632  -0.3801136   0.4866107  -0.4544254
  -0.0202610  -0.0997246   0.1938132   0.1135709  -0.4665115  -0.2549372
  -0.3802414   0.2706243  -0.1479200  -0.1231101   0.1794534  -0.2681390
   0.5299858  -0.6596236   0.5065259   2.2832677  -1.4920797  -0.4970136
   0.0030736  -0.2907700   0.0479674   1.1164240   0.7947127   0.5430679
   1.6870972   0.7990903  -1.3898248   0.2240179  -0.1730576   0.0861980
   0.1333152   0.4741764   0.7892859   1.1773725   1.4170874   0.1343413
  -0.0486615  -0.1872272   0.2686841  -0.1764150  -0.1602727   0.2879227
   0.5725613  -1.4792872  -1.1593227   0.2483951   0.1780195   0.0996443
   1.5638997  -0.4974488  -0.5345325  -0.2798716  -2.1332078   0.6566570
   0.0992504  -0.1918022   0.1734142  -0.6254463  -0.6399820  -0.6439971
   0.3041924  -0.2951061   0.0133410   0.1511246   0.0340231  -0.0447235
  -1.0392671  -0.7363904  -0.4647930  -0.8840765  -0.6880341   1.1215952
  -0.0311732  -0.0066242   0.2117512   1.0459485   0.0599278   0.4908693
   1.5705917  -1.5113106  -0.4779273   0.0062744   0.2506990  -0.0802402
  -1.2129733   0.2853675  -1.5537583   1.0681913  -0.3659120  -0.6204948
   0.1685845   0.0327519   0.0731088   0.6375427   0.3788940   0.4273880
  -0.3976138  -0.3055916  -0.5366066  -0.1289765  -0.0626953   0.1472332
  -0.5818672  -0.5548775   0.0193234  -0.0855259   0.5826471  -0.7907720
  -0.1160840   0.0197820   0.2669176   0.0165237   0.1692636   0.0706910
  -0.2353761   1.8961837  -0.8949126  -0.2780011   0.1097816   0.0379923
   0.6217689   0.4736992   0.4665084   1.9261974   0.5432438  -1.1844161
   0.2423747   0.2345745   0.2038194  -0.3082270  -0.4263602   0.4027380
   2.8261540  -0.2332912   0.9108495  -0.2329465   0.0238619   0.0124057
  -1.1046244   0.8947208  -0.0113265  -0.8757426  -0.2217531   0.5805168
   0.1100620  -0.0591175  -0.0687908  -1.0614814  -0.5422453  -0.8029594
  -1.2889772  -0.1681360   0.2897499  -0.1163151   0.0167418   0.0835852
  -1.6836452   0.5757566  -0.7854707  -0.3476394   1.0000595   0.0499758
  -0.0394522   0.0469340  -0.0472066   0.2331479   0.1952146   0.2260172
   0.0154283   1.0807431  -0.0772535  -0.0152313   0.2196202   0.0282531
   0.4324415   0.4309033   0.1035904   0.5704257   0.5586419   0.4303038
  -0.2172295   0.1984382   0.1859452   0.0502309  -2.1975014  -0.0124334
   0.3110866   1.1716688   0.4949097   0.0728713  -0.1995240  -0.0578697
   0.5629600  -0.1296141   1.7278630   1.8457536   0.4602529   0.1811083
   0.0583158  -0.3729560  -0.1919611  -0.4476477  -0.5784938  -0.9568981
   0.5629376   0.0506530   0.6199915  -0.3773815   0.1040745   0.0996698
  -0.8712383  -0.1685201  -0.3917929   0.2616874   1.5293224  -0.6071028
  -0.0040659   0.0628142   0.1851450   0.9706254   0.0245940  -0.6953190
   1.0364514   0.1393624  -0.3317471  -0.2580314   0.1171691   0.2863214
  -0.1314580   0.1486274   0.0044428   0.0755843  -0.9261498  -0.0662926
  -0.0620994   0.0247234  -0.0059649   0.6759205  -0.1876085   0.3366013
   0.1461031  -0.5553912  -0.0358100   0.3951375   0.3243761  -0.1920891
  -0.2872712   0.2184945   0.6348206  -0.2792520  -0.2881085  -0.6030736
   0.1464983   0.1303132   0.3196724   0.4841841   0.6549616   1.8625121
   0.2731048   0.1642397   1.8778874   0.3120823   0.0898395  -0.0497185
   0.5582165  -1.8613550  -1.1475220   0.2852482   0.4076506   0.8659589
  -0.0488169   0.4102898  -0.0465535   0.0502004  -0.3285747   0.3824967
  -0.7253429   0.6353774  -0.6783496  -0.1846971   0.3331747  -0.3633029
  -0.6267884  -0.0533586   0.2715361  -0.4299529  -0.3449870   0.3207842
  -0.3021714   0.1347108   0.1056790   0.5680570  -0.6726228   0.3213659
  -1.3660432   0.4212195   0.5872390   0.0620359   0.3918889  -0.0841557
  -0.8342385  -0.9538786  -0.3549301   0.2132344  -1.7347379   0.2664228
   0.1138721  -0.1270455   0.2863405   0.1422266  -0.2766059   0.2306956
   0.8676204  -0.6300654   0.9738731  -0.1875361   0.3158231   0.0351046
  -1.5139003  -1.0394869  -0.4994363   1.4363700   0.0650750  -0.0602947
  -0.1348223  -0.0006292  -0.0745849  -0.7061534   0.8165051   0.0397099
   0.7657361   2.1002008  -0.4759479  -0.0338971   0.3946830  -0.2322611
  -0.3515064  -0.0936161  -0.2719308   0.4364435  -0.8206948   0.2619050
   0.2361295   0.3213830  -0.2543036   0.3157571  -0.5050790   0.8922814
  -0.2216661   0.9905853  -0.3411609   0.2186805  -0.1620485   0.0078105
  -0.5666706  -0.9258022   1.7518918  -1.3920247   0.7754725  -0.7394551
   0.1977301  -0.0750009   0.0432026   0.1677827  -0.0376797   0.9307207
   0.4892543   0.2165080   1.5704538   0.0264647   0.0174893   0.3600945
   0.4951730   0.1961023   0.8880847  -1.6239037  -2.0594232  -0.5396745
   0.0098395  -0.1236438   0.0400607  -0.0777357  -0.9183067  -0.3207061
   0.4983127  -0.1031594  -1.1415250  -0.1539913   0.0262967  -0.1344434
   0.8932759  -0.3366714   1.5717272  -0.1546579   0.5370383   0.7656958
   0.0149722   0.3525897   0.0568964  -1.0045622   0.7936249  -0.3272677
  -0.9518118  -1.8152234   1.5732143  -0.1084147   0.1928744  -0.1162747
   0.3029096   0.8479078   0.3042601   0.1161463   0.1369943   0.1947867
  -0.1595079   0.0415400  -0.0259187   1.1044694   0.0468818   0.2896650
  -0.2435525   0.2053551   0.1937221   0.1250485   0.1428713   0.0900127
   0.0998721   0.2914823   0.1404343  -0.5965587  -0.4374460   0.8949923
   0.2631375   0.1317183  -0.0397908  -0.3276878  -0.3810527   1.4014931
   1.5354971  -0.2986264  -0.6564615  -0.1219173  -0.0054529  -0.1521883
   0.0446426  -0.7914202   0.4007184   0.2228933   0.3927331  -0.4637455
   0.0481758   0.5820779   0.0120133  -0.2758785  -0.1141005  -0.3372166
  -0.9700430   0.0608594  -0.8124460  -0.0127705   0.0220875  -0.1118167
  -1.0297874   0.4829551  -0.0825289  -0.8944967  -2.2068132   1.4942995
  -0.1349151   0.1309765  -0.0013154   0.6701423   0.7434155   0.6717387
  -0.8832169  -0.8021252   0.1918667   0.2773394   0.0180973   0.0610013
  -0.1061408  -0.8060035  -1.2147817   0.9297154   0.1066434   0.0432934
  -0.2096157   0.1008255   0.3931670   1.8437830   0.0931436  -0.0234462
  -1.3291614   0.8078789  -0.7550791   0.0944919   0.2117248  -0.1536605
  -0.0032878  -0.2421782  -0.2531628  -0.0365141  -0.1856202   1.0245059
   0.1932922   0.0369495  -0.3246135   0.7920227   0.6535303   0.8478369
   1.4007588   1.7735989  -0.1178763   0.2076452  -0.0659616  -0.0900324
   0.3077297   1.4023869  -0.0623669  -0.2945158   0.1687524  -0.9001024
  -0.0626982  -0.0129511  -0.0591259  -0.5334027  -0.5114922   0.9084073
   0.7860394  -1.0071901   0.7783100   0.1014802   0.1886697  -0.1467449
  -0.1467668  -1.2994342  -0.8903322  -0.1902075  -0.9882173  -0.3378334
   0.0493784   0.1708968  -0.3757129  -0.0172854   0.3207737   0.2371189
   0.2786363  -0.8192931  -1.7785112  -0.1239152  -0.2799915   0.2244734
  -1.4538470  -0.8993899   0.8768000  -1.3376851   0.1796680   0.3856487
  -0.3827239   0.2111271  -0.0396977   0.7825784  -0.4557799   0.3040929
  -0.9218963  -0.1418308   0.1924849  -0.0549972   0.0257134   0.0336399
   0.2392383   0.7190753  -0.7580207  -0.3552583   0.4630197  -1.2465684
  -0.0412786   0.0969279   0.3559319   0.1043542  -1.0091959   0.2658009
  -0.3978779  -0.2825439   0.1307731   0.0059330  -0.1433807  -0.0503729
  -0.5625502  -0.1796482   0.1614568  -0.3027670   0.3732450  -0.5662231
  -0.0814350  -0.3983341  -0.3691474   0.9748550   0.3055701   0.9726262
   1.5369962  -0.4626607  -0.3310119  -0.0438407  -0.0639298   0.2735280
  -0.7929521  -0.0380340  -0.5593039  -0.1111532  -0.8055849  -0.3400695
  -0.1056560   0.2130033   0.1661996  -1.7273715   1.1369605   1.3246917
   1.0949775  -0.4550976  -0.1208908  -0.0947111  -0.0930840  -0.1489756
   0.1368461   0.6147152  -0.7363512  -0.8881962  -1.1395519  -1.0668461
   0.1763441   0.0479879  -0.2530575   0.7463352  -0.9144699   0.2281530
  -0.3289987  -0.8949194  -1.5933101   0.0912523   0.4941537   0.0777855
   0.4522044   0.2354901   0.1775538   0.8176821  -0.6449042   0.0310034
  -0.1870443  -0.1777399   0.0780669   0.1514807  -0.3671169  -0.8154151
   0.8866728  -0.8685171  -0.1330098   0.1364269  -0.1264364  -0.0179623
  -0.2416838   0.4124886   0.6554050   0.1818009   0.0397867   0.9824575
  -0.3192331   0.2471756  -0.1845479   0.1701664  -0.6416194  -0.7591164
  -0.7603481  -0.3593065  -0.4422851  -0.0284677  -0.1278923   0.0743457
   0.1767373   0.4095597  -0.6116750  -0.5780195  -0.1514551   0.1329205
  -0.2063357  -0.0988071  -0.1656438   0.2968212   0.4046770  -0.1237795
  -1.1809986  -0.9420938  -0.3959643  -0.3543157  -0.2380850   0.3520265
  -0.3166502  -2.0715487  -0.1026664  -0.6256216  -0.3372952  -0.9329392
   0.0343799   0.3208823  -0.3244831  -0.2520648  -0.0386616  -0.3868331
  -0.3244741   1.0869635  -0.9335848  -0.1927912   0.1293549  -0.0932321
   0.3471742  -0.8486339   0.8990767   0.0530928   0.0882068   0.3395946
  -0.0310159  -0.4672447  -0.1403928  -0.6059644   0.3445625  -2.2548777
   1.4776670  -0.9341145   0.2870042   0.2093982  -0.2042520  -0.1666672
   0.8409483   0.0250774  -0.8058911  -0.8290909   0.0094230  -0.3693841
  -0.2867421  -0.3486280   0.1760167  -0.7501247   0.7903863  -0.3702925
  -0.8874350  -0.4434317  -0.8218180  -0.1679131   0.4053484   0.4983118
  -0.6809741  -0.5088301   0.0042506   0.1767297   0.1399105   0.9095885
   0.3260128  -0.1502621  -0.1935950  -1.2095879  -0.2081528   0.0342217
  -0.1227576  -0.3333416  -0.7639454  -0.2608489   0.2095152  -0.1970690
  -0.3011368   0.0593416   0.3300343   0.3520675   0.5966609  -0.4582505
   0.2104360  -0.0086409  -0.2318615   0.9909401  -0.6291798   0.9058780
   0.8634221   0.3115702  -0.9659769   0.0153473   0.0462254  -0.1740853
  -0.2066921  -0.1134224   0.5592919   0.7280869  -0.1948628  -0.3529433
  -0.1734784  -0.0008456  -0.1702243   0.8987396   0.2522947  -0.9316360
   0.1880072   1.4527337  -0.4970361  -0.0785446   0.1773596  -0.0695446
  -0.0080298   0.7243507   0.1735365   0.6151452  -0.1954932   1.5177736
   0.1422251   0.0807309  -0.1605989   0.2416961  -1.0468740   1.8099300
  -0.0441641   0.2158857   1.1750233   0.3772192  -0.1560936  -0.1443970
   0.1787962   1.6545098   0.3127973  -1.1952315   0.3235585  -0.5544599
   0.1642130   0.0573033   0.1523185  -1.8279466  -0.4685285   0.5334987
   0.7641252  -0.0002530   1.5010909   0.0222343  -0.1047889   0.0985259
  -1.2409681   0.3013590  -0.2046537  -0.8745854   0.3209493   0.9539905
   0.0392000   0.1486490  -0.1561904  -0.9147949   0.8886255  -0.5883862
   0.4593697   0.5276226   1.3556637   0.0874462   0.1335715  -0.0236155
   0.3610165   0.1683570   0.3470269   1.0237894  -0.3460814   0.5533207
   0.0537327  -0.0121489   0.1206336  -0.1308069  -1.5073236   0.3333120
  -0.0514878  -0.3685258   0.3425614  -0.0679506  -0.2151518  -0.0851462
   0.5918028   1.0278907   0.1271292   1.6848715   1.2937700   0.5333683
  -0.3064387  -0.0251626   0.0800834  -0.7489510  -0.5287098  -0.5419919
  -0.0379257   1.6039557  -0.5524853  -0.3944335  -0.0930571  -0.3018664
  -0.4093095   0.1129115   0.2289417  -0.2073912   0.1505101  -0.0612905
   0.1025981   0.0480308  -0.0214705  -1.2339383  -1.0760765  -0.2429846
   0.1539697  -0.4920237   0.6422694   0.1904854  -0.0542424   0.0776781
   0.7065092  -0.2764692  -0.5471150  -0.8310043  -0.2162364   0.1103177
  -0.3924000   0.4126664  -0.0460338   0.0444285  -0.7107796  -0.7959391
   0.2612758   1.0437105  -0.8976453  -0.0699000   0.0328972   0.1551733
  -0.2073492   0.7835204   0.5553572   0.6754774   0.2245247  -0.8557777
   0.0614885  -0.0563916  -0.0564523  -0.4022027   1.8865383  -0.7961173
  -0.7523262  -0.0263502   0.1230493   0.2482643   0.3051008   0.0835665
  -0.0288933   0.6230728   0.5947774   1.6662660  -0.1003895  -0.2812293
   0.0881079   0.0446547  -0.3275556   1.0262673  -0.0268654   0.3359906
   0.5283661   0.5283242  -1.1282126  -0.3136234  -0.1826197   0.0977569
  -0.0580358  -1.2052528   0.0375484   0.3979664  -0.7701835   1.2815481
   0.0492800   0.4132638   0.2410923  -0.1646099  -0.1475610  -0.8412684
  -1.1974001  -2.6185632   1.4511768  -0.4271289  -0.1824443  -0.2082854
   0.3296470   0.7561874   0.3065644   0.8854731  -0.1493298   0.2252240
   0.2667858  -0.1117998   0.0453355   0.2097197   0.7285371   1.2869260
   0.8789103  -0.3842915   0.1116488  -0.1621863  -0.2275896  -0.0043104
   1.3383211  -0.1191790   0.0353160  -0.7931867  -0.0337008  -0.0363022
  -0.0712599   0.0365067  -0.1293289  -1.0029761  -0.5983892  -0.2589995
   0.1178149   1.0545267   0.6943533  -0.1748066   0.0374203  -0.1835428
  -0.8690795  -1.3619578  -0.0507915   0.5374269  -0.1933160   0.1949632
  -0.2468324   0.0028906  -0.2871567  -0.0262243   0.3944218  -0.2608240
  -0.1902488  -0.1682257   0.0924018  -0.2078522   0.1036163  -0.1195112
  -0.3421251  -0.7563362  -0.5649775  -0.4603022   0.4146002   0.6632467
   0.0251660   0.0085100  -0.1186535   0.5644410  -0.5085300  -0.3231871
  -0.7221814   0.7537357  -0.0161952   0.2834559  -0.0341471  -0.4449112
   0.0986987   0.8525772   1.1749127   1.2426709   0.7194135  -0.2138448
   0.1900193   0.0858589   0.1426026  -2.4145666   0.7319101   0.5397995
  -0.1653470   0.6878473   0.3440013   0.0096278  -0.5360747  -0.3413261
   0.3531912   0.0546806  -0.1619992  -0.6155516  -1.2270586  -0.7556164
   0.1500142   0.2382042   0.3831255  -0.5653027  -0.3211468  -0.4252387
   0.6801509   0.1174971   0.2342390   0.0796116   0.0143216  -0.2134652
  -0.5515878   0.2012182   1.0695686   0.6706654  -0.3165750   1.3938475
   0.0173592   0.0974333  -0.0023790  -0.8088770   0.0365378   0.1669275
  -0.3127002  -1.2152991   1.4562887  -0.0204331  -0.0985029  -0.0218717
   0.3658973   0.2138600   0.8088338   0.8249539  -1.4488108  -0.7249629
   0.1825608  -0.0676851   0.1072800   0.2662277  -0.5097294  -0.8646973
   0.6578692  -0.6801793  -0.0808806  -0.1040992  -0.1668366   0.0562960
  -1.0768534   0.7401585  -0.6072670  -1.2427223   0.9159499  -1.8163696
  -0.1845148  -0.5009411  -0.0650510  -0.0371536   0.9896201   0.8057405
  -0.6805660  -0.7197556  -0.3963934  -0.3958792   0.0460380   0.0408403
   0.3245528  -0.2672781   0.1876207  -0.4875081  -0.9039315   0.2679489
   0.1758223   0.0773526   0.0287593   0.3364270  -0.1742977  -0.6156536
   0.8629160   1.1084189  -0.6654386   0.0134096  -0.0430905   0.3104588
  -0.1209973  -1.0049607   0.1010674   0.8482832  -0.8688717  -0.2149469
  -0.2677190   0.0628184   0.5016441   0.9813987  -0.3066427  -0.7813040
  -0.8746697   1.3338642   0.9845573   0.2669290   0.1739871  -0.3506330
  -0.3827919  -0.0301196   1.1803026  -0.7747302  -0.4594708   0.2444145
   0.1605377  -0.1130164  -0.0720178  -0.6263282  -0.1493784   0.0312473
  -1.8201897  -1.8207738   0.5546926   0.0334432   0.0842286   0.1524650
  -0.1034910  -0.2187943  -0.1487695   0.6619914  -0.5850950  -1.8148326
  -0.0203417  -0.0515781  -0.1055380   0.5138369   0.3562082   0.4430839
  -0.3499296   1.1918484  -0.7571540   0.1675454   0.1013804   0.1006928
   1.5941280   0.0813569  -0.2261911  -0.0792156  -2.2728563   0.7556493
  -0.2521755  -0.1008972   0.3630352   0.7646245   0.5733982  -0.8270631
   0.2456147   0.6555807   0.8661964   0.1106674   0.4327195  -0.2913635
  -0.1888648  -0.0467347   0.0580847   1.1882197   1.4676313   0.1130184
   0.2034699   0.0557477  -0.0918385  -0.2581786   0.1757472   0.0965395
   0.9318196   0.5304139   0.2888864   0.1454495   0.1265801  -0.3955192
  -0.6016352   0.1393242  -0.4507162   0.2337654   0.3159567   0.9441744
   0.1067304   0.3608087   0.2897365   1.4027710  -0.7417681   1.6363156
  -1.3667321  -0.3827695   0.2092125   0.2729991  -0.0680177  -0.1917690
   0.0020151   2.4471139   0.5393779  -0.6102335  -0.0434972  -0.3564052
   0.1357109   0.1444720  -0.0216906  -0.5015505  -0.5024730   0.8671718
   0.4785033   0.7431820  -0.4013595  -0.2075457  -0.1078361   0.0477396
   1.3297430  -0.7209044  -0.0148327   1.1958781   0.1964513  -1.0848219
   0.0695772   0.3328068   0.1109734  -0.6196382  -0.0801587  -0.7261654
  -0.2367337   0.5122597  -0.0727046  -0.0858062   0.0576853   0.0555127
   0.1753541   0.0254186   0.4230347  -0.3191290  -1.1440956   0.3092071
   0.0711196  -0.1410854   0.0969083   0.9482572   1.0351345  -0.6685813
   0.3570247   0.5910226   0.7361049   0.2363043   0.0743111   0.0876199
  -0.0234193  -0.2000970  -1.0341136  -0.8396361   0.0946233  -0.3912734
  -0.0385356  -0.0357620  -0.1307876  -0.9027016   0.7230199   0.0832773
   1.3799547  -0.4786604  -1.3982990   0.3131731  -0.2502031   0.1476559
  -0.0866518   0.2467981   0.1727611  -0.8043835   1.4516319  -1.2471639
  -0.2861695   0.2447802  -0.0399449   0.3716005   0.3678810   0.6567168
  -0.0692481   0.1459952  -1.0766118  -0.0966276   0.1852606  -0.0590242
  -0.0516254  -0.2512443   0.0478700  -0.4583015   0.9115096  -0.0916423
   0.3040669   0.1669768   0.2786263  -0.7270878  -0.9202260   0.1916657
  -0.6041611   0.9474487   0.7427098   0.3205865  -0.2157078   0.4214700
  -0.4569527  -0.0211532  -0.0665738  -1.3157891   0.4548596  -0.0667041
   0.0997442  -0.0880381   0.4361730  -0.5891531  -0.0440852  -0.2598010
   0.2204702   0.0650775  -0.1045589  -0.0458217   0.1336491  -0.1761965
  -0.5248495   0.5779477   0.1875888  -0.4196751   1.1093183  -0.4264379
   0.1728836   0.0586736   0.0520804   0.9892269  -0.1596890   0.4120658
   1.0518372  -0.0017129   0.1960786  -0.2385805   0.1725884   0.1932385
   0.2133535  -0.9042049   0.0828843  -1.2784488  -1.1645468   0.2343941
  -0.0946167   0.1419960   0.2015857  -0.0888732   0.2502156   0.3637350
  -0.4391120   0.0171511   0.5992750   0.7017314   0.1613849   0.1985083
  -0.5409942   0.5389346  -1.6466351   0.2140432  -0.4900621   0.4772537
   0.2342090   0.0342778  -0.0872954  -0.3300231   0.5963490   0.2269071
   1.2741966  -0.3534307   1.1895206   0.1229953  -0.1449546   0.0296199
  -0.5855185   0.8086394   0.1448245  -0.5802393   0.2015674   0.2703687
  -0.0991831  -0.0160395  -0.1537406  -0.1371583   0.2586806  -0.1457166
   0.7779532   0.6853866   1.1695946  -0.1535482   0.1957762   0.1183244
   0.7969846   0.0999648  -0.9355773   0.7343422   0.4238357  -0.7168453
   0.2960233   0.0941131  -0.0176276   0.8184041  -0.1085803   0.3137314
   0.3201129  -0.3639979   0.4080912   0.2458693  -0.0163392   0.1375350
   0.2329842  -0.1611542   0.9653299   0.0319909  -0.2778340  -0.1246634
   0.1506763  -0.4052475  -0.0501988  -2.1243238  -0.1215482   1.1658821
   0.6759735  -0.0416601  -0.5348356   0.2584537  -0.1540010  -0.1157446
  -0.9870437   1.1911040   1.1653477  -0.4619900  -1.3636735   0.2756729
   0.1630415   0.0389712  -0.1315253  -0.7774449   1.1583699  -0.0813788
  -0.1870644  -0.9158371  -0.0574545   0.0917920   0.0240810  -0.1658503
  -0.3140367  -0.4498501  -1.5433961  -0.1771978   0.7920086  -0.1198535
   0.0575296  -0.0065198  -0.1101232  -0.1654953   0.1133667   0.8028523
  -0.0687500   0.6877997   0.3895929  -0.1282818  -0.0037487  -0.0266105
   0.7534329  -1.0442317  -0.0434835   0.4504328   0.2282905  -0.4286695
  -0.2091487  -0.0998012   0.1254402   0.0230677  -1.0147475   0.1643074
  -0.1832421  -0.3682472   1.1308616   0.4210777   0.0831190  -0.2932138
  -0.5807314   0.2364889  -0.5140263  -0.2891477   0.5860428  -1.0560482
   0.1443037   0.0983976  -0.1546433  -0.0309650  -1.2648127   0.2100920
   0.0887554   0.5628802   0.0179287  -0.2226922   0.2016256  -0.0469566
   0.3708901  -0.5442390  -0.9429828  -0.5043286  -0.3055633   0.7359551
  -0.2199782   0.1149863  -0.1931636   0.9142900   0.1240823   0.3708609
  -0.9926513   0.2520698  -1.1633620  -0.1315202   0.1344467  -0.2188262
  -0.9810666   0.3741332  -1.3689795  -0.0702659   0.2727633   0.4602177
   0.0647420  -0.1024969  -0.0715855  -0.6375818   0.1682964   0.0430629
   1.7537812   0.4266911  -0.1196871   0.2706756  -0.2787856   0.4008346
  -0.8679289  -1.4085997   0.5696660  -0.1685944  -0.4793032   0.0782983
   0.1261986   0.2926240   0.1526447   0.9004698   0.1763252   1.2229393
  -0.3980362   0.2685349   1.1113568  -0.1220134  -0.2130203   0.1353918
  -0.6416970   0.8575872  -0.1821517  -1.1377348  -0.7176493  -0.4589358
   0.0898430  -0.1643454   0.3499079   0.5027469  -0.3678242   0.1645137
   2.2842873   0.3624053  -0.0450069   0.0036354  -0.0879394   0.1003800
  -0.0485388  -0.7375744  -0.3282176   0.8156347  -0.4734506  -1.4475688
  -0.0542526  -0.1420259  -0.1673273  -0.4619726   0.9973057   0.9476949
  -1.9111696  -0.7603505  -0.5439554  -0.1485223   0.0044852  -0.2365060
   0.3324411   0.1664336  -0.8709247  -0.0859339   0.4833977   0.8273672
  -0.2466481  -0.2064988   0.2794790   0.2197768   0.9205585  -1.5491615
  -0.4583508   0.7603557   0.1921776  -0.0689776  -0.0820168   0.2202310
   1.8193822   2.4713870   0.4077749   0.4476882   0.2001589  -1.3489222
   0.0599899   0.1434491  -0.1288746  -0.2588155   0.7436811  -0.0580376
   0.5786305   0.8809114   0.4376833  -0.0639930   0.1043901   0.1157357
   1.2921362  -0.6686273  -0.1305305   0.5157967  -0.0011696   0.6432980
  -0.0211023  -0.0458035   0.0725933   0.6953367  -0.2785314  -0.8407209
  -1.8061177  -0.2864899  -1.3261113  -0.1333038  -0.2176188  -0.4153615
   0.9981817   0.6673170  -0.5092918   0.3279474   0.1036819  -0.4365212
   0.0102249   0.2819397   0.4722077   0.9849555   0.1924569  -0.5909261
   0.1691740  -0.3323217  -0.6134372   0.2369600  -0.2747393   0.0313421
  -0.1029445   0.8052901  -0.7152629  -0.2737739  -0.1788457  -0.2680215
  -0.1755095  -0.2018260  -0.1602059  -0.4187223  -0.2398598  -2.2948241
   1.2612495  -0.3757684  -0.3211505   0.1989622   0.1377358  -0.2402389
  -0.2145490   0.3995282   0.4194048   0.6427037   0.1826730   0.4982073
   0.2892922  -0.5269171  -0.0123349   0.4568740   0.6888554   0.1298373
   0.0336444   0.1595726  -0.7121138  -0.1626093   0.0913990   0.0288475
  -0.4976538  -0.3083088   0.8524988   0.2704178  -0.0825073  -0.9959483
   0.2588553   0.4217199   0.3568416   0.2052144  -0.5632324  -0.0160331
  -1.0892515  -0.5628639   1.1309335  -0.1599420   0.3555134  -0.1540040
   0.8994126   0.4927733  -1.1377556   0.3867595  -0.3054963   1.4183074
   0.0426380   0.0214371   0.0882698   0.2692445   0.5843191  -0.7110195
  -0.7302043  -0.1361441   0.3758480  -0.3615537  -0.2028752   0.1696597
   0.7573176  -0.8645263   0.5514312  -0.6702201  -1.2808352  -0.8881735
  -0.0443845   0.1340225   0.0130710  -0.5868618  -0.4480107  -0.9058182
   0.6231928   0.5224700   0.7900239  -0.3124530  -0.1865750  -0.0680027
   0.0724925  -0.3791858  -1.2107281  -0.4180206  -0.4534817  -0.1391754
   0.0346744  -0.3345766   0.0259969   0.7102421   1.4069862  -1.1635366
   0.0465426   0.2471592   0.2596420  -0.0057974   0.3259802  -0.0269810
  -0.1390777   0.9061030  -0.2837346   1.7635432   0.2370135  -1.0249995
   0.0310375  -0.0981191  -0.0590837  -0.5657761   1.1893855   1.1865452
  -0.3951403   0.9898337   1.0673373   0.0152083   0.4186475   0.1929204
   1.8781022   1.6461615   0.5386825   1.6201436  -0.3800460  -1.8383969
  -0.0634967   0.2354072   0.2137793   0.9252299  -0.1843573   0.4045577
  -0.7804290   0.0019419   0.0029307   0.0354389  -0.1770356   0.0710299
   0.6050303   0.8801519  -0.1577673  -1.0822869  -0.9899460  -0.6213721
  -0.1593495  -0.1502388  -0.2435512  -0.0215279  -0.9501358   0.0167907
  -0.2560803   1.0616579  -0.1244723   0.0071198   0.0672721  -0.3586362
  -0.9380063   0.4163764  -0.5257110  -1.0131055   0.9481183  -0.1119121
   0.4644011   0.1982777  -0.1554338  -0.0565000  -0.0714428  -0.8078369
  -0.4904904   0.4626087  -0.6330667  -0.0140272  -0.0440075  -0.4785032
   0.3366872  -0.4952004   0.9620687  -0.1986897   0.9358257   0.9036944
  -0.1724802   0.1354656  -0.3172106  -0.7923724   0.2420646  -0.5906065
   0.9301719   1.0256117  -0.6974371  -0.0698127  -0.1246652   0.0068724
  -0.3957721   0.1180663   0.4982449  -0.1246902   1.4194063  -0.4033449
  -0.0867329  -0.1620792  -0.1123340  -0.3167991   0.7180928   0.0470403
   0.3821602   0.8987531   1.2519084  -0.0007257  -0.1875224  -0.3434665
   0.8996125   1.1591394   0.6951632   1.0114448   0.6834786  -1.6606782
  -0.0731025   0.1543925  -0.0391492   1.3540624  -0.1309849   0.6940956
  -0.8530481  -0.2826169   0.8216482  -0.1115074   0.0196151   0.1857864
   0.2552368   0.0344728   1.1873117   0.1407157   0.3929485   0.5600014
  -0.4241844   0.3762694  -0.0116764  -1.3246339  -0.2813858   1.7176554
   1.0319482  -0.3751711   0.0975376  -0.1517680   0.2607920   0.0325135
   0.4968163  -0.3656102  -0.9649327  -0.7088128  -0.1133326   0.9434158
  -0.1669113   0.2754713   0.0351244   0.3529310  -0.9027230   0.2672814
   0.2547912   0.2696971  -0.2902045  -0.3145290   0.1368694   0.2204326
   0.3409329   0.5789337   0.2597305   0.1017031   1.3717240  -0.0344234
   0.2138743  -0.2650271  -0.2874325  -0.3285050   1.6799060  -1.0855300
   0.6943236   0.0478198  -0.6780457  -0.1144831  -0.3410365  -0.2497524
   0.1789562   0.6365352  -1.1659807  -0.0277813  -0.2839812  -0.9271413
   0.2372792   0.0738166   0.0418842  -1.1132986   0.3842617  -0.1486271
   0.7138790   0.0316475   0.0398074   0.0041442   0.0126013   0.3254986
  -1.6913850  -0.6973520   0.1516351   0.3133685  -1.0541677  -0.7549184
   0.2010812  -0.1027690  -0.0225734  -0.3695171   1.6211412   1.1128996
  -1.5789886  -1.5671819   0.2381095  -0.1531971  -0.0482271   0.0642782
   0.5389587   0.0951532  -0.8147579  -0.4140145  -0.3944250   0.8252831
   0.0676335   0.0963041  -0.3241102  -0.2611083   1.0536712   0.3771660
   1.1990053   1.6353089   0.2397151   0.0034224   0.1140767  -0.3217460
  -0.0476205  -0.1215578   0.7288079   0.3315762   0.1168390  -0.3152497
   0.1426538  -0.2217849  -0.0779805  -0.0826688   0.2343590   0.1386478
  -0.4304367   1.1502410  -0.6827100   0.0301103  -0.2345981   0.0235550
  -1.1467551  -0.2307878   0.5993119  -0.5043017  -0.4277731  -1.0459599
  -0.0279327  -0.1009236  -0.0045672   0.1777922  -0.1660892   1.5538995
   0.4752557  -0.9477659  -0.7630334   0.0522034   0.1859373   0.2805264
   0.3151506  -0.4465354   0.7582206  -1.2119232  -1.2567256   0.3556681
  -0.2546327   0.3467582   0.1752615   0.0058719   0.5413894   0.3863705
   0.9547325   0.6711372   0.9102643   0.2696630   0.1465808   0.0390450
   0.6786250   0.4000271   0.9125776  -0.4486375  -0.5499237  -0.2347237
   0.1652050  -0.0660078  -0.1180230  -0.0476626  -0.9566901   0.6460697
  -0.3495354  -1.9016384   0.3173663   0.0063525  -0.0142744   0.1329111
  -0.5376501  -0.4415264  -0.8623961  -0.3781187  -0.2774685  -0.2454121
   0.1462126  -0.0391739  -0.0583874  -0.9890862   0.2454194   1.1759175
  -0.6377431  -0.3973152  -0.1458946   0.3711487   0.1804962  -0.1532236
   0.0629267   0.4491220   1.5190019  -0.4976408  -1.2084662   0.8304334
   0.1590870   0.0990212   0.1582637   0.4391392  -0.1125179   0.0416477
   0.1610651  -1.2098709   0.0689076   0.2846816  -0.5298499  -0.3131193
  -0.3247596  -0.6792529  -1.1940593  -0.0000517   0.6779814  -0.0897028
  -0.2263025  -0.2944629   0.2973623   0.6114824   1.1969981  -0.2678306
   0.5329453   0.2353416  -1.0219345  -0.3318372  -0.2351786   0.1049232
   1.7031940   0.2550922  -0.6286875  -0.4634082  -0.3267853  -0.9826833
   0.1063462  -0.2507075   0.0823792  -0.0538525  -2.1243607  -0.0604565
  -0.4923808  -0.3583141   0.2537563   0.1950824   0.1982031  -0.1032898
   0.3089836   1.3703275  -0.6423553   0.7680111  -0.1947058   0.5685202
   0.0147007  -0.0547338   0.1456119   0.2195994  -0.1892766   0.6769163
   0.2564387   0.4225105   0.0674607  -0.0601588  -0.2057193  -0.1251025
  -0.7276290   0.3776379  -1.0000557   1.1160604   0.1862683   0.1428392
  -0.0137839   0.0059637   0.3823387   0.2294906   0.2548482   1.4676502
  -1.9676589  -0.5242479   0.6923739   0.1418501  -0.1389856   0.1022032
   2.5333593   0.6136880   0.2453014   0.4402060  -1.5077662  -1.3295388
   0.0279631   0.0113839  -0.2362637   1.0509964   0.3359655  -1.2756482
   0.3538904  -0.0947056  -0.1934657   0.2848783   0.1184986   0.1098234
   0.0389126  -0.3411070   0.2513941  -1.5514804  -0.5620415  -1.0244145
  -0.1491238  -0.0233034  -0.0451977   0.4768264   0.9230438  -0.5063384
   0.7652047  -0.1142652  -1.0527187  -0.1086103  -0.2502162   0.2060959
  -0.1602854  -0.4077383  -0.5600687  -0.8812579   0.4691618  -1.3388957
  -0.0160627  -0.1098236  -0.1519521   1.0613663  -0.2919130   1.0277806
   0.8097208   0.7593428  -0.0779057  -0.1815102  -0.0212892  -0.0023707
   0.9125851   0.6128460   0.9567239  -1.3370553  -0.6488745   0.6048207
   0.1076740   0.3187515   0.1317877  -0.3028543   1.0533924   1.0080328
  -0.7522417  -0.2843257   1.6599325   0.2493134   0.1471691  -0.3016527
  -0.8617498   0.6219250   0.9496782   0.0072239   0.2811388   0.1320193
   0.0422413   0.1655196  -0.3779801  -0.4076284   0.6364633  -0.0308967
   0.2998294  -0.3474443  -1.0911847   0.0911802  -0.3733640   0.1352195
   1.8710212  -0.1651399  -0.6547260   1.3455369  -1.6639591   0.1734956
  -0.0320022   0.2903558   0.0996732   2.9498512   1.1765305  -0.4238437
  -0.8727978   0.6157053  -0.1890042  -0.0916985   0.1367459   0.0187390
   0.5469152   1.3372213   0.3801736   0.1549719   0.4038125  -0.8444443
   0.1654211  -0.1617679   0.4449684   0.4743890  -1.5236655   1.4634822
  -0.8295440   0.6344412  -0.2642131   0.1170833  -0.0297752  -0.1392392
  -1.0947490  -0.4238909  -0.9754827   1.0073051   0.3699472  -1.8132964
  -0.0325316   0.0404774   0.2855836  -0.1992023  -1.5431776  -1.7236532
  -0.9800840  -0.6224711  -0.0588465   0.2152753   0.5517126  -0.0785902
   0.8029306  -1.7932597  -1.1468145   0.4238300   0.0668714   0.5653377
   0.2738348  -0.5205055   0.0634240   0.3158967  -0.6826262  -0.1940568
  -0.7056609  -0.7927306  -0.9053950   0.1620328  -0.1072155  -0.1208052
   0.3137774   0.4222265   0.2095320  -0.8687866  -0.4244437   0.6816712
  -0.1150131  -0.1723118   0.1393335   0.6183719   0.1360052  -0.6232346
   0.1665520  -0.3659107  -0.7743815  -0.3933307  -0.3778215  -0.3407342
   1.0078330  -1.2898899   0.3743218   1.0839252   0.6953883  -0.0013149
   0.2974081   0.1299269   0.0407399  -0.6315451   0.4468917   0.0408400
  -1.5584121   0.0330526   1.1643522   0.1186421   0.1074292   0.1955242
  -0.0631411  -0.7196293   0.5006198   1.0876527   0.3987978   0.6826508
   0.3071391   0.1019119   0.3515023   0.9260979  -0.3468128  -0.8653223
   0.0079249  -1.1669149   0.1577101   0.1913964   0.0183227  -0.0786568
  -0.0113196  -0.2248179  -0.3710969  -0.6225715  -0.2603321  -0.4071687
   0.3308077   0.0351155  -0.5030827   0.4788671   0.4379623   0.4537973
  -0.6722414   0.6714874  -0.7370168   0.0510455  -0.1319333  -0.2606695
   0.2355035  -1.4008375   0.2535802   1.2378625  -1.6181885  -0.4924117
  -0.0630239  -0.3262268  -0.0821698  -0.0266902  -0.3877622  -1.2660490
  -1.7648385  -0.5287647   0.6678742  -0.0501634   0.1988795   0.0084023
  -0.6245984   0.8752551  -0.0470381  -0.5839140  -0.2117884  -1.2785259
  -0.1565140  -0.1411899  -0.1395003   0.7284705  -0.3261129  -0.0501915
   0.6783117   0.0273191   0.2031822  -0.3315751  -0.0868859   0.2878891
  -0.4127147   0.8517588   0.6476733   0.3152141   0.1833107   0.6686234
   0.2343794   0.0878888   0.0220947   0.3702186   1.0061131  -0.9690195
  -0.2488982  -0.0970542   0.2712387   0.1644187   0.1965906   0.1373815
  -0.6381581   1.3440516   0.6992884  -0.1381398   0.4931100   0.0262451
  -0.0174463   0.0901886  -0.0293526   0.2563475   1.3346549   0.2430489
  -1.2848798   0.8623018   0.0367675  -0.0932232   0.1113578  -0.1438267
   0.1578583  -0.4455003  -0.4301046  -0.5511000  -1.2300451   0.0029477
   0.2739857  -0.0559887   0.2265390  -0.1729307   0.0405862  -0.7010017
  -0.9768849   0.8263387   0.8930374   0.3904412  -0.0664019  -0.2793965
   1.0376292  -0.1146424   1.8484108   1.0842876   0.6532311   1.4209392
   0.4432723   0.0373642   0.0608636   1.7952876  -1.5305705  -1.0653687
  -0.4379316   0.5431362   0.7115426   0.1281913   0.1956108  -0.0330173
  -0.5689663   0.9830244   0.1653041  -1.3409285   0.0321145   0.4093577
   0.2287234   0.1920249  -0.0541752  -0.1472210  -0.4085275  -0.0170250
   1.3700421  -0.4847985   0.9641356  -0.0330477  -0.2114406   0.1497273
   0.4026346  -0.6904737  -1.1904861   0.1005314  -1.5642491  -0.6861469
  -0.0218237  -0.0610689   0.0450148  -0.0134001  -0.0479666   0.0430325
   0.6875728   1.2928114  -0.5542454  -0.1438771  -0.0831407   0.2414485
   0.4857186   0.0035661   0.8952394   0.3250054   0.2478628  -0.5522192
  -0.0958722   0.2095648  -0.0375933  -0.3980022   1.8908139   0.1572843
   0.5057531   0.2592994  -0.5386777  -0.0386017   0.2026113   0.1310132
  -1.4378441   1.7887485   1.6293064  -0.8718992  -0.7385548   0.2422546
  -0.1910269   0.3014527   0.1396352   0.1087311  -0.2884207   1.3107334
   0.4186608   0.8072962  -0.2134803   0.0219531   0.0567998   0.0766562
   0.8349156  -0.0632370  -0.1391228   0.1923960  -0.8151643   0.2979244
  -0.2352975  -0.0922855   0.2457422   0.1816683   0.6798121  -0.8875086
  -0.8906864   0.0395854   0.3458481  -0.1865733   0.1846453   0.2543588
   0.2641681   0.3580008   0.6122930   0.6402339   0.3956512   0.9495558
   0.0751572   0.2383549   0.1273633  -1.0321298  -0.4753600  -0.4531550
  -0.6092638  -0.1111843   0.1160198  -0.1444542   0.1201017   0.3007900
   0.2939517  -0.0346099   0.1506353  -0.5524270   0.9195952  -0.4926259
   0.3746881  -0.2699121   0.1284621  -0.5913577  -0.6203741  -0.2050063
   0.4396233   0.3120131   0.1587909  -0.1283675   0.0468850   0.0548332
   0.2544447   0.0582273   0.1749466   0.2195907   0.3088449   1.1170110
  -0.4320310   0.0620500  -0.1228048  -0.9333953  -0.0365391   0.5059967
   0.3296618   0.0973877  -0.6601807  -0.3459788   0.2189987  -0.0810668
   0.2958462   0.7758200  -0.1988435  -0.4848281  -0.5557349  -0.1637258
  -0.0837496  -0.1842281   0.0186426  -0.4946082  -1.0490695  -0.8202269
  -0.7305647   0.8068346   1.2933670   0.2195020   0.1306626  -0.1023610
   0.3348421  -0.6467872  -0.3341249   0.0350972   0.7759485   0.0581184
   0.0305739  -0.0266400  -0.1092463  -0.2509950   1.2517395  -0.2169324
   0.6865537  -0.8178866   1.0311834  -0.2057992   0.0853071   0.3035205
  -0.1388706   0.3635063   0.0292151  -0.2775068   0.4729093  -0.9927003
  -0.5420777  -0.0500592   0.0686948   0.7037254  -0.4596895   0.4325456
   0.6855428  -0.0865851   1.1002340  -0.0131403   0.1263292  -0.0077474
   0.2105235   0.0451983  -0.4138918  -0.3643101  -0.6992861   0.0319116
  -0.2338765  -0.2746547  -0.0170445   1.0548312   0.3738963   0.2750411
  -0.6674003   1.1154449  -0.0203557  -0.1840212   0.1595409  -0.1135896
   0.9476871   0.9350710   1.1220754   0.6612786  -1.2499517   0.8815718
  -0.1853397  -0.0891002  -0.2168735  -0.1267250  -0.7403056  -0.8604505
   1.0642497   0.6445013   0.2942039  -0.1412810   0.1804940  -0.0206518
  -0.9956074   0.4581718   0.8293855  -1.1551833  -1.2638817  -0.3068126
  -0.0511552   0.1537818   0.2422691   0.0118407  -0.3034583   1.6216844
   0.9198852   0.2570640   0.9203093  -0.0019898  -0.0837077   0.1487462
  -0.7716340   0.1098818   0.0721999   0.3419627  -0.9162860  -1.0864575
  -0.0868056   0.1281153   0.2491083  -0.0172247   0.6293928   0.3749021
   1.6466625  -0.0634666  -0.5060821  -0.2145012  -0.1848314  -0.3313496
  -0.4672124  -0.9523505  -0.7384341  -0.8908831   0.3254177  -0.4796362
   0.4110536   0.3601582   0.1083299  -0.4003042   0.1023202   0.2417808
   0.0580815   0.4975554  -0.8810014  -0.2957352   0.2032324  -0.1061005
   0.4650725  -1.6451854   0.3698847   0.5563139  -0.1904395   0.2301572
  -0.3479973   0.1680615  -0.3908736   1.2009865   0.8512347   0.0390906
  -1.1481881  -0.7899741  -0.4582272   0.2221508  -0.2239827   0.1197448
  -0.7167440  -0.4804247  -1.8120572   1.4086194   1.1910993  -1.0367432
   0.0055981   0.4023667  -0.0092771   0.6912321   0.8211218   0.6934849
  -0.3784170  -0.3446779  -0.8207837   0.0860184  -0.1149184   0.2729521
   0.2901248   0.6050376   0.4535772  -0.8155511   0.5197693   0.0475497
  -0.0520912  -0.0539225   0.1548478   0.6924503  -0.4151307   0.2136143
  -0.5838065   0.0691269  -0.3932412  -0.3463744   0.1474324  -0.2403536
   0.6550574   1.1382723  -0.8675074   1.5949787   0.0623161  -0.0151361
  -0.4193075  -0.1886760   0.3048579   0.1430720  -1.0505191   0.8210084
  -0.3144883   0.2856722  -0.8329532   0.1881465   0.3415431  -0.0891281
  -1.8495257   0.2797158  -0.3610989   1.8692254  -0.5527050   0.0469388
   0.0639114  -0.4005483  -0.1641732  -0.6107408  -0.4634632  -0.3557247
   1.0991933  -1.0283519   0.2943493   0.1299117  -0.1576364   0.4553062
   0.2119632  -0.7465595  -2.4242072   0.2611144  -0.3262822   0.2878137
   0.0439198  -0.1201574   0.1845296   0.6194350   0.6068417   0.1027973
  -0.1117994  -0.4777008  -0.2300069   0.1051264   0.1562774  -0.0561798
  -2.2747690   0.4174367  -0.8925640  -0.5846876   0.4447735   1.6756178
   0.0203205  -0.1913096   0.3796638   0.1050298   1.5906976   0.4094844
  -0.2774495   0.6599023  -1.3035686  -0.0904790   0.0058077  -0.2927340
  -0.1728880  -1.6826824   0.3854208   0.1453181  -0.4589423  -0.1560661
  -0.2296133   0.1134752  -0.2865257  -0.3055672   0.6457642  -0.2266807
  -0.4808832   0.0749241   1.2530730  -0.3782684   0.1507079   0.0832251
   0.4993743  -0.1373557   0.8921837  -1.4777291  -0.3949500   0.7540654
  -0.2648299  -0.3988935  -0.1032674  -0.9107821  -0.2097639  -0.9070083
  -1.6620152   0.3590302   0.1831357  -0.1320303  -0.2177300   0.0712297
  -0.3225620  -0.6393847   0.1231886  -0.2518914  -0.4676216  -0.2132527
  -0.0413336  -0.0605741  -0.1183367  -0.3195276   0.3585977   0.4214111
   0.6522887  -0.6987558  -0.0300656  -0.1260020  -0.3090050   0.3391976
  -0.1371332   0.5109282   0.6363673  -0.2403237   0.1155830  -1.2608332
  -0.0390426   0.1871220   0.1213519   0.3355226  -0.2690241   1.6992176
  -0.0219974  -1.0211272  -0.6987767   0.0791900  -0.0819492   0.2086960
  -1.1497285   0.1015603  -0.3526917  -0.8463644   0.9737810  -0.4689730
   0.0949793   0.1994868  -0.0768539  -1.1512750   1.0146228  -0.8390927
  -0.5413140   1.5150238  -0.1801102  -0.0090763   0.0223051  -0.1787862
  -0.1060218  -0.3237502  -0.0837265   0.3679099   0.8795078  -0.2427826
   0.0235150   0.0167758  -0.2041604   1.1709505  -0.2332032   0.2543624
   0.6188117   0.2094154   0.1688384   0.4439049   0.0377310   0.3832247
   0.6413475   0.1444889  -0.4619241  -0.6592369   0.2720424   0.3050425
   0.2077189  -0.1112750  -0.3049500   0.0569038   0.6290647  -0.2992165
   0.4332643  -0.1410267  -0.0690286  -0.1361557   0.0843851   0.1643543
  -0.7475214   0.2731160  -0.7262080   0.4614393   0.1466381  -0.4666450
  -0.0765656  -0.3553619  -0.0594963  -0.0830473  -0.9528560  -0.0295398
   0.4578239  -0.3898728  -0.4250428  -0.0766373  -0.0354534  -0.2240449
  -0.2372209  -0.7252862  -0.2983413  -0.2912126   1.0462376   0.7952873
  -0.1588992  -0.0965527  -0.0529565  -1.1076050   0.4888424  -0.0022179
   0.5009214  -1.5879014  -0.8461547   0.3530816   0.0422885  -0.3190944
   1.4154500   0.4539430  -0.4164472   1.6963301  -1.2884941   0.1576963
  -0.3994087  -0.3460507   0.0852753   0.3865251   0.1614914   0.0928289
  -0.8341665  -0.5380383   0.3050815   0.0530228   0.1551735  -0.0698716
  -1.3700614  -0.6352731  -0.8843459  -0.0608820   0.2032539   1.1523401
   0.2830102   0.0687830  -0.1989508   0.7876177   0.2495459  -0.2104791
   0.0769537   0.7767857   0.3861488   0.1199889   0.0905753   0.2231537
   1.0046526  -0.4032614   0.7632956   0.0103298  -0.1923076  -0.1161245
  -0.0622693   0.2289602   0.1158052   0.0920539  -0.1572456   0.3529512
   0.4161398   0.3655804   0.4644716  -0.3094678  -0.1993128   0.1386951
  -0.4802866  -0.6800043   0.1215475   0.5435523  -0.6559765   0.6779924
   0.0028028   0.0792780  -0.2167204   1.8870015  -0.1842044   0.2777545
  -0.8036037  -0.1269771  -0.1628866   0.0933031   0.0619551   0.3904732
   0.5248783   0.9238441   0.1466550  -0.0618539   0.7268392   1.3475347
  -0.2193798   0.0504238  -0.1144216   0.6010023  -0.1300240   0.5481618
   0.4354918   0.9973806  -0.6869957  -0.1769070   0.0438312   0.1509455
  -0.6464601   0.7290821  -0.0262042  -1.1586384   0.7491367  -0.3516544
  -0.2553398   0.1325615   0.2164593   1.5569161  -0.1925436   0.4669633
   0.2177117   0.3248304   1.1516685  -0.1660754  -0.1850249  -0.3389512
  -1.3879087   1.1623279  -0.8803726  -0.5799941   1.6057519   0.5174797
   0.0826593  -0.2313249  -0.0020187   0.4655557  -0.6214562  -0.2455984
  -0.0416795  -0.3232098  -0.2659362  -0.2138826  -0.0395931  -0.0791661
  -1.2716042  -0.7126603   0.7776667   0.3393919  -0.9145677  -1.3237268
  -0.1458994   0.1331344   0.0800021   1.0540601   0.6874598   0.4845867
  -0.7948161  -0.1706685  -0.4271129  -0.2228707  -0.1301522  -0.1016298
  -0.4574642  -0.4683306  -0.7847841   0.5695730   0.5910316  -0.5650753
  -0.3889474   0.2584065   0.1422421   0.7617349   0.7106443   0.0338822
  -1.1070961  -0.7541161  -0.1668972  -0.3165323   0.0080553   0.0151759
  -0.3083716   0.2639540  -1.2545236  -0.3745936  -0.7649605   0.6898209
  -0.3507395   0.2558102  -0.1143202  -0.9241996  -0.5561669  -0.8950509
  -0.2755471   0.1908255   0.9066567   0.0142798   0.0600668   0.1961794
  -1.2949003  -1.2388578   0.1878682   0.5118275  -1.0539348   0.3336343
   0.4188786  -0.0901047  -0.2054451  -2.3796709   0.5416788   0.4710493
   0.0807561   0.0094605   0.3236385   0.0299411   0.1183203  -0.0272979
  -1.2265011   0.7374791   0.2430867   0.8887229   1.1718698   0.0460142
  -0.1360984   0.1244360  -0.0531280  -0.4644748  -1.7085174  -0.0875831
  -0.0862579   0.6951012   0.1777678   0.1092361  -0.0776452  -0.1191530
  -0.2341632   0.3219290  -0.3968312  -0.2597231  -1.7994066  -1.1717096
  -0.0781905  -0.3604238   0.0688332  -0.0984606   1.2864453   1.4269013
   0.0211166   0.8663532   0.3829212   0.2848661   0.0798262   0.0044817
   1.0332380  -0.0421039   1.4955329  -0.6376430  -0.2946769   0.3791957
  -0.0841199  -0.3735810   0.3649615   1.0261326  -0.3007215   0.6544187
  -0.3173153  -0.3636739   0.4214234  -0.1526798   0.0393956   0.3471289
  -0.3556649  -0.2703606  -1.6988191   1.2242910  -0.3234837   0.9154809
  -0.0490896   0.0777206   0.1687914  -0.2692412  -1.4387929   1.0148925
   0.7129020   0.1792182   0.0647643   0.1521868   0.3352799  -0.0395123
   0.4683216   0.1278747  -0.1809480   0.4151304   0.0670835   1.0138902
  -0.0292124  -0.0642527  -0.3423228   0.7383670  -0.6587044  -0.6015225
   1.8036850  -0.6153577   1.7918487  -0.1424612  -0.1199575   0.2174375
   0.9510646  -0.8341655  -0.3256303   1.7298246  -0.4954604  -0.5908391
   0.1433482  -0.1365050  -0.0783900  -0.5345890   1.0238487  -1.5048248
   0.3387361  -0.1004811  -0.4849287  -0.0723719  -0.2057586   0.1370640
   0.0583443   1.9576462   0.8435747  -0.3557513  -0.6156302  -1.3311672
   0.2476203   0.1322405   0.1142159  -1.6795467  -0.8389377   1.3025620
  -0.3344757  -0.4432784  -0.8686646  -0.0611168  -0.1572200  -0.1901355
  -0.9768667   1.3219002   0.8553486  -0.5793370  -0.9771033   0.1721988
   0.1872877   0.2427560  -0.1169308   0.3121382   0.4851683   0.2419972
  -0.6646989   1.6618880   0.5121918   0.0522034  -0.1027599  -0.5600337
  -0.6316951   0.8152113  -0.0396102   0.3039093   0.1061678  -0.2196555
  -0.1485774   0.1185153   0.1396520   0.5693002   0.4597889  -0.0514160
  -0.4531865   0.2135763   0.0308372  -0.0650052  -0.0288494  -0.1167922
  -0.3538340  -0.7162222   0.1819285  -0.2589914  -0.8939142   0.1568072
   0.1626169   0.1732206   0.1150689  -0.3226204   0.3142177   1.2441123
  -0.2931877  -0.3441401  -0.1823851   0.4005027  -0.1921914  -0.1412789
   0.0285772   1.2990615  -0.9817153  -0.6393731  -0.4652092   0.3941234
  -0.1271751  -0.0163401  -0.0029267  -1.1713678  -0.6149587  -0.7011404
  -0.7971757  -0.3524709   0.2105256  -0.1816382   0.0739741   0.2196702
   0.4694703   1.0650438  -0.6981049  -0.1141519   0.1504330   0.1112379
   0.0186278  -0.2366219   0.0908241  -0.3283689   0.5772945  -0.1203395
   0.5703401   0.1507619  -1.1740268   0.0008121  -0.3576723  -0.0743372
   0.7326620   0.7498627  -0.1156664  -0.1333084  -0.1413151  -0.6717708
   0.1379708  -0.3052094  -0.2989595  -0.9613872  -1.3339417   0.0717346
   0.3118247  -0.5963440   0.4833186   0.1287130   0.1537360  -0.2080018
   1.6208635   1.3185507  -0.0113722  -0.4838207  -0.2394626  -0.5421623
  -0.3436628  -0.0827047   0.1025673   1.5102225   1.0664162  -0.1074899
  -0.6564332   0.5841946   0.2502558   0.0870041   0.1231789  -0.1105902
   0.6272631   0.4817537  -0.4325201  -0.8421800   0.5791591  -0.0118472
   0.1042316   0.0173949   0.0435718   0.9900038  -0.5445205  -0.1824916
  -0.3438686   0.2747549  -0.3820763   0.2585834   0.1562499   0.0489647
   0.8355390  -0.2869312  -0.0608382   0.1237622   0.7531697  -0.8961790
   0.5495706   0.2301105  -0.2067239   0.5572303  -0.3348855  -0.2228868
  -1.0082825  -0.2750345   0.2750230  -0.0710167  -0.3114979   0.0618919
  -0.4344670  -1.1989485  -0.8858451   0.6704545  -0.4956800  -1.0520800
   0.2391375  -0.1437144   0.3022687   0.0296747   0.4070312   1.4746577
  -0.5509429   0.5822610  -1.2526468   0.0250123  -0.2348072  -0.0547318
   0.2754753  -0.6376593   1.0920174  -1.0231229   0.1319345   0.0191312
  -0.1650483  -0.2217568   0.0335143  -0.3858640  -0.7937159   0.4585845
   0.3114523  -0.4167279   0.1338550   0.2800360   0.1588789   0.1752658
  -0.5146979  -1.1826115  -0.6250785  -0.0749101   1.8904652  -0.4632557
   0.0792394  -0.4311267   0.2134068   1.1162919   0.3849921   0.5613464
  -0.4516016  -1.4080112  -0.4021755   0.1493377   0.0859710  -0.2219688
  -0.2854089  -0.0294173   0.3075462  -0.9673707  -0.6075906   0.8219747
  -0.0865014   0.0286821   0.1376716   0.4247305   0.8371452  -0.3936122
   0.1423833  -0.8261860   0.5733172  -0.0540495   0.0638938  -0.1696000
   0.5677097  -0.2062839  -0.1815002  -0.9801690  -0.0729437  -0.2293289
   0.1347668  -0.2186391   0.2642379   0.9203366  -0.7980967  -0.6322935
   1.8579593   1.2455979  -0.1101709   0.2953321  -0.0223419   0.3235352
   0.1188820   0.4691486   0.2077049   1.2207063  -0.6752489   0.6290344
   0.0556779   0.4427181   0.2087851  -0.6504026   0.2601718  -0.2401076
  -1.1275260  -0.3242712   0.7039138   0.0917367   0.0538072   0.2399432
   0.5972390  -0.3262837  -0.2475431  -0.1980521   1.3083898  -0.1333999
  -0.1868582  -0.0988727   0.2760020  -0.2338555  -1.3477301   0.0926697
   0.2874239  -0.3478078   0.1919905  -0.0606777  -0.1453598   0.2093671
  -0.7388479   0.1155294  -1.1962437  -1.2214250   0.2462165   0.7503029
  -0.0216234   0.1127182  -0.0843019   0.7442533   0.7830963   1.6761497
   1.0187074   0.8292180   0.3256366  -0.0481180   0.0679743   0.0032752
   0.4277844   0.4726876   1.5028559  -0.6976657  -0.2813679  -0.1634362
  -0.0031101  -0.2463935   0.0945501  -0.2612519  -1.0339473   0.0251556
  -0.5928835  -0.1598958  -0.8467206   0.0873242   0.0748502  -0.1102389
  -0.0399081  -0.6776058   0.1351031  -0.6917449   1.1237912   0.8474773
   0.4348296  -0.1734463  -0.1669227   1.1528596   0.3093631  -1.1083451
   0.5080851   1.3950522   0.1874629   0.2155353  -0.0208627   0.1441036
   0.4007242   0.6686675  -0.4216212   0.9903517   0.0968158   0.0483261
  -0.1467144  -0.2613628  -0.1785601  -1.0549409  -0.5938213  -0.4208106
   0.8144407   0.0639608  -0.0223974   0.0617869  -0.1243080  -0.1681187
  -1.9461910   0.7339527   0.1100283   0.5360827   0.6774329   1.8008365
   0.1353432   0.1764318   0.3008230  -0.2971406  -0.3265380  -0.5603360
  -0.0576005  -0.0187073  -0.4126451   0.2309520   0.1416850  -0.1320169
  -0.4993068  -0.5122467   0.9226498   0.3609908   0.3084609  -1.3145395
   0.1421869   0.0094448  -0.0819083   1.0441656  -0.1770463   1.1318047
   0.3930154   0.3045452  -0.1043032  -0.0413305  -0.1912788  -0.0296520
  -0.1095448  -0.8945848   0.2642231  -0.6776215  -0.3962602  -0.9663822
  -0.2605781  -0.2479833   0.1139048  -1.3369228   0.1748536   1.1293635
  -0.0279179  -0.0841513  -1.6685978  -0.0982128  -0.1528901   0.2574472
  -0.3503043   0.8227895  -0.8023816   0.4282276  -0.2427797   0.1199184
   0.2601633  -0.2778652  -0.1253375  -0.0796915  -0.2950916   0.0647846
   0.1171584  -1.1908901  -0.3709136  -0.0658105   0.3030160  -0.1171375
   0.6682697  -0.0784629  -0.0313097   0.3929509  -2.2068830  -0.2451888
  -0.3880223  -0.3119878  -0.1120413   0.0748197   0.2466792  -1.8801314
  -0.7165895   0.1530621  -0.1753414   0.0332149  -0.1027159  -0.1106737
   0.2265050  -0.2682423   1.0605379   0.0988002   0.5675577   0.8387656
  -0.0254061  -0.0752570  -0.0235735  -0.4345944  -0.6563926  -0.1377515
  -0.2618702   0.1861977  -0.4216562  -0.1108296   0.1121921  -0.5201610
  -0.4239759  -0.2097784   0.4679170  -0.4073409  -0.6169100  -0.0074151
  -0.0281908   0.4180241  -0.1073260   0.4109840   0.5418429   0.8825521
  -0.1956180   0.6943114  -0.5242095  -0.1320606   0.2639186  -0.0142853
   1.1458673   0.2409139   1.0318284  -1.8498146  -0.0687210   1.3384061
   0.0193070   0.1465673  -0.1380908  -0.0469097   0.5115466  -1.0261800
  -1.0442847  -0.4353280   1.0529335   0.3377293   0.2843566  -0.0320948
  -1.0308399  -0.0090940   0.5481248   0.3180908  -0.8809701   0.4438847
  -0.0558047   0.1982169  -0.0589753  -1.5024600  -0.5087327   0.3240165
  -0.6383745   1.2676378   1.0966892   0.0329238  -0.2825005   0.2009672
   1.0461478  -0.7166072  -0.5176880   1.0355384   0.0160632  -1.5621356
  -0.0275003  -0.4045405  -0.3914747  -0.1228825   0.8164418  -1.8285352
   0.2991207   0.4674392  -0.8299735   0.1186279  -0.3321485  -0.2986147
   0.6268452  -0.9956999   0.1739313  -1.6214845  -0.9158450   0.2986072
  -0.0139339  -0.2877478  -0.3552475  -0.0783715  -0.1753807   2.1188099
   0.8510614   0.4372403  -0.1388145  -0.0420180  -0.0678864   0.2145471
  -0.4607709  -0.2698106   1.2058517  -0.1983662  -2.2584008  -1.0855022
  -0.0085548  -0.2446832  -0.0788658  -0.5247670   0.7261020  -0.9302229
  -0.9580088   0.9302347  -0.5175780  -0.1746335   0.0614178  -0.0741948
  -0.1136504   0.4046478  -1.6813229   1.5432714   0.1602855  -1.3353769
   0.2069322  -0.0156017  -0.2570228  -0.6295845  -0.9552024  -0.4910492
   1.9752574  -1.7090031   0.1167014  -0.0622939  -0.1878400   0.1161454
  -1.1610338   0.7423947   0.0591650   0.4606107  -0.9299417   1.0375653
   0.2523882  -0.3123250  -0.3004070  -1.0686069   0.4556361   0.8043740
   0.4845186   0.4113038  -0.4914837   0.2047507  -0.0414221   0.3375980
   0.2085179  -0.6913387   0.5919759   0.9852347   0.7713932   0.0239016
   0.0074254   0.3363405   0.0211661  -0.6400776  -0.8369111   0.4242816
  -1.0521479  -0.2220452  -1.0729101   0.2277289   0.0305424  -0.1128647
   0.0518511   1.0329933   0.2484198  -0.5961631   0.0818322  -0.1259270
  -0.2400700   0.2638116  -0.0915020   0.4912774  -1.2232205   0.6582258
   0.5732031  -0.1704662  -0.0768914  -0.0545837   0.1081479   0.4207987
   0.2078882  -0.7233808  -0.0141207   0.4989410   1.5695566  -1.9989922
  -0.3017087   0.1154027   0.0693844   0.4112463  -0.2274419   0.2510427
   0.8461157   0.5369549   0.6916483   0.3840232   0.3938488  -0.1377969
  -1.4089053  -1.2079848  -0.6374568  -0.0649435  -0.4714072  -0.7847320
   0.0849256  -0.2698111   0.2095569  -0.0003763  -1.2817285   0.8420651
   0.6996545  -0.4530003  -0.5560979   0.2089117  -0.1302102  -0.1052452
   0.0253005   0.7856174   0.0873037   0.4400678   0.7213677  -0.0460796
  -0.1331189  -0.1012833   0.3627070  -0.3730868  -0.2643049   0.4663581
   1.1986518  -0.0329149  -0.6741146   0.4188749  -0.1543147   0.0232836
   0.4495471  -0.7183440   0.6850208   0.2300039   1.5428887   0.4404885
  -0.1626549  -0.2488138   0.0265466   0.4412159  -0.3196360   0.6664785
   0.0639362   0.5645747   0.8054934  -0.5075352  -0.3279087   0.0633435
   0.4621074   0.7040919   0.0366465  -0.4914977   0.1132623   0.6670703
  -0.1124943   0.2120824  -0.0985456  -0.5856470  -1.4650396   0.0721500
  -0.2987447   0.7652436   0.2159713   0.2945667   0.1078510   0.1937526
   0.3017277   0.3185790   0.7891674  -0.8305208   0.1640993   0.1775228
   0.0984803  -0.0063005   0.1499871   0.2503563   0.1281225   0.9103116
  -0.0326817  -0.6410309  -0.5872587  -0.0585790   0.0422050  -0.1783971
   1.5378458   0.4793275   0.1107990  -0.8779996  -0.9423156   1.2577255
  -0.0780394  -0.1346532  -0.0501408   1.1950466  -0.7668816   1.0969462
  -0.7532142   0.2000221   0.1928546  -0.1570298  -0.3865315  -0.1874158
  -0.5630380   0.4362451   0.3406689  -0.5738644   0.0057315   0.0911603
  -0.1082948   0.1195547   0.3619257   0.1952954  -0.5513326  -0.2257294
  -0.2942519  -0.4723064   0.0948531  -0.0759635   0.2193832   0.0933949
   0.5101768   0.5389220  -0.2685390  -0.5427232   1.4732849  -0.4755899
   0.1900728   0.0365353   0.0699490   0.1898578   0.4705026   0.0357434
   0.5586067   0.0132488   0.6485211   0.1548117  -0.1761294   0.0989430
  -1.9454926   0.0472725  -1.0851652  -0.5062413  -0.3641935  -1.5035031
  -0.0838507  -0.0018553  -0.0944159   0.4707382  -0.4259381   1.3070016
   0.6140738   0.0842321   0.9745980   0.0382109   0.3133046   0.1520901
   1.1567636  -0.4727965   0.9514257  -0.2792566  -0.2048110   0.1491014
  -0.2968149   0.0747730   0.0464103   0.9459398  -0.9145734  -2.0304189
   1.3401330   0.0359909  -1.1002498   0.0258705   0.0097814   0.1456070
   0.0107490  -0.1542584   0.1658848   0.7378856  -0.6841477  -0.7011468
  -0.3540972   0.1218110  -0.0119987   0.4188512  -0.9921566   0.3388378
  -0.1264347   0.1554537   0.1278395   0.2394328   0.4006794   0.5501459
  -0.5855518   0.3655512   0.3403151   0.1970930  -0.4598218  -0.2357639
   0.1775551   0.0362820   0.0533987   0.7753307  -0.0457082   0.3844097
   0.1038383  -0.7415977  -0.4386356   0.4177284  -0.1862749   0.4531283
  -0.2061644  -0.8617397   0.7383006  -0.5844240  -0.2733216   1.1819090
   0.1114372  -0.3482719   0.0022404   1.0663590   0.4113392   0.8729223
  -1.3248587  -0.0629522  -0.2674884  -0.3417112  -0.1092084   0.0063112
  -0.5660931  -1.2530437   0.2817105  -0.1013932  -0.2935504   0.2844239
   0.0475879  -0.0920292   0.1547211  -0.2641182  -0.3858202   0.6050297
  -0.5785505   0.5254046   0.0703394  -0.1431676  -0.0480190  -0.4857357
  -0.2386068  -0.4530451   0.8625327  -1.0786902  -0.4306935  -0.5920011
   0.0265504   0.1555562  -0.1092568  -0.6374326   0.2294098   0.5634220
   0.7049418   0.4809671  -0.7289326   0.1097449   0.1168667   0.0610826
   0.6281134   0.3504354  -0.7934656  -0.8504116  -0.4456706  -0.3872176
   0.1193400  -0.1085507   0.1216008   1.2153108   0.7468415   1.5282050
   1.7087172  -0.7255580   0.5850621   0.0145227   0.0267279  -0.0089391
  -0.2977816   0.8188168  -2.2100834   0.6062687  -0.8098852   0.9553481
   0.0625212  -0.0902538   0.3524366  -0.6753998  -0.9652545  -1.0411209
  -0.1253959   0.1868134  -0.5473710   0.0769118   0.0351114   0.0437700
  -0.6373016  -2.6010104  -0.7213905   0.2139620   0.0318084  -0.4665937
  -0.2224895  -0.1709600   0.2535897   0.4411386  -0.9231366   0.9385978
  -2.1684929   0.5450673  -0.4198931  -0.2003962   0.4706316   0.2907858
  -0.1197177  -1.2232992  -0.3406803   0.3006944   0.9665575  -0.9799705
   0.3442367  -0.1744851  -0.4524155  -0.4187216   0.7571163  -0.1899438
  -0.4687101   0.4030494  -0.2868842   0.0525327  -0.0816357  -0.0434825
   2.6250820  -0.1113977  -0.6684870   0.4142784  -1.3799541  -0.0739977
   0.3944150   0.2298405  -0.0886619  -0.1058119   0.6853920   1.1943867
   0.6170526  -1.4095602  -0.2634599  -0.0224391   0.0130556  -0.1083301
   0.0173803   1.2192391  -0.4281215   0.5888582  -1.1406110  -1.0096020
   0.2542244  -0.2869657  -0.0544013   0.8426235   1.6212278  -0.8529406
  -0.4921689   0.0973202   1.0033402   0.0669095  -0.0989742  -0.0813656
   1.0099413  -0.5228364  -0.1725472   1.0300587   0.0808559  -0.8137785
   0.2851375  -0.1358722  -0.4076826   0.9053538   0.0175644  -1.1560964
  -0.6166864  -0.6234375  -0.4138300   0.0393325  -0.0142681   0.0304496
  -0.1539085   1.6296307  -0.0359563   0.3660436  -0.8528903   1.5257659
  -0.1673469   0.1278655   0.0038057  -2.0787913   1.6267469  -1.2428453
  -0.4085378  -0.3436479   0.2656458  -0.2340223  -0.4166947   0.0272159
  -1.1755999   0.6812237  -0.0364722   0.1530776  -0.1316351  -1.6729162
  -0.0567441   0.0757348   0.2822864  -1.7377177  -0.6274954   0.4485112
   0.2121832  -0.2141228  -1.0540513   0.0044142   0.0065696  -0.0225085
   0.0123501  -0.9979642  -0.2910676   0.6723245   0.0841286   1.9178184
  -0.2941125   0.3508916   0.2654392  -0.5192192   0.4520236  -0.2678097
  -0.8161597  -1.0619661   0.3703897   0.0283892   0.1767149   0.0034674
  -1.1868436   1.1166739  -0.3840577   0.6546738  -0.1929037   0.4660005
  -0.0596795   0.0609048   0.2118646  -0.3570768  -1.3428413  -0.3098563
   1.1318369   0.1530233   0.9534080  -0.0745045   0.0138430  -0.0603866
  -0.7495285  -1.1869811  -0.6862266  -0.9189954   0.4350398  -0.3500540
  -0.1567403   0.0475012   0.1355650   0.2405467  -0.7022326  -1.6999257
  -1.7324176  -0.2206208  -0.2354032   0.1644148  -0.3033331   0.1287105
  -0.0957711   0.1854831  -1.1247837  -1.1742931  -0.8051272  -0.3299781
   0.2188558   0.2972261  -0.2812930  -0.2436353   0.4262079  -0.7639681
   0.9707875  -1.2050448  -0.4245593  -0.3268040  -0.1405283  -0.0956004
   1.1783200   0.4791227  -0.7941599  -1.1764820  -0.4175365   0.8336868
   0.0410465  -0.0091243  -0.0626140   0.1690568  -0.7353695  -0.6934397
   0.2204321   0.5126458  -1.3360002   0.2463733   0.2647890  -0.4074273
   1.4608529   1.0194417   0.9741747   0.7348934  -0.9850554   0.6513002
  -0.3928581   0.1493457  -0.2803749   0.0685328   0.6030065  -0.8413479
  -0.1815082  -0.6591541   1.0968489   0.1061705   0.3546957  -0.5051665
  -0.1735925   0.1983280   0.4906521  -0.0258757  -0.3516893  -0.7770342
   0.2183107   0.0976377   0.5294919  -0.0154915  -1.0539496  -0.8532696
   1.2109482  -0.9262742   0.8197310   0.0149866  -0.0114235  -0.0021182
  -0.8790200   0.1669547  -0.8880458   0.3892185  -1.2448156  -0.4774649
   0.2667945  -0.0090910   0.1959644  -0.0460633  -1.7568517  -0.6809874
  -2.0755493  -0.3017704   0.2794586  -0.0137977   0.0228958  -0.0132444
   0.1728880   0.0292374  -0.0021649  -0.8884201   0.5935205   0.7996664
   0.0849916  -0.0007340   0.0861130  -1.0272881  -0.4734348  -0.8704940
  -0.2474232   1.1954699   0.6252371   0.4059255   0.0648949   0.1229835
   1.5003853  -0.3139158   0.3441520   0.2925477   0.4651251  -1.5769031
  -0.2029046  -0.3389330   0.2149114   1.0439475   0.0635428   0.7829936
  -0.4975929   0.3447435  -1.1707776  -0.0777495  -0.0639614  -0.0338127
  -0.4933808  -0.8596797  -0.2134170  -0.6212108  -0.2913614  -0.5639927
  -0.0450552   0.0189896   0.1875193  -0.8263882  -0.9880620  -0.2166789
   1.2929406   0.5743423   0.8815718  -0.1477405   0.1437030   0.1899908
   0.3348848   0.8464316   1.8595917  -0.7668588  -0.1627987   1.4706319
  -0.2180501   0.1043055  -0.1390133   0.7065681   1.1020719   0.1799259
  -0.4303693  -0.7169540   1.1047466   0.1499302  -0.1114772   0.1128134
  -1.2218539  -0.6249863   1.3316851  -0.2530267   0.0223536  -0.4300379
   0.0369119   0.3203464  -0.1581106  -1.1392993   0.7355566   0.4789813
   0.2146179   1.5568311  -1.2326285   0.0410637  -0.2620604  -0.0927556
   0.3852615  -0.5919408   0.1551536   2.1345339   0.1268710  -0.3540678
  -0.3006016  -0.0916678   0.1764082   1.0183500  -0.3890214  -0.8553268
   1.2358936   0.2755348  -0.2480291   0.0047247  -0.3335421   0.0514843
   0.0266963   0.1802283  -1.3495257   0.4640850  -1.1747751   0.8896289
  -0.0813639  -0.3335534   0.1872984   0.1980789  -0.9649217  -0.1984604
  -1.4499522  -0.3409610   0.1331536   0.1073895  -0.2854568  -0.1519628
   0.7679316  -1.0674025  -0.8025821  -0.4658485   1.0803312  -1.3764689
   0.0037173  -0.1862293   0.0132806  -0.2838271   0.1616144   0.4299831
   0.1109536  -0.8322696   0.2078921   0.0131772   0.0293612   0.1395479
  -0.8030258  -0.2899052  -0.9791512   0.3348571   0.1617777   0.0325865
  -0.2028416  -0.1830684   0.0782979  -0.0758625   0.8924853  -0.9101851
   1.7199398   0.2599837   0.2120562  -0.2429414  -0.2633496   0.2046627
  -1.4002395   0.1188185  -0.4345876   0.7366774  -0.2328188   1.0028535
  -0.1880503  -0.4203452   0.1087491   0.1452864  -0.3455643   0.9994040
  -0.5866739   0.8945208   0.5467387  -0.1424929  -0.0851244   0.5027861
  -0.4803214   1.1491726   0.2937543   0.4577830   0.9614852   0.1897561
   0.3676647  -0.2989711  -0.3413798  -0.8743803   0.6260557   0.4382973
   0.2997822   0.4280833   1.3535548  -0.3914400   0.2878700  -0.1457691
  -0.4641482   1.7174727  -0.7931061   1.8515712   0.4431101  -0.0294126
   0.4016418   0.0375519   0.0350095  -1.3463230  -0.2958419   0.6842747
   0.3292228  -0.0620748   0.1944318   0.1176745  -0.1421003  -0.2121739
  -0.2837639   0.1935667   0.7777766   0.2337530   2.0311605   0.2046769
   0.1330355   0.3358751  -0.0299101  -0.3825125  -0.5343065  -0.7002963
   1.3369979   1.3091489  -0.0739708   0.2723145   0.0429069  -0.2241772
   0.7819778   0.1686006  -0.8942005   0.3203165   1.2722852  -0.2684752
   0.0550266   0.0891372   0.0515053  -0.1413308   0.3444894  -0.2021343
   0.7537200   0.6097700   0.3433571  -0.2419679  -0.0765965  -0.3503090
   0.2397995   0.6392683   0.0050353  -1.8737817   0.2958997   0.2024164
  -0.1022248   0.5631466  -0.0059788   0.7385711  -0.0646649   1.4939124
   0.6511301   0.6987850   0.1382168  -0.4809075  -0.1022999   0.2045127
   0.1128797  -0.5985788   0.2634571   0.0584782  -0.2259381  -0.9729448
   0.0523141   0.1048780   0.2449970   2.4334980   0.0397381  -0.9632195
  -1.0633273   0.0228266  -0.0925685   0.1867996  -0.1561086  -0.0356622
  -1.1334201  -1.9907757  -0.2834062   0.0550811   0.7461288  -0.4053520
  -0.2868430  -0.2117458   0.0742142   1.2357495  -0.2833668  -1.1818985
   0.1536838  -0.1665176   0.4995483  -0.1972919  -0.1766020   0.1881647
  -0.4691541  -0.0292662  -0.9012022  -0.6141726   0.5437409   0.4883709
  -0.1596916   0.1425266  -0.4883057   0.0574239  -0.0542571   0.6011443
  -0.0713961   0.4984180   1.1798950  -0.0009625  -0.2523828  -0.2317399
  -0.6097995  -0.1601669   1.1008752  -1.3857348  -0.0095655   0.3577844
   0.2998406   0.0661473   0.1667164   0.0305662   0.1516764   0.0820629
   0.6072334   0.2751341  -0.3859027  -0.1244459   0.0345169   0.1299824
   0.2543737  -0.8545873   1.2811121  -1.2811896   0.3044568   0.7655674
  -0.1119046   0.1807972  -0.0966077   0.0833665   0.5005658   0.4424298
   1.8522721  -0.8814313   0.1895899   0.1226580   0.0147207   0.0383308
   0.5864752  -0.6902199  -0.1587534  -0.1375297   0.5085753  -0.8962910
   0.0702643  -0.0427767  -0.3194952  -1.2899050  -1.3791205  -0.3820875
  -0.6081695   0.1375923   0.6332669  -0.0637583   0.0595058   0.0159129
  -0.4063053  -0.6833217   0.0792591   1.2074172  -1.8537021  -0.7351333
  -0.0798109   0.0290390  -0.2111830   0.1954917  -0.7628457  -0.5302941
   1.0928390   0.4265518  -0.5104821   0.0540508   0.0809379   0.2407193
   0.5625512   1.3652496   0.7861552   1.0706180   0.5448095   0.1345924
  -0.1821667   0.1206779  -0.2141224   0.2853228   0.1182133  -0.4129972
  -0.3526994  -1.1575171  -0.6806643  -0.0597940   0.3238423  -0.0477493
  -0.4620439   0.1465835  -0.9439915   0.2162646  -1.1068230  -0.3213546
  -0.2709498   0.1792131   0.0340878   0.0872736  -0.4765607   0.0180441
   1.2982093   0.7568024   0.4706572  -0.3424795  -0.1855651  -0.1404464
   0.5706785  -1.3064116  -0.7117099   0.3761195  -0.3914213   0.1965868
  -0.1324003   0.1481352  -0.1733624  -0.1045904  -0.6358744  -0.0831663
  -1.0729466   0.2048458  -0.4574465  -0.0253111  -0.1157407  -0.0909590
  -0.0828623   0.0445102  -0.1343300  -0.4223353   0.4580711  -0.1805359
   0.3283073   0.1151509   0.2521041   1.0837776   1.8600814  -1.0202658
  -0.5359113   1.1672010  -0.3054122  -0.2963383   0.0856975  -0.1044807
   0.0146692   0.6974479  -1.1534463  -0.0440377  -0.0237435  -0.0534515
   0.4216266  -0.1765105  -0.1778499  -0.8102333   0.5785228   0.4896800
  -0.8309745   0.2598744  -0.4519296  -0.1126198  -0.0353137  -0.2119716
  -0.2582036   1.1293980  -1.9265058   0.3623297  -0.5218375   0.3454205
  -0.3416174   0.1610949   0.0030825  -1.5405984  -0.9074064  -0.0566449
   0.2047674  -1.4486555   0.4142732   0.0386434  -0.1922648  -0.0636956
   0.2572038   0.0856671   0.2176093  -0.8218333  -0.9391911  -0.3434540
  -0.0009584  -0.1664785   0.0630422  -0.9352138   0.4227129  -0.6153415
   1.5039241  -0.3401007   0.7188680   0.0142865  -0.1844234  -0.1974171
   0.6026368  -0.2795211  -0.3831014   1.4096450  -0.1011594   0.3164252
  -0.0621081  -0.0139018  -0.5459565  -1.0638714  -0.3429672   0.6539711
   1.5017419   0.4973681   0.0838961   0.1503631  -0.0428538   0.3469117
  -2.0839920  -1.3917242  -0.1902148  -0.2035186   0.8134911  -1.3360234
   0.0269462  -0.1925401   0.1313444  -1.0711117  -1.5189897   0.1115971
  -1.5417086   0.4697872   0.6413969  -0.0207548  -0.0424409   0.2535239
   0.1039146   0.3067381   0.4132487   0.0971328   0.6113788   0.4199085
  -0.5538776   0.1408053  -0.2177896   0.3194719  -0.6297245  -1.0650141
  -0.1035830   0.2456432   0.3442961   0.2739798  -0.1517270  -0.0139471
   0.3049887  -0.2571463  -0.0542413  -1.8808214  -1.3268031  -0.8263788
   0.0741658  -0.1096537   0.2360304   0.9791036   0.8284052  -0.2952171
   0.2240142  -1.7088238  -0.4555477  -0.0029530   0.2728948  -0.0263429
   1.0948430   0.1588216   0.4163927   1.2562346   1.1265390  -0.0241905
  -0.2596555   0.0952141  -0.2024938   0.2085081  -0.2251036   0.2637272
   0.3220448  -0.3136185   0.4080180   0.0399353   0.1120992  -0.0233417
   0.1233292   0.5986244  -0.8321519   0.5712735   0.0417925   0.9032582
   0.1716854   0.5043926   0.1783081   0.1226239   0.1928025   0.3499771
  -0.2046481   0.8744325   0.6471962   0.1793574   0.1400285   0.2721737
  -0.0797945  -0.1417131  -1.7026528   0.2029460   0.4896630   0.5954510
   0.0903600  -0.0360917  -0.0624297  -1.0838161  -0.4525594   0.6640470
  -1.4310470  -0.7137535  -0.4316532  -0.0302729   0.1092991  -0.1164033
   0.0812372  -0.4363774   2.9918152  -0.1941381  -1.2185316  -0.5049076
   0.2461984  -0.0837169   0.0530113  -0.9541937   0.0201721   1.4991173
  -1.2335628   0.2942337   0.6836211  -0.2679791   0.1984883   0.1754246
  -1.1681369  -0.0956297  -0.2844124   0.0762771  -0.6996169   0.0740975
   0.0527954  -0.1687317   0.2360200   0.4373196  -1.3075614  -1.6749322
  -0.1625769   0.1780938   0.2919624  -0.0860240   0.1592573  -0.0980326
   0.4670424  -0.4350573   0.1490429  -1.2563111  -0.2680840  -0.2537060
  -0.0268823  -0.3021991   0.3448908  -0.7178367   1.2262653   0.1927566
  -0.6825501  -0.4191650  -0.2444107   0.0014849   0.0972242  -0.2567773
  -1.1500607  -0.2193194   0.4725062   0.2106018   0.4301602  -1.3993513
  -0.2884665   0.0091817   0.1260324   0.4812339   0.4614964   0.6493111
  -0.7581991  -0.0521020   0.4800318  -0.2381400   0.1855633   0.1828028
   0.4051643  -0.2543178  -1.1273959  -0.5408974   0.2772180   1.0476324
  -0.0093133   0.0011806   0.1507867   1.7483619   1.0016438   0.0209999
   1.2569593   1.0159689   0.0733081   0.2512317   0.1580314  -0.1045836
   0.5810846   0.0586628  -0.4331897  -0.3051053  -0.0243037  -0.2011905
  -0.1154467  -0.1551716  -0.0658244   0.2307284   0.1836211   0.5210189
  -0.3758349  -0.3517038   0.2951699   0.2163155   0.0834375  -0.0271659
   0.1889011   0.4338167  -0.9190919   0.7591764   0.2204850   0.2524747
  -0.0309166  -0.2333043  -0.1679623  -0.5938905   0.2753541   0.2919534
  -0.4364238  -0.3745620  -0.5027478  -0.1062788   0.4064096  -0.4318954
   0.2173088  -0.1355614  -0.2391076   0.5002765   0.1723807  -1.2636201
   0.1622831   0.0978599   0.0582727  -0.9431398  -1.9639528   1.0309960
   1.0932388   0.5734230  -1.2296285   0.1725702  -0.1820993   0.0131428
  -0.0367557  -0.5430033  -1.1225099   0.3841306   1.0437997   0.0556005
  -0.0990573  -0.0823490   0.2487969   0.3399034  -0.6152964   0.2749486
   0.9760312   0.5905980   0.1268898   0.2939520   0.1129450   0.2281294
   2.1735726  -0.7479549   1.2510001  -0.7160993   0.4867920  -0.5682925
  78.8098171  78.8098171  78.8098171 109.4712190 109.4712190 109.4712190
