default_name                                                                    
43428  0.5000000E+01
  48.7311805  42.3977106  74.0258262  49.2996155  41.5310328  74.2752931
  48.1942191  42.5450641  74.8929931  49.3207002  43.1785807  73.8281935
  47.8795067  41.8887150  72.8591708  48.4888007  41.3168608  72.1073694
  46.7415480  40.9878337  73.4363879  45.9972144  41.6576765  73.8769162
  46.1486563  40.6862481  72.5864286  47.1084682  39.7577548  74.2375915
  46.1705240  39.2195706  74.9239667  48.2883459  39.3569893  74.1095534
  47.5064892  43.1035707  72.0207775  46.3303369  43.2215575  71.6738308
  48.4132629  44.0010024  71.6849701  49.3433394  43.9073253  72.0679471
  48.0362135  45.3689663  71.2581324  47.4150177  45.7957325  72.0641707
  49.3567422  46.2137518  71.1213436  49.9526500  46.0228962  71.9733939
  49.9343171  45.9148628  70.2846133  49.0767595  47.6924015  71.1211647
  48.3298106  48.1319635  72.0362320  49.5570165  48.4117124  70.2215900
  47.3773792  45.3816395  69.8858815  46.4596548  46.1463411  69.6510665
  47.7356469  44.3448679  69.0279656  48.5283865  43.8249266  69.3306750
  47.2666062  44.3048473  67.6076738  47.2319742  45.3563690  67.2994522
  48.2553776  43.4448058  66.7860552  48.0487114  43.7451849  65.7652411
  49.7006092  43.8415345  66.9049521  50.2531173  43.3746245  67.7580454
  50.2376526  43.3873581  66.0522708  49.9006555  44.9296517  66.8707481
  48.0667101  41.9592069  67.0452926  48.0463718  41.8440078  68.1209551
  47.0175548  41.7615920  66.6353842  48.9805759  40.9168656  66.3566587
  48.4499365  39.9149582  66.1790758  49.2896889  41.2454565  65.3494325
  49.8551147  40.7594353  66.9825337  45.7778098  43.8157059  67.5914815
  45.0008023  44.0612823  66.6611528  45.3286393  43.0931631  68.6345869
  46.0014366  42.7957760  69.2968370  43.8968958  42.7199869  68.7689811
  43.5701486  42.2787838  67.8471398  43.7985939  41.6533015  69.8649393
  44.1216734  41.9102759  70.9254191  42.7438522  41.3549136  70.0053009
  44.4967036  40.4054710  69.4713257  43.7806450  39.3444856  68.8981459
  42.7288199  39.4042578  68.6655992  44.4426881  38.1666358  68.5239670
  43.9055384  37.3535817  68.0351347  45.8375193  38.0200892  68.7273363
  46.3070950  37.0645499  68.4857797  46.5704309  39.1128116  69.2533182
  47.6432250  38.9365860  69.3862238  45.8822527  40.2373183  69.7476970
  46.5239128  40.9824556  70.2484935  42.8616935  43.8428133  69.1145889
  41.6666123  43.7627927  69.1089352  43.4134638  44.9912604  69.5090767
  44.3863248  45.1074037  69.3178015  42.6389817  46.1007642  70.0437381
  41.8385159  45.7593424  70.5865719  43.5095326  46.9787562  70.9672449
  44.4967207  47.3205226  70.4617461  42.9323467  47.8102891  71.3334121
  43.8848700  46.1644823  72.2283292  43.0335638  46.0379896  72.9468653
  44.2339821  45.1557554  72.0195477  45.0424538  46.8419059  73.0470655
  45.7956424  47.1705887  72.3506249  44.7373601  47.8087997  73.3874449
  45.5519473  46.0417492  74.1655159  44.8362564  45.5061931  74.6961137
  46.7731192  46.1026269  74.7301962  47.7661500  46.8515964  74.3513946
  47.5792654  47.2523465  73.4028032  48.4802530  47.1647858  75.0151777
  46.9912750  45.3419891  75.8428211  46.2554190  44.7174649  76.1649374
  47.9528806  45.2735028  76.1300639  42.0172213  46.9389328  68.9526545
  42.6862281  47.2777793  68.0083244  40.7094485  47.2215393  69.0111150
  40.1545726  47.0080130  69.9091832  40.1526899  48.1268951  67.9972341
  40.3484022  47.7101363  66.9761929  38.5836368  48.3308679  68.1261296
  38.4142690  49.0105795  69.0088773  38.1115684  48.7705794  67.2594837
  37.8971436  46.9496234  68.3120641  38.2309609  46.3153135  67.4994113
  38.2339480  46.5297832  69.2630237  36.3909057  46.9265103  68.2765031
  36.0261293  47.2115690  67.2266697  36.1077481  45.9018839  68.4325322
  35.6106313  47.7766243  69.2259275  36.0045920  47.7854879  70.2183511
  35.7326535  48.7944845  68.9422307  34.2004459  47.3640293  69.2715739
  33.5905054  48.0529147  69.7921383  33.8382018  47.3029170  68.3157081
  34.1033903  46.5010465  69.7929560  40.8219030  49.5027194  68.0486644
  41.3943557  49.9136877  69.0260268  40.7863021  50.2798964  66.9119654
  40.2644002  49.9760223  66.1758288  41.6409075  51.4257209  66.5919262
  41.4982462  51.8067422  65.5678284  41.2194004  52.6983499  67.4803819
  40.1216803  52.7513157  67.5640540  41.5553822  52.4270155  68.4864663
  41.7770594  54.0698468  67.0983258  42.8700988  54.1008305  67.2776280
  41.6060414  54.2095038  65.9858142  41.0768542  55.0863102  67.9229339
  40.5964843  54.7042985  68.8757217  41.7416841  55.8141975  68.3242209
  40.0398021  55.8390425  67.0942302  40.0396184  55.7458328  66.1044588
  39.0365116  56.5421461  67.5878798  38.2367317  57.1753803  66.8305226
  38.3943865  57.0625226  65.8702720  37.4877207  57.7289297  67.2169699
  38.9159736  56.8101529  68.8742337  39.7033437  56.8954013  69.5039020
  38.0346578  57.0976466  69.2537977  43.1315437  51.1226053  66.5398266
  43.9417977  51.9194169  67.0125116  43.4929462  50.0092600  65.9350127
  42.7227820  49.4938629  65.4709776  44.8086256  49.5114403  65.5778642
  45.4957124  50.3064902  65.6511064  45.2636010  48.4654518  66.6477417
  44.8535192  48.6548694  67.6981560  44.8463491  47.5123164  66.3531077
  46.8047901  48.3641417  66.6667615  47.1732192  47.4007867  67.0194868
  47.1509980  48.4177700  65.6346054  47.4763251  49.5549470  67.5094943
  48.5841799  49.5880177  67.3132668  47.0630845  50.4988618  67.0800421
  47.1841062  49.3509207  68.9541265  47.9417131  48.8765831  69.4277468
  46.1986419  49.8978473  69.6195658  45.2380349  50.5900198  69.0411092
  45.1910231  50.7194276  68.0382904  44.4728799  50.8253804  69.6259290
  46.1664218  49.7973739  70.9116943  47.0119164  49.4052792  71.2620339
  45.3580557  50.0377272  71.5150785  44.8523624  48.9386709  64.1835493
  44.2945008  47.8718222  63.9186870  45.6058831  49.6308242  63.3360054
  46.1287776  50.4996379  63.5689601  45.9251487  49.0438008  62.0680917
  45.2947391  48.2170154  61.8379329  45.7396482  50.0568007  60.9018629
  44.8559763  50.6695959  61.2284656  46.5840862  50.6725768  60.7838256
  45.2994320  49.4212083  59.5618959  44.5526956  48.6552525  59.7361911
  44.7449751  50.4722156  58.5481091  43.8150766  50.8805567  59.0460452
  45.4365510  51.2546001  58.4509730  44.6375672  50.0064916  57.5529993
  46.4357815  48.7043295  58.8758240  46.1545077  47.8146053  58.3217939
  47.2464221  49.3002911  58.4111010  46.9539254  48.1105892  59.6245349
  47.3516894  48.4768607  62.1009067  48.3185508  49.2704948  62.1628237
  47.5511591  47.1696869  61.9691684  46.7103719  46.5266505  62.0525717
  48.7728148  46.4637603  61.7770430  49.5872387  47.1170563  62.1048303
  48.8982312  45.3040964  62.8014805  48.0599306  44.6246767  62.6196774
  50.2309792  44.5571647  62.6277259  51.0528839  45.3027658  62.6736123
  50.4200656  43.8084344  63.4296100  50.0365978  44.0413807  61.6016054
  48.8740514  45.9494942  64.0658183  47.9536386  46.1164957  64.2824787
  49.0180578  46.0627693  60.3259479  48.0776123  45.6570308  59.6516707
  50.2638203  46.1912299  59.7926270  50.9825268  46.4302620  60.4545119
  50.7819754  45.8221380  58.4246843  49.9322201  45.3766701  57.8663080
  51.2017643  47.1210434  57.6426379  51.9879103  47.5180359  58.2467399
  51.8105172  46.8832582  56.2670513  51.1690226  46.1891855  55.7964120
  51.6747682  47.8080547  55.6772437  52.8205434  46.4851328  56.3115903
  50.0161511  48.1907720  57.4720756  49.2823090  47.8733430  56.6727479
  49.4925180  48.1112745  58.3604089  50.4292871  49.6682627  57.3479505
  49.7164358  50.2708982  57.7613735  51.4253339  49.8435683  57.7013224
  50.3224392  49.8230454  56.2530663  51.9224022  44.8359381  58.5711089
  53.0831761  45.2370079  58.7300850  51.7008116  43.5160427  58.5518066
  50.6894023  43.2169712  58.3994640  52.6236412  42.3870465  58.5993106
  53.4042262  42.4862233  59.3953008  51.7430877  41.1773697  58.9985608
  50.9158130  41.0340686  58.2297233  52.4244387  40.2691937  58.9565837
  50.9858055  41.3880124  60.4092856  50.3397790  42.2410549  60.3906935
  50.3610582  40.4871449  60.6431258  52.2536399  41.4813243  61.7332744
  52.6772546  39.7331810  61.7786492  53.1121581  39.5064105  62.8548917
  51.8157142  38.9810510  61.7473488  53.3218809  39.4134325  60.9504936
  53.2420565  42.0991531  57.2349052  52.8343238  41.3003157  56.4078969
  54.3067042  42.8534399  57.0232024  54.5870424  43.5759766  57.6710765
  55.1333331  42.8200203  55.7933711  54.4729761  42.3460387  55.0974316
  55.4793585  44.2048949  55.2323606  55.9298082  44.0956842  54.3021227
  54.5466759  44.7453751  54.9418018  56.3483700  45.0317890  56.1743289
  56.2708813  44.9428135  57.4390479  57.1499892  45.8334522  55.7608010
  56.3925914  42.0064931  55.8407034  57.4759541  42.5026848  55.8409055
  56.1543831  40.6705719  55.8586283  55.1788673  40.2724910  55.8286248
  57.2510491  39.6840759  55.7245960  58.2330406  40.0806470  55.9429634
  56.9001135  38.5672402  56.7741356  56.0446234  37.9902429  56.4332834
  57.8015782  37.8914335  56.6840779  56.7895904  39.0145597  58.2698920
  57.5062307  39.7613160  58.4392375  55.4301785  39.5746059  58.7688164
  54.7010315  38.8098464  58.8666325  55.5341508  40.0057550  59.8560921
  55.2281528  40.4330669  58.1955082  57.0954264  37.8613424  59.2739160
  58.0225076  37.3273912  58.9788153  57.1885630  38.3618351  60.2648096
  56.2658901  37.1680423  59.2961486  57.3072446  39.0655652  54.3018651
  56.3125505  39.1283675  53.6027538  58.4932459  38.5554451  53.9268741
  59.3116095  38.4768726  54.4986709  58.8009579  38.1530501  52.5253644
  58.4598449  38.9640030  51.8771865  60.3295105  38.0160515  52.3867000
  60.6619204  37.8251735  51.3454599  60.8494069  38.9687423  52.6217555
  60.9866226  36.7943889  53.1130464  61.0192296  35.4675064  52.6272952
  61.6380390  34.8221700  53.6111020  61.8289623  33.7706503  53.4745227
  62.0550480  35.6098480  54.5720813  62.6296416  35.3241607  55.3303236
  61.6811049  36.8945717  54.2744180  61.8282584  37.7438943  54.9096989
  58.0466871  36.8151962  52.2134136  57.5203761  36.1028786  53.0574943
  57.9968127  36.4170410  50.8721617  58.6616136  36.9973137  49.7010974
  59.5530385  36.3976366  49.6675646  58.7614782  38.0566791  49.7116221
  57.7511169  36.6922545  48.5782707  58.3165090  36.5782645  47.5829714
  57.0454746  37.4887522  48.5764201  57.1368153  35.3579828  48.9581844
  57.7986588  34.5538092  48.6084933  56.1269397  35.0882371  48.4715607
  57.0451301  35.3384026  50.4976550  56.0057276  35.5626315  50.8268882
  57.5287466  34.0345535  51.1319701  58.6706986  33.7575517  51.1690798
  56.5946506  33.3181551  51.7536274  55.6866584  33.6894750  51.7174596
  56.8653053  32.0762483  52.5363673  55.9673334  31.4511554  52.5755084
  57.6036078  31.4697201  51.9504316  57.5295347  32.3428431  53.9274701
  58.0558918  31.4830742  54.6094188  57.4691248  33.5568178  54.4900176
  57.1566678  34.4008145  53.9813630  57.7940183  33.8054203  55.9000536
  58.7252290  33.3290427  56.2284048  57.9962451  35.2602209  56.1270048
  58.7162714  35.4402764  55.3866269  57.0910053  35.8124879  55.8735540
  58.3382755  35.5053652  57.0945029  56.7130056  33.2845796  56.8098933
  56.9366608  33.0920311  58.0425281  55.4645166  33.2715739  56.4010350
  55.1964893  33.5233579  55.4126121  54.4174866  32.6682276  57.1740929
  54.0313222  31.9116301  56.5260689  54.8996586  32.1778451  58.0180705
  53.1294939  33.4924295  57.4615199  52.4349151  32.9895320  58.3761527
  52.8093883  34.5449115  56.7101548  53.3085774  34.7425676  55.8279525
  51.5870634  35.3935024  56.9673711  51.5963067  35.8629555  57.9161956
  51.5104195  36.5338184  55.9333787  51.3542178  36.1856050  54.8846023
  50.6215613  37.1011223  56.0646992  52.8094680  37.4477465  55.9215178
  52.8690866  38.0420552  56.8531295  53.7178867  36.8771953  56.0504183
  53.0178314  38.4965668  54.8099169  52.2132963  39.2446983  54.7373043
  53.9397836  38.9991313  54.8599692  53.0778058  37.8041877  53.4000166
  52.2492072  37.1446112  53.2167769  52.9678528  38.5486564  52.6494009
  54.3466715  37.0784891  53.0964295  54.3745657  36.1662753  53.5247924
  54.2417682  36.8166695  52.0915062  55.1597210  37.6904459  53.1792067
  50.2998381  34.5902333  56.8929500  49.4729051  34.6392172  57.7709597
  50.2688149  33.6029334  55.9543750  51.0514542  33.4697478  55.3346790
  49.0102082  32.9174707  55.6426487  48.1618468  33.5422670  55.9917925
  48.9428982  32.5085206  54.1188287  49.9678836  31.9385706  53.9493760
  47.7141777  31.6353539  53.7963317  46.9615054  31.8071919  54.5031731
  47.3426051  31.9070557  52.7617103  47.8791177  30.6289894  53.8542294
  48.9096551  33.6862224  53.3549023  48.0025766  34.0555208  53.2000319
  48.9005966  31.5811562  56.5084560  47.7842701  31.2139856  56.8662638
  49.9582397  30.8031201  56.8014983  50.9043096  31.1021869  56.4410931
  49.9291927  29.5298287  57.5806541  48.9278210  29.1786516  57.6216491
  50.6339873  28.4860020  56.6768849  51.6333852  28.8826638  56.3459007
  50.7792581  27.5904804  57.3113906  49.8020019  28.1634666  55.4494568
  48.9799072  27.5351886  55.8081714  49.4260364  29.0954831  55.0806184
  50.5921591  27.3605135  54.4679176  51.4551008  27.8197056  54.0891170
  50.8537909  26.4388057  54.9727987  49.7242054  26.9972892  53.2831962
  48.6701750  27.0454296  53.5915649  49.8379311  27.7380366  52.4486832
  50.1276508  25.6748842  52.7450388  49.4505306  25.5164754  51.9586635
  51.0638676  25.6138490  52.4258885  49.9841170  25.0404000  53.4502649
  50.6090862  29.5244740  58.9655306  50.2805588  28.6691342  59.7861233
  51.4634036  30.4944655  59.3401497  51.6648139  31.1607249  58.6048091
  52.1330029  30.6442915  60.6880627  52.0005580  29.7390558  61.1654439
  53.6250138  30.8575699  60.5455315  54.0215652  30.2631623  59.7150859
  53.8061605  31.8528853  60.2209799  54.4928895  30.7128615  61.7578483
  54.0528616  31.3237588  62.6416344  54.3592509  29.7195035  62.1475223
  55.9589997  30.8100577  61.6964705  56.3898915  30.7283160  62.6901275
  56.2383735  29.8613865  61.1908642  56.4476062  32.0457536  61.0086957
  56.5261539  32.0204001  59.9849362  57.0074629  33.1170721  61.5802050
  57.5035631  34.0746420  60.7949038  57.7092765  33.7955710  59.8197686
  57.9994882  34.8828745  61.1461766  57.0450745  33.1605674  62.8789316
  56.7071858  32.4298731  63.4436764  57.4062746  33.9706687  63.4249522
  51.3391856  31.6620801  61.5223326  50.7078569  31.2821024  62.5510703
  51.3139565  32.9596727  61.0803501  51.8650749  33.1834225  60.2449186
  50.6729754  34.1117078  61.8260679  50.9037519  34.0682797  62.8612842
  51.1375591  35.5071717  61.3127181  51.2154121  35.4944509  60.1639160
  50.4163688  36.2670626  61.4731835  52.4992837  35.8179835  61.8049353
  52.8205127  36.2322637  63.1251034  52.0180889  36.4877784  63.7773020
  54.1513731  36.5223614  63.4988784  54.3770110  36.9917482  64.4293304
  55.1962306  36.3453172  62.5762061  56.4802849  36.4706898  62.9525167
  56.6372121  36.6030121  63.8986649  54.9203977  35.9714426  61.3180139
  55.7335380  35.7715306  60.6389187  53.5882854  35.6572399  60.9696744
  53.4091765  35.4099277  59.9513666  49.1086798  34.1326979  61.7989410
  48.4737593  34.3522109  62.8316751  48.4814397  33.9667350  60.6335268
  49.0866417  33.9235944  59.7709160  47.0202713  33.8976793  60.5122259
  46.6746798  34.8358387  60.8729022  46.7158931  33.6574078  59.0286467
  47.1276357  34.4786408  58.4129959  47.3172213  32.7475340  58.7347920
  45.2558744  33.3046125  58.7072988  44.8375548  32.5593096  59.3939569
  44.3737840  34.6115312  58.7157019  43.3488159  34.3035832  58.5230194
  44.3314372  35.0468660  59.6394005  44.7474097  35.3207816  57.9763745
  45.0999873  32.7689380  57.3368297  44.0889746  32.8660844  56.9577873
  45.7124791  33.3099546  56.6168731  45.2497197  31.6848307  57.3779116
  46.3276115  32.8987565  61.5153968  45.4960782  33.3366311  62.3481459
  46.7571762  31.6080815  61.5797140  47.7226334  30.9420845  60.7076220
  48.6133494  31.5365400  60.6358753  47.4374547  30.8239717  59.6573229
  47.9308186  29.5686875  61.3070534  48.8710697  29.4969351  61.8467818
  47.8575401  28.7183284  60.5859929  46.7053773  29.2624333  62.2360894
  46.9357102  28.6811761  63.1266646  45.9057744  28.7398614  61.6473518
  46.1556348  30.6616732  62.5518611  45.0712529  30.6992935  62.4718365
  46.4881196  30.9748125  64.0106270  45.6785876  30.6360591  64.8268040
  47.6220509  31.6411756  64.2746238  48.2494575  31.9081273  63.5470120
  47.8344288  32.1417835  65.6074682  47.5633759  31.2920866  66.3212472
  49.3225221  32.5065324  65.7097472  49.8948350  31.6088843  65.4127770
  49.5401176  33.3252980  64.9983225  49.4682471  32.7415778  66.7308694
  46.9538477  33.3262326  66.0458804  46.3914917  33.2558597  67.1830223
  46.8798775  34.4078549  65.2047955  47.1823346  34.3089222  64.2587976
  45.9553507  35.5774295  65.3346745  46.1172074  36.0794508  66.3073659
  46.2707795  36.5841132  64.2116714  46.2483594  35.9983386  63.2647602
  45.1714256  37.6397623  64.0525474  44.9900429  38.2391938  64.9222394
  45.3187566  38.2695545  63.1215249  44.1902552  37.1632088  63.7923505
  47.6611866  37.2801546  64.2207882  47.7350323  37.7471505  65.0982959
  48.4541716  36.5286677  64.1778891  47.9346147  38.3044238  63.0269396
  47.5265102  39.2836735  63.3122074  48.9541766  38.5023692  63.0107108
  47.6866404  37.8297048  62.0857092  44.5132489  35.0600900  65.4509628
  43.8377358  35.4590857  66.3903443  44.0466535  34.1734988  64.5668721
  44.6879968  33.9813948  63.7799703  42.6720053  33.5914822  64.4025086
  41.9774774  34.3973999  64.6632836  42.5018721  33.0501769  63.0338808
  43.2820441  32.3340013  62.8174687  41.1774286  32.3050436  62.8746129
  40.8360490  32.1608243  61.8486354  41.1868166  31.3352949  63.2755612
  40.4415291  32.9058302  63.3625717  42.4774616  34.1926431  62.0114001
  43.4108646  34.6821678  61.8992691  42.1031561  33.8861163  60.9993046
  41.7407762  34.8445108  62.5026901  42.3582841  32.5784185  65.5282069
  41.2727973  32.7239722  66.1268631  43.2677987  31.7721087  66.0098185
  44.1791619  31.7034409  65.5157517  43.1848149  30.9959848  67.2736670
  42.1364413  30.5692947  67.3160926  44.1939723  29.7907006  67.3247942
  45.2172254  30.0742075  67.1185660  44.3204052  29.5063430  68.3309200
  43.7598849  28.6162736  66.4532750  42.8027240  28.2329039  66.8302754
  43.5584468  29.0327299  65.4623258  44.7055709  27.4683320  66.4276107
  45.7258711  27.7347527  66.2773586  44.6974131  27.0657576  67.4644754
  44.2780387  26.4866991  65.4345893  44.7577347  26.5401912  64.5723929
  43.6582053  25.3451090  65.7647056  43.1664736  25.0869412  66.9444828
  42.9536182  25.8531762  67.5965082  42.8663026  24.1671724  67.1734762
  43.5129190  24.4433997  64.8417441  43.8691902  24.6409059  63.9227886
  42.9074329  23.6996626  65.1121691  43.1627453  31.7171543  68.6290678
  42.5663474  31.2256245  69.5999259  43.7949180  32.8631418  68.7140621
  44.3387391  33.2196685  67.9132125  43.6063711  33.6962777  69.8614974
  43.6199779  33.1457424  70.7565637  44.8299958  34.6568744  69.8887306
  45.7395510  34.0719825  69.9637427  44.8854793  35.1264852  68.9408224
  44.8762547  35.7846635  70.9255998  45.9025140  36.2667964  70.8963659
  44.1430807  36.5383642  70.5853362  44.6320262  35.3319721  72.2811109
  44.9630761  34.1696361  72.6741839  44.0842593  36.1428703  73.1167696
  42.2813672  34.5145808  69.7088694  41.5539344  34.6604198  70.7229549
  41.9564180  35.0313966  68.5180963  42.5531153  35.0007967  67.7156569
  40.7963822  35.8504718  68.2946982  40.6962296  36.6883736  68.9773770
  40.7583533  36.3699992  66.8741883  41.5431997  37.1619377  66.8607234
  41.0350526  35.6144429  66.1392675  39.8000656  36.8821720  66.5888676
  39.5393543  34.9973379  68.5210579  38.5427383  35.5023717  69.0577726
  39.6371773  33.6884146  68.1849346  40.3935551  33.3578280  67.5863747
  38.6007114  32.7311938  68.6577643  37.6419127  33.1612581  68.3505365
  38.7733885  31.3768054  67.9512248  39.8373502  31.1981844  67.8149880
  38.2238734  30.2273254  68.7631485  38.4229676  29.2863080  68.1014026
  38.8329877  30.1267175  69.7594984  37.0862521  30.2818680  68.8871585
  38.1623571  31.4379199  66.5140449  37.0807184  31.4560304  66.5157759
  38.4661595  32.3505069  66.1235469  38.7066558  30.3469958  65.4916160
  38.0352218  29.4204809  65.5101762  38.6931514  30.6515573  64.4545604
  39.7706214  30.1184138  65.7080609  38.4511014  32.6647538  70.1892658
  37.3507141  32.8245260  70.6906457  39.5522226  32.6343393  70.9498773
  40.5016772  32.6106124  70.4684854  39.4949769  32.3986529  72.4045907
  38.9145041  31.5322210  72.6230358  40.9307346  32.2526138  72.9423012
  41.6677213  32.9575416  72.4331967  40.9561818  32.6650927  73.9571419
  41.4742091  30.7719530  72.9729959  40.8097025  30.1600762  73.6442740
  41.5075749  30.4533983  71.9540984  42.8812196  30.7851379  73.4144954
  43.5245331  31.5421105  72.9080557  42.9228510  31.0512372  74.4707753
  43.5565635  29.4313123  73.2246717  44.5123702  29.3814462  73.6884730
  42.8535133  28.7852241  73.7764123  43.6420171  28.8548852  71.8539116
  44.4139356  29.4246957  71.3863070  43.8983720  27.9260436  72.0374372
  42.7684471  28.8537020  71.3846770  38.8336899  33.5291172  73.1398096
  38.0135530  33.2453612  73.9921723  39.1280277  34.6899437  72.6593291
  39.7725942  34.7801957  71.8354634  38.4875711  35.9081887  73.1997499
  38.4960173  35.8797298  74.2942517  39.2190390  37.1433585  72.7355277
  38.9953917  37.2595734  71.6904031  38.7485829  38.0641530  73.1895376
  40.7285051  37.1166089  72.9391151  40.9726698  37.3288177  73.9561883
  41.1387379  36.1310872  72.7206861  41.5419575  37.9962767  71.9760155
  42.4916932  37.4352795  72.0322636  41.0810028  38.0641042  70.9857539
  41.6899589  39.3495159  72.5553695  40.8226534  39.8849111  72.6694437
  42.5876513  39.6185177  73.4763591  43.7092719  38.9114268  73.6367380
  43.9275082  38.0482631  73.1690673  44.3432460  39.0968933  74.4187818
  42.4995523  40.6543988  74.2590775  41.7280190  41.3156775  74.1192135
  43.0402727  40.7561521  75.0729961  37.0526050  36.0987441  72.6681287
  36.3683422  36.9704878  73.1949653  36.6732920  35.3758260  71.6478818
  37.3293772  34.6860336  71.2568010  35.3166463  35.3754161  71.0486376
  35.0140815  34.4215589  70.6288724  34.5337185  35.6054566  71.7497855
  35.1107482  36.4703609  70.0471773  33.9530758  36.7933433  69.8672298
  36.0827503  37.1144232  69.4663742  37.0490509  36.8035868  69.5435688
  35.8648246  38.3178959  68.6707624  35.2626954  39.0451732  69.1563335
  37.1865972  39.0247702  68.3609403  37.7826584  38.3140712  67.8525179
  37.0091593  39.7344932  67.5333203  38.0314537  39.7163327  69.4802183
  38.0158062  38.9650685  70.3238868  39.4742226  39.9708389  69.0716823
  40.0959433  40.3696536  69.9360209  39.7197802  38.9068932  68.8683626
  39.5433365  40.4672364  68.1348887  37.4397224  41.0421397  69.8346379
  37.3678951  41.7370500  68.9494166  36.4016369  40.9079767  70.2207622
  38.0837092  41.4367848  70.6680024  35.1297925  37.9829641  67.3792908
  35.5702489  37.0578253  66.6777755  34.1259254  38.7859988  66.8951234
  33.9027659  39.6764627  67.3306912  33.4059604  38.5660096  65.6833134
  33.3667548  37.4852588  65.6233691  31.9662497  39.2235716  65.7282923
  31.4363496  38.9519346  66.6413564  32.1424846  40.2946820  65.7587646
  31.1201361  38.7342762  64.4978993  30.1418655  39.1816741  64.3530760
  31.7330024  38.8594408  63.5979054  30.7317697  37.2176698  64.6441324
  31.6345316  36.6433963  64.6433292  29.9925299  36.9955380  65.4567266
  29.9473089  36.7428644  63.4079969  29.0014430  36.8984240  63.5118262
  30.4323927  36.5112612  62.2505116  29.6336518  36.3610986  61.2230915
  28.5823260  36.1839398  61.2601809  30.1081384  36.0938388  60.3455893
  31.7044529  36.3499416  61.9761832  32.3765029  36.2096830  62.6755147
  31.9964013  36.2570303  60.9843594  34.4575805  38.9578794  64.5717770
  34.6846425  40.1580581  64.3287127  35.0091989  37.9774062  63.8195903
  34.7258968  36.9705035  64.0098711  36.2855769  37.9964915  62.9900651
  36.7059743  39.0102591  63.0886875  37.4097361  37.0458262  63.4769682
  36.9876459  36.0138832  63.5216316  38.7313281  36.9739713  62.7222827
  39.0711354  37.9075700  62.5030047  39.5157044  36.3038258  63.1892212
  38.6185298  36.5065951  61.8410040  37.6973106  37.6136830  64.7344317
  37.0584653  37.1911312  65.4130656  36.0867330  37.6597404  61.4924874
  35.2823773  36.8029338  61.1900111  36.7076781  38.4274080  60.6086088
  37.2037618  39.2676055  60.9957171  36.7256558  38.3027370  59.1518741
  36.2134814  37.3999083  58.8320829  35.9725774  39.5011822  58.6780921
  35.0600082  39.5548390  59.1401315  36.5339963  40.3741148  59.0217333
  35.6969426  39.5088069  57.1460628  36.6260194  39.5295074  56.5588378
  34.9552717  38.2358881  56.6561066  35.4397327  37.3483584  56.8735845
  34.0758112  38.0919235  57.2270836  34.7563900  38.3136895  55.6353152
  34.9757041  40.8584778  56.9018640  34.0789215  40.9954753  57.4959546
  35.6165772  41.7734292  57.0294706  34.6612314  40.6551397  55.8212207
  38.0658185  38.0704140  58.5394687  38.9688179  38.7320012  58.9926140
  38.2416264  37.1784096  57.5302502  37.4412882  36.5646895  57.3801896
  39.4477146  36.7394054  56.8006664  40.3257986  37.3377408  57.0506069
  39.9132651  35.2868941  57.1032284  39.3052942  34.5694331  56.5676412
  41.2757590  35.1639573  56.4931332  41.9545630  35.8649386  57.0177495
  41.5774471  34.0910888  56.4714026  41.1897636  35.4575508  55.4414219
  39.9550172  34.7984468  58.6024857  40.8678299  35.2274013  59.0377523
  39.1075105  35.2061281  59.1164951  39.8437490  33.2809078  58.7344358
  40.0414262  32.9065415  59.7293237  38.9717354  32.8562469  58.2670565
  40.7339055  32.9172911  58.1229520  39.1989688  37.0570639  55.2703269
  38.2012591  36.6826949  54.6806728  40.1316739  37.8195030  54.6951359
  40.7069200  38.1982550  55.4021094  40.0151943  38.3853884  53.3441592
  39.2577815  37.7370750  52.8664521  39.5509383  39.8386982  53.3504277
  40.3685787  40.3880813  53.7338231  39.3347796  40.1019527  52.2728251
  38.3060326  40.1598816  54.2288895  38.3655217  39.7121137  55.2316810
  38.2990848  41.6916386  54.4203879  38.2468438  42.1005915  53.4160567
  37.4247271  41.9706872  54.9375555  39.2313835  42.1339301  54.7768818
  37.0426896  39.5759849  53.6293910  36.1397788  40.0697446  54.0424986
  37.0379688  39.7133302  52.5284703  37.0469328  38.4894925  53.8183357
  41.1718655  38.1006685  52.2998862  42.3034618  38.4163779  52.6382702
  40.9236251  37.3350457  51.2308717  39.9596218  37.1088163  51.1165915
  41.9065121  36.8572517  50.2266691  42.8562521  37.1657396  50.6933387
  41.9651926  35.3761518  50.3503406  40.9303376  35.0301288  50.0259730
  42.7437209  34.9297836  49.6673623  42.0875546  35.0805955  51.3539433
  41.7005408  37.3589892  48.7880735  40.5449129  37.5280133  48.3372956
  42.7361826  37.4903163  48.0125124  44.1141785  37.2818949  48.3940591
  44.2715659  36.3215812  48.9285204  44.5162659  38.1113608  49.0395354
  44.7285819  37.2563271  46.9800217  44.6330675  36.2945020  46.5457723
  45.7744538  37.4854478  47.0301348  44.0127243  38.2697253  46.1672714
  44.0321267  38.1038197  45.0574160  44.3064369  39.2583096  46.5206992
  42.5825378  38.0033741  46.6738048  41.9033880  38.8916693  46.6751053
  41.7590013  36.9848008  45.8399942  40.8978976  37.3541867  44.9947920
  41.9780495  35.6984760  46.0105390  42.6548541  35.3305953  46.6932444
  41.5602694  34.6171016  45.1046575  40.7104815  34.9819090  44.5307750
  42.6674256  34.2263244  44.0845777  42.2517605  33.5124989  43.4281485
  43.2496723  35.3828504  43.3915201  42.3798355  35.8796051  43.0452695
  43.9296113  36.0063460  43.9694827  43.6787667  35.1136029  42.4303137
  43.7215850  33.6372190  44.7364030  44.3805087  33.4558597  44.0564261
  41.2014755  33.3745588  45.9667386  41.7138969  33.2181307  47.0796175
  40.5493248  32.3718530  45.4091465  40.0789141  32.5753211  44.5634846
  40.0544624  31.0468050  45.9106969  39.7048619  31.1405872  46.9758733
  38.8890586  30.4810872  44.9930946  39.3067534  30.4656718  44.0109067
  38.6351718  29.4779072  45.3434860  37.6163500  31.3095276  44.9153810
  36.9542239  31.1079696  45.7206755  37.8812164  32.3537893  44.9655491
  36.8202456  30.9395579  43.6278916  36.7080582  29.8412133  43.6786090
  35.8032299  31.3666888  43.6059450  37.5292879  31.2420848  42.3825819
  38.1767075  31.9933067  42.4019482  37.3020898  30.7174202  41.1718942
  36.4158578  29.7951619  40.9255124  35.8156380  29.4656141  41.6435932
  36.2142291  29.6715865  39.9449708  38.1021620  31.1651475  40.2138372
  38.7498986  31.9422486  40.3755711  38.0060581  30.7196940  39.3181411
  41.2232400  30.0558991  46.1655713  41.1084857  29.1950007  47.0251522
  42.2838945  30.2355028  45.3994948  42.1805682  31.0676965  44.8151535
  43.6369945  29.6480634  45.6511141  43.6320623  28.5483829  45.7481883
  44.5741692  29.9463949  44.4505875  44.5329294  31.0468130  44.2370810
  46.0785236  29.6705619  44.7262775  46.4884736  30.4767265  45.3573194
  46.3653353  28.8007241  45.3019437  46.6711901  29.6541555  43.7488468
  44.1089540  29.2239953  43.1764153  43.1024420  29.5813327  42.9104802
  44.6709452  29.5854005  42.2932350  44.2741816  28.1860940  43.2525322
  44.2147378  30.2004762  46.9982741  44.5918022  29.4090888  47.8498403
  44.2976618  31.5422406  47.1914926  44.1284946  32.2434218  46.5117053
  44.7077056  31.9277578  48.5622710  45.6753944  31.3629788  48.6971132
  45.0573900  33.4170533  48.5881412  44.2235809  33.9174525  48.2374635
  45.4548295  33.9101492  50.0207594  46.3228218  33.3454730  50.4442071
  45.7546449  34.9481650  49.9955430  44.6069106  33.8527262  50.6439750
  46.2203420  33.7741637  47.6516013  45.9213397  33.6505540  46.6173434
  46.4171302  34.7838809  47.7027132  47.1151455  33.2459971  47.8616243
  43.7190325  31.5992717  49.7133918  44.1768697  31.1821766  50.8004020
  42.4399264  31.6138122  49.4802157  42.1230922  32.0230362  48.6286304
  41.5160784  31.0135218  50.4282733  41.7306446  31.5060092  51.3443139
  40.0840603  31.2417252  49.9451603  40.0458042  30.7604332  48.9796340
  39.3872201  30.6955496  50.5732967  39.8212688  32.2957107  49.8388467
  41.7471511  29.5149118  50.6796915  41.8579415  29.1957031  51.8216182
  41.9664989  28.7129493  49.6549033  41.6176453  28.8826955  48.6812193
  42.3560749  27.3342784  49.9012401  41.5175517  26.8698719  50.4462838
  42.3810800  26.7028312  48.5279489  42.9646347  27.2737681  47.8534564
  42.7311951  25.5922199  48.5859808  41.3776709  26.6367967  48.1865328
  43.6382196  27.0810189  50.6672966  43.6852301  26.1140463  51.4361446
  44.6347723  27.9144599  50.5315579  44.6062711  28.6117484  49.8124855
  45.8400737  27.8586902  51.3912512  46.1263228  26.8012487  51.4562822
  47.0035679  28.6823024  50.8043011  46.7000854  29.7086859  50.6745340
  47.7653994  28.5208901  51.5424875  47.6095372  28.1912420  49.4043650
  46.8339128  28.3679256  48.5740187  48.4505682  28.8983354  49.1963649
  47.9849719  26.7234186  49.4080129  48.4779311  26.2705388  50.4559354
  47.8131232  25.9556281  48.4254844  45.6193595  28.2649250  52.9103068
  46.1339846  27.5416922  53.7828395  44.7838768  29.2695518  53.1302662
  44.2682549  29.6244970  52.3229258  44.1201032  29.4682880  54.3812766
  44.8615805  29.6242633  55.1153136  43.1632599  30.6950110  54.2480485
  42.4280285  30.7053949  53.3702912  42.5575368  30.8264123  55.2255452
  43.9788978  31.9583117  54.0087403  44.5696756  32.1567849  54.9035738
  44.6871071  31.8087579  53.1778194  43.0024520  33.4020094  53.7041158
  44.2794193  34.7028367  53.5545281  44.9055893  34.7867410  54.5031078
  44.8311859  34.3998782  52.6724114  43.8118231  35.5933811  53.2439571
  43.3388992  28.2934111  54.9908015  43.3912848  28.1109073  56.1416681
  42.7593745  27.3675042  54.2458474  42.4990835  27.5965354  53.2668925
  42.2067694  26.1779779  54.8932533  41.6777324  26.4020502  55.7770676
  41.0946108  25.6016636  53.9539650  40.3841605  26.3838919  53.7574051
  41.6241400  25.2731586  53.0269319  40.3413554  24.4987742  54.7107200
  40.2046092  24.8098406  55.7497232  39.2695345  24.4079277  54.2474587
  40.9648275  23.0801909  54.4748052  41.6169922  22.8637519  53.4462501
  40.6481119  22.2026197  55.3246679  43.2095532  25.1139308  55.2056282
  42.9437985  24.2975878  56.0387247  44.4107389  25.1178913  54.5411709
  44.4392149  25.8085511  53.8708794  45.5419058  24.3114852  54.8864487
  45.2120567  23.2430199  55.0869441  46.6607999  24.2803724  53.8658793
  47.0679202  25.2731735  53.6525361  47.4703829  23.6901480  54.2344429
  46.1470666  23.7333630  52.5002411  45.2122660  23.1967992  52.6110686
  45.9137170  24.5343790  51.8081084  47.2035167  22.8773595  51.8303608
  46.8556186  21.9523976  51.0929843  48.3960800  23.2382401  51.9876221
  46.0881319  24.8666846  56.2021555  46.6761730  24.0616164  56.9991991
  45.8709066  26.0984684  56.5117207  45.5306077  26.6561934  55.6988782
  46.3305558  26.8328499  57.7028063  47.2867460  26.4755030  57.9402645
  46.3575870  28.3126868  57.4606878  46.6197647  28.7059070  58.4095877
  47.0856397  28.6017826  56.6807805  45.4478435  28.6447066  57.1923318
  45.3882785  26.4762370  58.9155652  45.8494856  25.9895542  59.9595666
  44.0952224  26.7004630  58.6334549  43.8278957  26.9693346  57.6729881
  43.0366731  26.6876123  59.6693168  43.5231381  26.8562286  60.6363802
  42.1387299  27.8953814  59.3330413  41.5101274  27.6606081  58.4887807
  41.3975698  28.1123073  60.0818847  42.7028997  29.2875130  59.1014115
  43.5237857  29.3018155  58.4043112  41.6426748  30.2047117  58.4318523
  41.2446414  29.7097369  57.5482185  40.8174357  30.3561870  59.2198339
  42.0620259  31.1489513  58.2041012  43.1642330  29.8522348  60.4604497
  43.7071827  30.8024132  60.2630132  42.3235620  30.0273062  61.1240701
  43.8233398  29.1784455  60.8090877  42.2675984  25.3740866  59.7709562
  41.1377067  25.3606524  60.3367456  42.7990470  24.3162679  59.0807114
  43.6118349  24.5278108  58.4979700  42.1550196  22.9830109  58.9252869
  41.2781653  23.1125833  58.1986302  43.1455534  21.9454644  58.2922524
  43.6417466  22.3601233  57.4086350  43.8474326  21.5891116  59.0562127
  42.3650758  20.6938653  57.8267481  42.1935273  20.0104243  58.6814300
  41.4127741  21.0271691  57.3360679  43.1346650  19.8408691  56.8098827
  44.2071514  19.8902564  57.0604995  42.7348315  18.8539858  56.8068346
  43.0140468  20.3674553  55.4482298  42.3338006  21.0945523  55.2389961
  43.7539793  20.1000806  54.4353579  43.6962629  20.8782748  53.3983655
  43.0520509  21.5810863  53.3695600  44.3087742  20.8219550  52.5996393
  44.5651862  19.0846553  54.4276630  44.6017170  18.3560419  55.0947467
  45.0683900  18.9279095  53.4935704  41.4831895  22.5010573  60.2303680
  42.0465524  22.5083870  61.3102386  40.1865362  22.0699149  60.1244849
  39.7228924  22.1569333  59.2488226  39.4000398  21.5758924  61.2950538
  38.5112784  21.0523549  61.0030087  39.9986258  20.9879604  61.9253881
  38.7992030  22.5829560  62.2678837  38.0813912  22.1634476  63.1892843
  39.1046440  23.8389849  62.0179379  39.6514494  24.1352143  61.2366067
  38.5787279  24.9480982  62.8177327  38.4950744  24.5686670  63.9070530
  39.3224731  26.3305448  62.8391875  39.6982685  26.5782525  61.8267882
  38.6436386  27.1713368  63.0937065  40.5113356  26.5198563  63.8191201
  41.0843661  25.6589955  63.8637926  41.5544217  27.5934683  63.4368961
  40.9409512  28.5358243  63.3031652  42.3123847  27.7177603  64.1944205
  42.0616637  27.4718258  62.4749464  40.1404319  26.7239234  65.2554535
  41.0310124  26.7678174  65.8713477  39.4805655  27.5771372  65.3412254
  39.6596272  25.7764998  65.5345679  37.1101706  25.1003620  62.3744657
  36.7207712  24.7143190  61.2840773  36.2525197  25.6988263  63.2322613
  36.4978436  25.9403031  64.6394278  37.3483715  26.6210708  64.7150855
  36.8205251  25.1258613  65.2115874  35.2469310  26.6233907  65.2080228
  35.3621798  27.6624454  65.0474421  35.0912791  26.3783690  66.2507946
  34.1561964  26.0643075  64.2272935  33.2044679  26.6814199  64.2784224
  34.0311238  25.0553962  64.4989476  34.8584895  26.0834722  62.8911437
  34.4847843  25.3094493  62.2515502  34.7862808  27.4398995  62.1057086
  34.3202836  28.4942121  62.5772264  35.1463238  27.4277036  60.7782730
  35.3706805  26.5343625  60.3954410  35.2287195  28.5796316  59.8718874
  35.0472351  29.4818627  60.4345070  36.6620491  28.7395916  59.1678554
  36.7597283  27.8348348  58.5094245  36.7949296  29.9105448  58.2456038
  36.7583123  30.8371916  58.8343453  37.6968911  29.8778520  57.6413531
  35.9694754  29.9013519  57.5876887  37.8485048  28.6174634  60.0825205
  37.8173669  27.7084190  60.7391760  38.8432719  28.5146179  59.5642264
  37.9457263  29.8344562  61.0108055  38.7067334  29.7577763  61.8042310
  38.2445151  30.7091837  60.3889678  36.9604882  29.8785269  61.3345440
  34.1211020  28.5934794  58.7696538  34.0461584  27.5136268  58.1548480
  33.3836536  29.6781392  58.4668295  33.5065403  30.5408303  58.9302478
  32.5791424  29.7316921  57.3137895  32.1732606  28.7570591  57.0539630
  31.3369496  30.6852136  57.6850333  30.8701584  30.3204476  58.6214126
  31.7559835  31.6743091  57.8841242  30.3514878  30.5983864  56.5218206
  30.7160608  31.0668043  55.6006563  30.0631365  29.5757898  56.3842591
  29.2324285  31.4358249  57.0497857  28.7600203  30.9505682  57.8623086
  29.6946718  32.3145753  57.3717459  28.2174122  31.8287792  56.1086969
  28.4026931  31.5202918  55.1403404  27.0093460  32.2913771  56.4145709
  26.6551762  32.5288481  57.6168117  27.2511918  32.2002597  58.3724405
  25.6855101  32.7694612  57.8602641  26.1654608  32.4906371  55.4642577
  26.4658202  32.4456001  54.5155911  25.1620764  32.4308287  55.6011152
  33.2755253  30.1397581  56.0351312  33.7281354  31.2850075  55.8710468
  33.3634704  29.2616558  55.0440555  33.1124623  28.3263137  55.3090783
  33.9060807  29.5642290  53.7044832  34.6344466  30.3255196  53.7886720
  34.5404950  28.2795671  53.2149892  33.8509518  27.4729543  53.2844561
  34.7714194  28.3960015  52.1423042  35.7831909  27.9081934  53.8986775
  35.7546475  26.9964941  55.0450924  34.8381707  26.5335785  55.3756883
  36.9461037  26.7846702  55.7690151  36.9511438  26.1410933  56.5762190
  38.0881589  27.5187766  55.3976069  39.1973547  27.3997693  56.1478185
  39.0637497  26.7454743  56.8233799  38.1350877  28.3113569  54.1946068
  39.0735279  28.7726209  53.8539465  36.9451935  28.5258006  53.5302535
  36.9296811  29.1829892  52.6439565  32.8425083  30.1856731  52.7938446
  32.1305848  29.4169876  52.1066849  32.6563051  31.5097941  52.7977332
  33.2099948  31.9341549  53.4343354  31.7550676  32.2848512  51.9154709
  30.8301000  31.7400529  51.7860618  31.3918958  33.5939080  52.6472654
  32.3236110  34.1273641  52.7798979  30.8352376  34.2790712  52.0161757
  30.7260716  33.3637855  54.0036367  30.1071185  32.4663783  53.8815438
  31.5639048  33.2199176  54.7104350  29.8179720  34.4872498  54.4234287
  29.1215216  35.1286164  53.6323053  29.7021979  34.8790844  55.6802156
  29.1470262  35.6930459  55.8681469  30.2371105  34.4018575  56.3841261
  32.3488591  32.4534088  50.4928609  32.3561266  33.5518264  49.9219757
  33.0078763  31.3915678  49.9747009  32.9636936  30.5118522  50.3806650
  33.6442892  31.4690226  48.6861160  33.0258468  32.0914804  48.0394171
  35.0182635  32.1211750  48.9019495  34.9280602  33.1152484  49.3366203
  36.0357193  31.3314053  49.7734776  36.9580520  31.8546952  49.8755474
  35.5750647  31.1360945  50.7043770  36.1902130  30.3045142  49.3596720
  35.7208504  32.2327826  47.6597394  35.1954042  32.8932369  47.1335382
  33.7353967  30.0957155  48.0132425  33.5341174  29.1219888  48.7146811
  33.9588508  29.9476509  46.7335976  33.4893356  30.8490283  45.6843144
  34.3735608  31.3458240  45.4001316  32.6983518  31.4913711  46.0110257
  32.9460884  29.8977959  44.5563435  32.9554383  30.3802208  43.5508710
  31.9089871  29.5674924  44.7867809  33.8319349  28.7135282  44.6652084
  34.8520867  28.9661323  44.2224014  33.4331375  27.8697634  44.0686721
  33.9426412  28.5402836  46.1407080  33.1116650  28.0372343  46.5835095
  35.1552711  27.6259411  46.4838249  35.3388221  26.5247488  45.9611138
  36.0962509  28.1546525  47.2913622  35.8994665  29.0823925  47.7713608
  37.2787630  27.3764438  47.7145448  37.7792237  27.0657758  46.8515608
  38.2205329  28.3047528  48.4095314  38.4785435  29.0507924  47.7169706
  37.9196659  28.7540459  49.3886038  39.2357998  27.8555028  48.5477792
  37.0487168  26.2004388  48.6251818  37.8412115  25.2222015  48.5410272
  36.0048423  26.1842847  49.5166844  35.5414942  27.1040380  49.5885229
  35.7161196  25.0235455  50.3389503  36.1049034  24.1794821  49.7918336
  36.3467452  25.2355713  51.6920555  35.9100342  26.0710633  52.0850103
  35.9696090  24.1367652  52.7315427  36.3096413  23.1719268  52.3376349
  36.5472960  24.4751208  53.6317356  34.8990379  24.1834233  52.9283292
  37.8514144  25.4522216  51.7285525  38.0284483  26.3445452  51.1791437
  38.1197801  25.6841468  52.7335717  38.6596762  24.1729852  51.3523468
  38.3206279  23.7380216  50.4131307  39.7262291  24.3544145  51.2700716
  38.6156431  23.5746573  52.1615251  34.1907317  24.7641759  50.3471469
  33.4681858  25.7182388  50.6022412  33.7493766  23.5334498  49.9895365
  34.4264893  22.8284777  49.6801773  32.3683261  23.0651064  50.1299380
  31.8678255  23.7517153  50.7640334  31.7947159  22.9963720  48.7013731
  32.2261432  22.0352654  48.3783646  30.7045020  22.8280627  48.7692990
  31.9908904  24.1675780  47.7036392  33.0897652  24.3605114  47.5367440
  31.5801203  23.8510114  46.7356647  31.3921790  25.4787661  48.1127667
  30.5067179  25.2226888  48.6641867  32.0166254  26.0357777  48.7727988
  30.9490996  26.3385659  46.9998124  30.7422282  25.8017919  46.1388173
  30.5455417  27.6039465  47.1204262  30.0962694  28.1702880  46.0226775
  29.8662128  27.5997375  45.1907811  30.0710002  29.1553094  45.9736495
  30.7993825  28.3946379  48.1138713  31.2947014  28.0839990  48.9328710
  30.4307105  29.2942880  47.9663513  32.2684965  21.7198247  50.8737717
  33.1982647  20.9228845  50.8868294  31.1069557  21.2959523  51.3400889
  31.0621346  20.3589117  51.7974920  29.8964592  22.0859188  51.6240892
  29.7477462  22.8474114  50.8515962  28.7145375  21.1015574  51.4571218
  28.9609842  20.2261645  52.0742086  27.7542792  21.4797507  51.8222737
  28.6721496  20.8595465  50.3453926  29.8492532  22.6778924  53.0311002
  30.3701048  22.1139598  53.9989894  29.2500701  23.8521674  53.1289734
  29.0123074  24.2283370  52.2939979  29.0314807  24.7454846  54.2671843
  29.2340743  24.1745320  55.1963021  29.8176036  26.0504254  54.2573887
  29.4498797  26.5622318  53.4112933  29.6422285  26.6335532  55.1378857
  31.3607654  25.9833759  54.2860645  31.6415422  25.1450328  53.6645631
  31.7596048  26.9638592  53.8852792  31.9335444  25.6949930  55.6461204
  31.4662103  26.2815378  56.6739948  32.8520863  24.8700576  55.7879301
  27.5294443  24.9962362  54.3148443  26.8018201  24.5256757  53.4272270
  26.9114731  25.8498489  55.2368734  25.9284455  26.0315276  55.1616519
  27.4139620  26.4876280  56.5080012  28.3220416  26.0095139  56.7958319
  27.5519725  28.0236671  56.3039811  27.7301053  28.4496703  57.3363336
  28.4600757  28.2596000  55.6440749  26.2760772  28.6518449  55.8592669
  25.1526694  29.0858670  56.5709118  24.2878565  29.5606330  55.7158796
  23.3760046  29.9557800  56.0409710  24.7683353  29.4658810  54.4390908
  24.3040825  29.8112792  53.6118950  26.0663494  28.9588577  54.5146661
  26.8016779  28.7433775  53.7200483  26.3721589  26.1047326  57.5582735
  25.2221515  25.8494727  57.1771095  26.7321810  26.2615897  58.8171782
  27.7213494  26.4519294  59.0438357  25.6678041  26.3207912  59.9592579
  24.9470278  25.5487053  59.7802964  26.3061955  25.8188994  61.2513721
  25.5270213  25.7787029  61.9960879  26.7041843  24.3230978  61.1825465
  27.0724390  24.0703936  62.1410036  25.7661515  23.8226672  60.9045668
  27.4348146  24.2157587  60.4362068  27.4045496  26.6729749  61.6777380
  27.9066754  26.8041465  60.8458723  24.9726135  27.6415896  60.1308913
  24.0005902  27.7693930  60.8773933  25.6058929  28.7189281  59.6964709
  26.4564795  28.6438764  59.2719024  25.1978847  30.0937132  59.6913461
  25.6481484  30.5919725  58.8167193  24.1153328  30.2764479  59.5444867
  25.6550515  30.9270469  60.9238401  25.6869150  32.1472738  60.8648645
  25.9568731  30.2411453  62.0167952  25.9831930  29.1938209  61.8762397
  26.2477883  30.7024013  63.4372609  25.8291425  31.7378023  63.6288895
  25.5902512  29.8354916  64.4810740  25.9229486  28.7962108  64.3287744
  25.8650599  30.1725731  65.4981085  24.0432225  29.9807078  64.2854445
  23.7684167  31.0259627  64.1085808  23.7675840  29.3726179  63.4976906
  23.2867680  29.5693346  65.5814716  23.4922775  30.3854149  66.3006097
  22.2330526  29.5080350  65.3361766  23.6012282  28.2873010  66.0825098
  24.3587287  27.7305763  65.6730747  23.0010352  27.7230081  67.1322203
  21.9160837  28.2024405  67.6875242  21.5147302  29.0225877  67.3066560
  21.5073065  27.7202227  68.4568605  23.4714602  26.6701870  67.7347019
  24.2986304  26.2196561  67.4273482  23.0802171  26.2954133  68.5905054
  27.7911488  30.8851553  63.6994821  28.1893228  31.3304617  64.7727608
  28.6359640  30.5090477  62.6944409  28.2370156  30.3770144  61.7917970
  30.1521344  30.7163466  62.8418765  30.4785576  30.0965011  63.6926935
  30.8746038  30.2770735  61.4942119  30.5235718  30.9870043  60.7817070
  31.9781724  30.4426267  61.6251089  30.4442314  28.8733863  61.0019315
  31.3305225  28.3288211  60.6463867  30.1804247  28.3350013  61.8400927
  29.2501724  28.7332960  60.1258508  28.4642273  29.7194252  59.9817949
  29.0000303  27.6291833  59.5389868  30.5789722  32.1912440  63.2152129
  30.1689598  33.1249827  62.4817905  31.4397637  32.3460055  64.1717810
  31.7767975  31.5589960  64.6679122  31.9680263  33.6685321  64.6257328
  31.1323321  34.3417915  64.4527351  32.1362652  33.6167956  66.1925721
  32.2966750  34.6611870  66.4714578  30.7783689  33.1438538  66.7741792
  30.6214464  32.0364515  66.7722254  30.7897993  33.4139270  67.7899811
  29.8882099  33.6996433  66.3493344  33.2664723  32.7141565  66.5333433
  32.8972529  31.7356376  66.4013155  34.1295465  32.8254088  65.8155839
  33.7828402  32.8806087  67.9375405  34.5811853  32.1178353  67.9978201
  34.3370602  33.8568263  68.0647683  32.9501884  32.7525793  68.7309919
  33.1932087  34.1870413  63.8594110  33.4961802  35.3494645  64.0583667
  33.8321776  33.3125987  63.0549664  33.3364145  32.4059170  62.9620109
  34.7972084  33.6225810  62.0320459  34.9482678  34.6967257  62.0298534
  36.1200729  32.9485366  62.4835192  36.0957923  31.8887643  62.2691531
  37.2235690  33.6236103  61.5988257  37.2345157  34.6266890  61.9581161
  38.1694303  33.1499597  61.6500381  36.9839159  33.4846475  60.5585911
  36.4936183  33.2035772  63.9191800  35.9826040  32.4140078  64.5180146
  37.5865064  33.1161312  63.8937184  36.1551322  34.1514789  64.3283238
  34.4572083  33.1383513  60.6297242  34.0999942  32.0096889  60.3117896
  34.4118224  34.1610675  59.7140092  34.6266437  35.0635676  60.1396301
  34.1264829  34.0911150  58.3117450  33.6311800  33.1301483  58.1275388
  33.2846235  35.2952010  57.8677071  33.6996252  36.2504504  58.2360958
  33.2944609  35.2012243  56.7363471  31.9019662  35.1471737  58.4204083
  31.1262556  34.2786515  57.9451690  31.5526106  35.9858438  59.2975320
  35.4315696  34.2825678  57.4717216  36.4606801  34.8147611  57.9491275
  35.3159209  33.7253540  56.2516753  34.5449875  33.0929350  56.0405457
  36.3602847  33.7312596  55.2330732  37.0806401  34.6272233  55.3868481
  37.1312466  32.4217780  55.2763534  37.5630061  32.3416309  56.2639393
  36.5136891  31.5508841  55.0598813  38.3797572  32.4677253  54.3724324
  38.6537169  33.4776133  54.0573321  39.5831588  31.7947989  55.0933769
  40.4123824  31.6859138  54.3585108  39.8526654  32.3652715  55.9761480
  39.1846580  30.8414664  55.4875651  38.1363618  31.7303539  53.0614465
  38.5144024  30.7011849  53.1781774  37.1022639  31.8138143  52.6709837
  38.8127953  32.1029394  52.2439544  35.6437933  33.9692357  53.8631622
  34.7550343  33.1919122  53.3952351  36.1904711  34.9400504  53.1252379
  36.9152022  35.4687733  53.6139879  35.8013825  35.2539894  51.7708470
  35.6244324  34.3397121  51.2673165  34.4447605  36.0580513  51.8017863
  33.9391875  36.1702055  50.8331439  33.8512585  35.4066494  52.4063557
  34.4743981  37.3958476  52.6004665  35.1436349  37.2003799  53.4261947
  34.9123290  38.1433049  51.9233709  32.9057308  38.1039395  53.1085261
  32.3166389  36.8959254  54.3740308  31.2563131  37.2252467  54.6568937
  32.3595011  35.8832510  54.0077054  32.9241933  37.1273788  55.2066099
  36.8752532  35.9971876  50.9976234  37.8407746  36.5304813  51.5633597
  36.7219983  36.1038638  49.6965018  35.8906749  35.7377087  49.1638678
  37.6281524  36.9155478  48.8586047  38.6753933  36.7261396  49.2127211
  37.5168409  36.4143407  47.4488260  36.4672942  36.4589833  47.1254836
  38.1390222  37.0911637  46.7993124  38.1005845  34.5875831  47.3980360
  37.0320242  33.9280723  47.8326466  37.4337128  38.4004029  49.1080001
  36.4247057  38.8821399  49.5543958  38.4232703  39.2214782  48.8215059
  39.3529795  38.8773233  48.5653800  38.4879672  40.6695986  49.0436293
  38.5186009  40.9488071  50.0978586  39.6512443  41.3634620  48.3428579
  39.5237161  41.1944152  47.2603060  39.4403199  42.3886082  48.5595423
  41.0379453  41.2123017  48.8075203  42.1811307  41.3482214  48.0101835
  43.2243508  41.0242163  48.8361222  44.3122454  41.2108437  48.5731329
  42.8418220  40.7539785  50.0889165  43.4790795  40.6090165  50.9164334
  41.4750127  40.8813802  50.0797683  40.8436502  40.6925165  50.9439633
  37.1402469  41.2741594  48.5303451  36.5708628  42.0893615  49.2435972
  36.8019080  41.0779668  47.2590795  37.4161022  40.4012924  46.7402398
  35.7470832  41.7715726  46.5875201  35.8366866  42.8261675  46.7893559
  35.8322345  41.2836737  45.1044102  34.8574236  41.6123765  44.6850696
  36.6590606  41.6728394  44.4200835  35.9467164  40.2274602  44.9669083
  34.3638475  41.3698352  47.1682648  33.4355312  42.2327291  47.1507557
  34.1772903  40.1585050  47.6486178  34.9343916  39.4722216  47.5927169
  32.8844667  39.7459046  48.2563384  32.1783565  39.9699343  47.4717434
  32.9043077  38.3072816  48.6586949  33.6475051  38.1096685  49.5172335
  31.6788118  37.5887920  49.1624506  31.9975131  36.5429239  49.1879091
  31.4137330  38.0117330  50.1132009  30.8345410  37.7759941  48.4952680
  33.3853451  37.6160211  47.5704623  33.9921522  36.9090280  47.9431162
  32.5115355  40.5508216  49.4986203  31.3655774  40.7346981  49.8093120
  33.5313085  41.1397643  50.0817056  34.4690508  41.0309458  49.7210764
  33.3252713  42.1219850  51.1380612  32.5986177  41.7008960  51.7699183
  34.6236857  42.2546027  52.0462314  35.1548108  41.2993137  52.2014678
  35.3292384  42.7046764  51.4069765  34.3986253  43.0069011  53.3061323
  33.3557228  42.5807410  54.1964243  32.6979489  41.7849370  53.9344412
  33.1957948  43.2648833  55.4705654  32.3424414  43.0444908  56.0987286
  34.0318293  44.3536533  55.8028674  33.7585565  44.9031517  56.6553414
  35.0663425  44.7335589  54.9074850  35.6389543  45.5624401  55.0806329
  35.2434577  44.1004589  53.6778011  36.0986736  44.4161972  53.1075971
  32.8847043  43.5077558  50.6897081  31.9053395  43.9955420  51.1512820
  33.5449279  44.1223562  49.7854511  34.3541278  43.5818382  49.5187637
  33.0245191  45.3486192  49.0690719  32.8479971  46.0922011  49.8386337
  33.9963749  45.8372457  48.0191829  34.2008149  45.1203382  47.2506888
  33.6143918  47.0782136  47.2620640  33.3133199  47.8994092  47.9467623
  34.3788846  47.4220071  46.6023472  32.8062099  46.7895844  46.5236146
  35.1978177  46.1236228  48.7610732  35.8324553  46.1911336  47.9939792
  31.6147669  45.0379602  48.4675629  30.6999047  45.8485760  48.5522505
  31.3736283  43.8531556  47.9037593  32.1509815  43.2428901  47.7473872
  30.0182151  43.5299474  47.4189521  29.6778835  44.2775296  46.6665687
  30.0506005  42.1571871  46.6138600  30.7252523  42.2478021  45.7621417
  30.4754865  41.3177835  47.1962769  28.6845991  41.7797103  46.1487171
  28.1820228  41.3341242  47.0304644  28.1380491  42.6683654  45.7723627
  28.8014833  40.4260561  44.9542285  29.7498882  39.1648149  45.7992557
  29.3485638  39.1354468  46.8185969  29.5956181  38.1551271  45.3276001
  30.8292717  39.3570661  45.9215972  28.9286076  43.4361053  48.5386077
  27.7934784  43.8345898  48.3847225  29.2857005  42.8825237  49.7140130
  30.2298417  42.4749347  49.8283730  28.3946523  42.9074047  50.8684644
  27.5099378  42.4158744  50.5857348  28.9919484  42.1941670  52.0946506
  30.0747622  42.4517749  52.1080686  28.6717889  42.7293441  53.0183620
  28.8685733  40.6751058  52.0386714  29.0456784  40.2956315  51.0246264
  29.6780784  40.2385091  52.6547738  27.4969457  40.2435980  52.5199141
  27.2325629  40.6874165  53.4844814  26.7158830  40.6084378  51.8461412
  27.3825259  38.7524179  52.6926868  27.8518728  38.1745654  52.0319496
  26.8485354  38.1192162  53.7223705  25.9897424  38.6758180  54.5148402
  25.6162394  39.5812815  54.3673178  25.6721154  38.0564921  55.2408332
  27.1609841  36.9004989  54.0037127  27.9433391  36.5027600  53.5455916
  26.9112665  36.4913287  54.8215497  28.1491555  44.3659121  51.2972700
  27.1211557  44.6455131  51.8161030  29.1606885  45.2292646  51.2053298
  30.0672917  44.8747573  50.8360611  29.1136752  46.6479271  51.5728669
  28.5797320  46.6721516  52.5358387  30.4869223  47.1745823  51.7068352
  31.0200537  47.0091145  50.7370050  30.5495408  48.3214526  51.7472147
  31.2444224  46.5438649  52.8996464  31.1907824  45.4782933  52.8022577
  32.7508332  46.8354525  52.8001557  32.9185794  47.8806293  53.0620354
  33.3179465  46.3028434  53.6043783  33.1784822  46.5229948  51.8625080
  30.8107302  47.1266665  54.2510693  29.7380295  47.0410977  54.4070598
  31.2953137  46.5922048  55.0042888  31.1955650  48.1273254  54.3385907
  28.1247570  47.4268761  50.6661295  27.3689222  48.2518138  51.1330009
  28.1711959  47.0615340  49.3997512  28.8231603  46.3255937  49.1768044
  27.3763871  47.6100463  48.2757010  27.3111713  48.6845465  48.3022648
  28.0797739  47.2588648  46.9756723  28.5800627  46.2701349  47.0581059
  27.3546363  47.3276985  46.0865633  29.2511196  48.2473876  46.7202300
  29.6804549  48.6785905  47.7142473  30.3074943  47.7296948  45.7243214
  29.8262428  47.5967178  44.7766266  31.1134086  48.4344421  45.5834934
  30.6063537  46.7442525  46.0621374  28.7439878  49.4955184  45.9749473
  29.4368738  50.3498088  46.0492523  28.5266658  49.3014041  44.9398153
  27.8349004  49.8602871  46.4402808  25.8988266  47.1414510  48.2326020
  24.9385758  47.9094468  48.0112402  25.6894568  45.8438070  48.3416852
  26.3905230  45.1689408  48.5556253  24.3580883  45.2955602  47.9585424
  23.9329151  45.9098993  47.1859843  24.6140541  43.8966123  47.4992404
  25.1926291  43.9744108  46.5478140  25.1850256  43.4641580  48.2463833
  23.4045867  43.1968910  47.2855524  23.4443302  42.2968839  47.6639307
  23.4122255  45.4459197  49.1293659  23.8525203  45.6924207  50.2473056
  22.1045365  45.2713847  48.9570986  21.3840716  45.4114483  47.6966268
  21.8322336  44.8486194  46.8290679  21.3444392  46.4536037  47.4237189
  19.9484170  44.9670300  48.0518971  19.8462316  43.8973592  47.9634268
  19.2082419  45.4445435  47.4368885  19.8255038  45.4196801  49.5576544
  19.1051108  44.7272957  50.0019868  19.3726718  46.4670044  49.5637393
  21.1816082  45.3355411  50.1324525  21.3653664  46.3108945  50.5384309
  21.4257800  44.2299365  51.1760919  20.9685357  44.2936169  52.3274122
  22.0784180  43.1182791  50.8083385  22.4418438  43.0631885  49.8779316
  22.4521730  41.9899385  51.6743356  21.6169728  41.7726474  52.3826204
  22.8576040  40.7954534  50.7763417  23.6711783  41.0685853  50.1432998
  23.2581232  39.5609605  51.5062894  23.0948493  38.7632310  50.8055580
  24.3073992  39.6689366  51.8210767  22.5749576  39.4522790  52.3544554
  21.5433423  40.4003284  49.9585657  21.8036880  39.6165556  49.2684116
  20.7542889  40.0280740  50.6920447  21.1905011  41.2628197  49.4280813
  23.6124629  42.4449336  52.5879536  24.7809371  42.3871872  52.2648800
  23.2264992  42.6896866  53.8472474  22.2497746  42.6400268  53.9951593
  24.0643083  43.2635551  54.8550728  24.6450211  43.9879578  54.3277592
  23.2034818  43.8973475  56.0121014  22.4714383  43.1734801  56.1627669
  23.5183921  44.0726098  57.0230474  22.5402722  45.1942933  55.4686058
  23.2220450  45.9997901  55.4683658  22.3203506  45.0272497  54.4447536
  21.2280620  45.5847760  56.1340623  21.4227260  45.7748819  57.1990428
  20.8687841  46.5785758  55.7581378  20.1131902  44.6439241  56.0446783
  20.2874393  43.7962856  55.5445985  18.8205982  44.8104693  56.3290796
  17.9648147  43.9860937  55.7994163  18.1238774  43.3003487  55.0635609
  17.0564944  44.1825611  56.0849422  18.3165335  45.8243859  57.0376425
  18.9387267  46.4909063  57.5234153  17.3214163  45.8770295  57.1496389
  25.1614656  42.3770929  55.4522860  25.1292380  41.1331384  55.3313936
  26.0570369  42.9637997  56.3064124  25.9438118  43.9396930  56.4592655
  27.1080828  42.2288649  57.1157197  27.0839087  41.1260885  57.0213311
  28.5624228  42.6248473  56.6949988  29.2240308  42.4711596  57.5965940
  29.0712996  41.6178276  55.6876997  28.3800447  41.7677276  54.8514344
  29.9684770  42.0646469  55.2855129  29.1568224  40.5494791  56.0743706
  28.7924897  44.0271469  56.2423811  28.3256534  44.7264921  56.8979962
  29.7816485  44.3578644  56.1309982  28.4561794  44.0348521  55.2306431
  26.9578106  42.5015584  58.6600028  26.6541030  43.6138140  59.1220531
  27.2764003  41.5149429  59.5064109  27.6627186  40.1255453  59.2738665
  28.4308740  40.0339680  58.5431781  26.9075973  39.5335261  58.9202287
  28.1256217  39.5344241  60.6355497  29.2681913  39.6391273  60.7164975
  27.8186356  38.4922733  60.7148809  27.4179225  40.4633905  61.6683886
  27.9674016  40.4487532  62.6388813  26.3894614  40.0224227  61.8176136
  27.2790788  41.8051715  60.9952844  26.3659099  42.2729104  61.3188292
  28.3849503  42.8304754  61.5382572  29.3054957  43.3309463  60.8159760
  28.2680008  43.0886050  62.8859209  27.5167031  42.5431574  63.3115782
  29.2278480  43.9613555  63.6284794  29.4870260  44.9572566  63.1834120
  28.6201444  44.3076687  65.0080112  27.6286850  44.7168621  65.0064416
  28.5390487  43.4481794  65.6071345  29.5055194  45.2614820  65.7629990
  30.2236700  46.1439123  65.2716718  29.4129041  45.2666611  67.0745360
  29.8056558  46.0018882  67.6899065  28.7434360  44.7441692  67.5395307
  30.5622183  43.2052525  63.8572576  30.8691246  42.7705035  64.9793067
  31.3934112  43.0440793  62.7887788  31.0522378  43.2347552  61.8524442
  32.7506093  42.5649149  62.8915523  32.7856954  41.5850343  63.3267068
  33.4701839  42.4669983  61.5239194  33.4512308  43.4763144  61.0858236
  34.4747712  42.2320154  61.6163481  32.8598926  41.4035911  60.6674618
  31.9443119  41.6894752  59.5697499  31.6539905  42.7083088  59.4089120
  31.4219658  40.6952778  58.7365584  30.8528587  40.8929591  57.8012600
  31.7048702  39.3062688  59.0032986  31.2213961  38.3590751  58.1375331
  31.4215692  37.4676560  58.4067221  32.5901613  39.0086747  60.0335184
  32.8979385  37.9533285  60.2526229  33.0901049  40.0586526  60.8971889
  33.9435332  39.8396029  61.6223150  33.6553931  43.4557322  63.7980505
  33.6972399  44.6506327  63.5098262  34.2990920  42.8512679  64.8053888
  34.0001567  41.9016473  64.9342422  35.2455541  43.5499130  65.6778187
  34.8716515  44.6072840  65.6853928  35.1556685  42.7997154  67.0291347
  35.6626872  41.8722189  66.9459524  35.7428800  43.4053988  67.7776026
  33.7411062  42.5253102  67.5270412  33.4738177  41.4393641  67.8536448
  32.8518674  43.4146068  67.3479825  31.9266278  43.1295531  67.6815227
  33.1360956  44.3744437  67.1249940  36.7198179  43.5317127  65.1333598
  37.5688349  44.3948349  65.2719591  37.0822026  42.4834463  64.3586126
  36.4220218  41.7509226  64.3464030  38.3962455  42.1481095  63.8745836
  39.0343483  43.0401575  63.9000283  39.0846698  41.0245269  64.7283459
  39.1060477  41.3079580  65.7754866  38.3598220  40.1889285  64.5728142
  40.4103139  40.5141832  64.2224096  40.3194857  40.0974527  63.1777590
  41.4818953  41.5977170  64.1712552  42.3434278  41.0258489  63.7926364
  41.2626537  42.3402173  63.4237918  41.5589305  41.9955527  65.1851018
  41.0182154  39.3842213  65.0614460  41.5856857  39.7176063  65.8917893
  40.2314726  38.6082137  65.2983013  41.6188636  38.8333585  64.4002809
  38.3191528  41.7939905  62.3760735  37.5765728  40.9567621  62.0051355
  39.1002624  42.4784250  61.5539469  39.8161985  43.1041460  61.8752958
  39.1058366  42.2768751  60.1288825  38.6123333  41.3289577  59.9026280
  38.3372478  43.3623807  59.3369336  38.8490397  44.3153784  59.3514802
  38.4019604  42.9247717  57.8483797  38.0039632  41.9298940  57.7206987
  37.8978890  43.5972119  57.2078586  39.4198381  42.9715368  57.5060784
  36.8878376  43.5717470  59.8351181  36.4020538  42.5820452  59.8956140
  36.7692167  44.0603185  60.8191258  36.0324393  44.4355860  58.9458519
  35.6290719  43.7826274  58.1959344  35.2199370  44.7433726  59.5050024
  36.5353386  45.1917106  58.4306225  40.5124834  42.0645516  59.6177427
  41.2908917  43.0435358  59.6194042  40.8286551  40.8411955  59.2519439
  40.0442111  40.1145612  59.2011392  42.0502573  40.4259465  58.6010595
  42.9349304  41.0357029  58.8630543  42.5091135  38.9922341  59.1433068
  41.8643169  38.1987502  58.7618103  43.9467360  38.7017221  58.6969321
  44.1003595  37.6080485  58.7169722  44.0186354  39.0264391  57.6791337
  44.5386325  39.3060739  59.3767750  42.4145963  38.9277795  60.6733903
  43.0541086  39.5600851  61.1842277  41.4599632  39.3619247  61.0854609
  42.4876359  37.4790540  61.1556308  42.0878094  36.8596868  60.3495740
  43.5017194  37.2964257  61.3001069  41.9657824  37.4324580  62.1723967
  41.8917112  40.3682825  57.1221613  40.8988930  39.9753114  56.5477782
  42.9378550  40.9449348  56.4729705  43.7082660  41.1431560  57.0886584
  43.1626966  40.8870593  55.0166786  42.5394718  40.1699482  54.5479547
  42.8314520  42.2252610  54.4015663  41.8119886  42.4420924  54.6474768
  43.4913967  42.9510454  54.9212494  43.1089768  42.2673597  52.8787450
  44.1531603  42.2029721  52.6341172  42.5873834  41.3539488  52.4546228
  42.5570380  43.7074010  51.9945511  40.7467970  43.4189760  52.1020548
  40.2273568  43.7476579  51.1732528  40.5895254  42.3916411  52.1458300
  40.3685278  43.9912827  52.9869886  44.5823384  40.5300731  54.6042209
  45.5879004  41.2131523  54.9211394  44.7637607  39.3956600  53.9165094
  43.9384798  39.0083475  53.4581723  46.0360226  38.9250679  53.3198894
  46.8771073  39.1658259  53.9490314  45.9047988  37.3963698  53.2778404
  45.6942007  37.0672487  54.2677558  45.1506626  37.1581945  52.5708775
  47.1582637  36.6656538  52.7441760  48.2203485  37.2851049  52.7350693
  47.1182595  35.4021084  52.5007882  46.2693371  39.4661555  51.9213146
  45.2428479  39.7420698  51.3090395  47.4972137  39.6268712  51.3178668
  48.2969187  39.3337442  51.8903129  47.6518626  40.3376402  49.9968300
  48.7193362  40.5143375  49.8242100  47.2553705  39.3692564  48.8389858
  46.1907575  39.3848441  48.7540361  47.7852494  39.8259388  47.8959238
  47.8999500  38.0221441  48.8706397  47.4944878  37.3607901  49.6098356
  47.8527922  37.6856648  47.8331896  49.3907731  38.0839613  49.1761829
  50.1161745  39.0287971  48.8096784  49.9267903  37.0059500  49.7733967
  47.0221495  41.6946645  49.9410604  46.4921490  42.1593224  48.8916010
  47.1716291  42.4987801  50.9497292  47.5382030  41.9912315  51.7878984
  46.6843575  43.8714394  51.2312506  45.6057377  43.7899402  50.8994697
  46.7431296  44.2063104  52.7651642  47.7848806  44.1919583  53.0870897
  46.4257789  45.2254957  53.0520083  46.2405588  43.4127410  53.2846529
  47.2589977  44.9484023  50.2614184  47.2494833  46.1206969  50.6282557
  47.6641066  44.5570647  49.0541263  48.0227760  43.5892339  49.0558107
  48.0665518  45.4249109  47.9795009  47.8588382  46.5310816  48.1838066
  49.6215521  45.2364705  47.8240198  50.0410051  46.0379759  47.2677346
  50.1159872  45.1890915  48.7686720  50.0324474  43.8902422  47.2082618
  49.8687910  42.6103725  47.7899360  50.1832978  41.7381101  46.8371306
  50.3791613  40.7085393  46.9842065  50.4816744  42.3783699  45.7049479
  50.6210342  41.9434914  44.7430819  50.3389344  43.7207386  45.8876010
  50.2074398  44.4479596  45.1424715  47.3320634  45.0851252  46.6614083
  47.4342283  45.8831778  45.7377845  46.6189367  44.0163912  46.5518467
  46.6518069  43.3083115  47.3086807  46.0066196  43.5745471  45.2983262
  46.8166244  43.2256075  44.6587287  45.1390106  42.3499591  45.6185044
  45.7730199  41.6074495  46.0074721  44.4528449  42.5543159  46.4644004
  44.5138527  41.6953137  44.4368427  43.1591671  41.3722072  44.4581220
  42.6042219  41.3973693  45.4174346  42.3961952  40.8701527  43.4319046
  41.3242134  40.6576302  43.5882948  43.1014852  40.5952894  42.2205870
  42.5685541  40.1252154  41.4438302  44.5088508  40.8511858  42.1553238
  45.0891969  40.6369543  41.2506874  45.2080642  41.4773958  43.2530905
  46.2856562  41.5843694  43.2502944  45.0995665  44.5501779  44.5950927
  44.1792023  45.0758063  45.2121575  45.4166604  44.8838164  43.3240744
  46.1053663  44.3335662  42.8385749  45.0685447  46.1179042  42.5993785
  44.9344506  46.8805506  43.3586875  46.2254972  46.5557068  41.7121878
  45.9026095  47.4371158  41.1028814  47.4411958  46.9229736  42.5362069
  47.1079557  47.8056859  43.2273623  47.7074944  46.1755083  43.2730943
  48.2386405  47.2484177  41.9335979  46.6910001  45.6635452  40.7901991
  47.0103890  44.8786373  41.3007022  43.7753630  45.9652778  41.8622488
  43.4967653  46.6428066  40.8577249  42.8759799  45.0870010  42.2933389
  43.1401257  44.5098620  43.1267660  41.4770116  45.0315363  41.9293429
  41.5010592  45.1020729  40.8194782  40.8417937  43.7134655  42.3815081
  41.1382677  42.8548685  41.6755728  41.3050133  43.5165263  43.3430675
  39.3834425  43.7648280  42.6471487  38.9709217  43.0451998  43.5546682
  38.6426176  44.5212362  42.0131373  40.8313286  46.2772909  42.5727931
  41.0226323  46.4706112  43.7944825  39.9896504  47.1333277  41.8703611
  39.6519366  47.0480187  40.4823993  39.5007915  45.9707048  40.1597954
  40.3703626  47.5818128  39.9141524  38.2286394  47.7706934  40.3829220
  37.3981343  47.1050066  40.6446559  38.1581791  48.0810275  39.3361286
  38.4361726  48.9318173  41.4027569  37.5633552  49.4426207  41.7266245
  39.0938698  49.6829190  40.9731491  39.2515637  48.2461424  42.4754098
  40.0019512  48.9644088  42.8406861  38.4027145  47.8611278  43.6878832
  38.3231733  48.6620317  44.5755274  37.8467761  46.6751667  43.6902507
  38.0329602  45.9366687  42.9907878  37.0784935  46.2573739  44.8843222
  36.4660750  47.0779339  45.2385668  36.0831954  45.1720145  44.3860838
  36.6006355  44.3244542  44.0073332  35.3759332  44.9827765  45.2005954
  35.4066336  45.4739799  43.6626745  37.8532749  45.7848577  46.0871890
  37.5195712  46.2565970  47.1573470  38.9116027  44.9660605  45.9998493
  39.2128195  44.6119405  45.0927527  40.0560893  44.8449159  46.9225349
  39.7631189  44.2876230  47.7656919  41.1664262  44.0393686  46.2977722
  40.7622627  43.1026300  46.0294152  41.5199042  44.6187347  45.4492274
  42.2885732  43.8053927  47.1964361  42.4009469  42.8095685  47.3468649
  40.5879951  46.2285770  47.4459785  40.7187080  46.3795966  48.6362824
  40.7946427  47.1873817  46.5692690  40.7801534  47.1327404  45.5588305
  41.1850066  48.5663891  46.9483378  41.9936204  48.5047239  47.5849961
  41.6080989  49.3563635  45.7076461  40.7891986  49.3496612  44.9496183
  41.8637844  50.8880770  46.1048655  42.6781418  51.0683664  46.8171932
  42.1319050  51.4148181  45.2267378  41.0278829  51.2858398  46.5827229
  42.8741544  48.8206386  44.9610142  43.7132778  49.1769267  45.5502702
  42.9529790  47.7332644  44.8341305  43.0324930  49.3502445  43.5066032
  43.9572798  49.0686184  43.0069440  42.2416093  48.9448038  42.8452045
  42.9953777  50.4129952  43.5092455  40.0653907  49.2590528  47.7974048
  40.2565498  49.8426818  48.8495083  38.7898200  49.1575519  47.3079251
  38.6428069  48.6983772  46.3842253  37.5724302  49.6350832  47.9843579
  37.7202995  50.7337771  48.0983812  36.3410613  49.4727130  47.1604825
  36.1318631  48.3794574  46.8882595  35.5121622  49.8455642  47.7170601
  36.4157218  50.0236367  46.2572502  37.4490577  49.0750915  49.3572983
  37.2581879  49.7647053  50.3595487  37.7830357  47.8151280  49.4955965
  38.2026565  47.2876903  48.7103394  37.6482226  47.0659467  50.7579154
  36.6554189  47.0784889  51.2487671  38.0531101  45.5539663  50.5272025
  39.0744225  45.4527032  50.1686660  37.9135255  45.0436713  51.4911767
  37.3696286  45.0062662  49.8094885  38.6417442  47.6270706  51.8021067
  38.4291131  47.6163342  53.0004831  39.9088230  47.9617444  51.4372009
  40.1087219  47.9010992  50.4648816  40.9229342  48.4167475  52.4377975
  40.9209019  47.8327592  53.3357139  42.3683045  48.5762128  51.7651102
  42.3178644  49.2236943  50.8646256  43.0780221  49.0179517  52.4690066
  42.9773061  47.2822686  51.3813156  42.9684512  46.6509036  52.2912267
  42.2901294  46.8979827  50.6350189  44.4353781  47.3642197  50.8689429
  44.9874886  48.1846435  51.3663422  45.0232768  46.5193115  51.1765974
  44.5615419  47.5711734  49.4624232  45.1309031  48.3689120  49.2027683
  44.3287598  46.6984282  48.5104063  43.8562579  45.5129250  48.7579146
  43.4519017  45.3220204  49.7075543  43.5209546  45.0255602  47.9604943
  44.5660717  47.0081092  47.2761157  45.1615732  47.7854739  47.1837762
  44.4474548  46.2979778  46.5105127  40.5049232  49.8303612  52.9413300
  40.5196927  50.0950992  54.1622826  39.9675654  50.5587825  51.9814659
  39.8233472  50.0946275  51.1149468  39.2237485  51.8012328  52.1437767
  39.8829490  52.6719454  52.1616887  38.7142408  51.9302746  51.2325190
  38.1688141  51.8031865  53.2659723  38.2823514  52.4948930  54.2762900
  37.2534704  50.8270628  53.2556190  37.2148622  50.3600575  52.3869882
  36.2042943  50.6634894  54.2452936  35.8427136  51.6825974  54.3196381
  35.0426622  49.8287575  53.6523969  34.6071453  50.3104482  52.7347835
  35.4452978  48.8947245  53.3817601  33.9191088  49.5936783  54.6265267
  32.9140071  50.5867322  54.7869471  32.8779097  51.3362223  54.0360218
  31.8557918  50.4234813  55.7445789  31.0445317  51.1502960  55.9113419
  32.0102562  49.3070402  56.5692836  31.2135167  49.0971200  57.6511142
  30.2889250  49.0530642  57.4396599  33.0091610  48.3128134  56.3818889
  32.9528503  47.4665563  57.0202927  33.9977234  48.4304916  55.4102069
  34.7787975  47.6869237  55.3020373  36.8792062  50.2016888  55.5569108
  36.5414318  50.7676645  56.5956302  37.7623036  49.1651547  55.5401236
  37.9045205  48.6240608  54.6390708  38.4415599  48.6986493  56.8217215
  37.7293257  48.4138843  57.5483393  39.3974926  47.5148982  56.6949534
  40.3171911  47.8950232  56.2323968  39.9026444  47.0175219  58.1213731
  39.0596971  46.8732381  58.7791950  40.4886093  46.1112582  57.9607384
  40.6150075  47.6895438  58.5799645  38.7097803  46.3527271  55.9421814
  38.1670757  45.7191593  56.6615649  38.1144203  46.6780444  55.1084578
  39.7975257  45.4425500  55.3107342  40.3504947  44.9766975  56.0571592
  39.3965211  44.6358805  54.6764707  40.4543603  46.0459961  54.7489860
  39.1478920  49.8142980  57.5908881  38.8567484  49.9565285  58.7344172
  40.0509474  50.5252230  56.9027683  40.0745615  50.4468370  55.8983689
  40.7501422  51.6445442  57.4589092  41.3820560  51.2053177  58.2808667
  41.8816494  51.9791827  56.4381605  42.6690519  52.6504543  56.8276890
  42.4397463  51.1209159  56.1288411  41.3039437  52.4730366  55.2283392
  41.0093570  51.7154406  54.7651922  39.8269374  52.6925712  57.8757184
  40.1219648  53.2646520  58.9317189  38.7260954  52.9083722  57.1945274
  38.4287668  52.4163240  56.3217535  37.6636817  53.7665324  57.7505328
  38.0843813  54.8101519  57.8542043  36.5230542  53.9662049  56.7120372
  36.1653228  52.9854993  56.4618278  35.3084015  54.8438249  57.2039231
  35.0119884  55.5947506  56.4491283  34.4630577  54.2222422  57.4285905
  35.5345504  55.3978031  58.1814601  37.1065677  54.6005351  55.5765737
  37.4253754  53.9019188  54.9618246  37.0977094  53.3216564  59.1229413
  37.2476359  53.9785348  60.1108762  36.5924451  52.0514227  59.2559869
  36.6059340  51.4259469  58.4336637  35.8625636  51.6160031  60.4610946
  35.1813977  52.3734042  60.7084724  35.1826655  50.2648236  60.2373739
  35.9674416  49.5899431  59.8351875  34.7422795  49.8380409  61.1744172
  34.0706063  50.3815843  59.1439043  34.5691380  50.7414374  58.1949093
  33.8154389  49.3408805  59.0033885  32.8620673  51.2484831  59.5189616
  33.2352395  52.2346166  59.8568905  32.2421063  51.4491522  58.7127178
  32.1008787  50.6171617  60.6092261  32.1977734  49.6109437  60.7115416
  31.4420814  51.1975709  61.5515705  31.3373205  52.4910026  61.7048571
  31.7660825  53.0956690  61.0385959  30.5608736  52.8612305  62.2835774
  30.7279252  50.5127661  62.3742953  30.4241910  49.6173122  62.1524685
  30.2689560  51.1108903  63.0633839  36.9094671  51.4709143  61.5661055
  36.5478073  51.5386803  62.7805318  38.1435611  51.1417417  61.2393163
  38.2822942  51.0196114  60.2302229  39.2309548  50.9674184  62.2181608
  38.8268039  50.4553259  63.1011220  40.4259052  50.1072927  61.6893230
  40.6956348  50.5432432  60.6867462  41.6526691  49.9653670  62.6340999
  41.2711353  49.6153912  63.5843558  42.3996597  49.2826182  62.2858605
  42.1917873  50.9136090  62.7263721  39.9776240  48.6379934  61.3473658
  40.0146338  48.0002642  62.2820385  38.9890375  48.7381775  60.9593241
  40.6408096  48.2465059  60.6177342  39.7650639  52.3726418  62.6447344
  40.2015430  52.4633593  63.7538701  39.6547651  53.4663452  61.8894224
  39.2658431  53.4198653  60.9061215  40.0330799  54.8295084  62.3131891
  40.9655308  54.7262754  62.9114024  40.2276175  55.6471002  61.0535781
  41.0996337  55.3351037  60.5197197  39.3623040  55.5702225  60.4143714
  40.3122960  57.1779674  61.4054215  40.4488185  57.7539872  60.5526724
  39.3769144  57.5569328  61.8201398  41.5313029  57.4610081  62.2858656
  41.4488741  58.2919369  63.2252640  42.6319190  56.8549523  62.1063181
  38.9977398  55.3559558  63.2512423  39.3368028  55.9528416  64.2828997
  37.7288394  54.9301492  63.0711479  37.4396396  54.4773927  62.2696335
  36.6892995  55.2114473  64.0487867  36.8942224  56.2179523  64.4151243
  35.2807111  54.9842746  63.4788907  35.1502463  53.9250810  63.3206479
  34.5295577  55.3159047  64.1887357  35.0058543  55.7385707  62.2052729
  35.0928344  56.8270025  62.3160464  35.7945829  55.4562067  61.5567286
  33.6218298  55.2110326  61.3151379  32.2336018  55.7810505  62.3748074
  32.2441823  55.4432163  63.3750318  32.2516206  56.8471110  62.5560896
  31.2502247  55.6394440  61.9152011  36.7776376  54.3331397  65.3559118
  36.1954510  54.8018367  66.3353394  37.4589756  53.2119857  65.3848787
  37.8467573  53.0121171  64.5014742  37.5798421  52.2455913  66.4646116
  38.5004310  51.7063586  66.3740977  37.4679127  52.7955675  67.4161325
  36.4584897  51.1924786  66.5080476  36.4246896  50.3107083  67.3947659
  35.5939535  51.1153825  65.5176392  35.6313669  51.7393736  64.6971858
  34.5023203  50.0865210  65.5215585  34.2230484  49.9642447  66.5593558
  33.2667367  50.5759978  64.6217578  33.7535794  50.8181050  63.6821330
  32.6219602  49.6854959  64.5105467  32.5334226  51.7839949  65.3053540
  33.2578556  52.5987686  65.5004923  31.7299946  52.1245157  64.5604199
  31.8238128  51.3368855  66.6366393  31.6978018  52.2701449  67.4974058
  31.5783894  50.1212304  66.8762376  35.0014356  48.6973484  65.0248538
  34.3248236  47.6649725  65.1581399  36.2847180  48.6617015  64.5277544
  36.7809228  49.5982536  64.5093964  37.0055707  47.4652496  64.2007531
  36.6657878  46.5291255  64.6856900  36.7363978  47.1190422  62.7467909
  35.7060666  46.8189635  62.7550874  37.0467206  47.8839408  62.0298856
  37.2172486  46.1580500  62.5855435  38.5140179  47.5943689  64.4569183
  39.0143529  48.7404023  64.6077368  39.2855006  46.4868586  64.5323316
  38.7954228  45.5824821  64.6261576  40.7328026  46.2866689  64.4430742
  41.1961066  47.2388207  64.6970820  41.1095990  45.2030646  65.5443806
  41.0542312  44.1998627  65.0464032  42.0770699  45.2827481  66.0952718
  40.3292208  45.1449159  66.3404258  41.1915401  45.8185207  63.0077072
  40.6573244  44.7841255  62.5207459  42.2146073  46.3657619  62.4156131
  42.7279372  47.1094370  62.9463947  42.6133042  45.9073860  61.0813299
  41.9114189  45.1958045  60.7125675  42.6260812  46.6787283  60.3424693
  43.9619785  45.2285666  61.2079793  44.9275018  45.8375174  61.7095630
  44.0889600  44.1374301  60.4783474  43.2140152  43.7893032  59.9962372
  45.3724650  43.4675042  60.3641628  46.1726345  44.1700119  60.6692573
  45.6547910  42.3554258  61.3508264  44.9194022  41.5560411  61.1032618
  47.1897574  41.9430920  61.2451586  47.5391455  42.0940708  60.2386572
  47.8723552  42.4912346  61.9311285  47.2267686  40.8905247  61.5566325
  45.3232407  42.6595285  62.8446450  45.9843895  43.4867402  63.0498927
  44.2410176  42.9965408  62.8677692  45.2758079  41.4805439  63.9195363
  44.4399603  41.5805143  64.5714347  45.0993419  40.5407356  63.3840161
  46.1961265  41.4204613  64.4469997  45.5814158  43.1430170  58.8985376
  44.8419974  42.3120810  58.3843555  46.4665247  43.7909772  58.2412060
  46.8400458  44.6049217  58.7425043  46.8440728  43.5676530  56.8423163
  46.1419691  43.0016141  56.2362654  47.0447844  44.9104500  56.1266317
  47.8004506  45.4844610  56.6616978  47.4742418  44.6568979  55.1424127
  45.7305234  45.7027705  55.9214202  44.4204044  45.2553058  56.2850496
  44.2760606  44.2728939  56.6997053  43.2943075  45.9826188  55.8910984
  42.3723560  45.5634672  56.1366429  43.3698786  47.2382941  55.3983104
  42.5110439  47.8928627  55.2633586  44.6264127  47.7510751  55.0221819
  44.6068432  48.7662157  54.5985767  45.8068845  46.9812201  55.3088929
  46.8188472  47.3678185  55.0280725  48.2134498  42.8408332  56.7333347
  49.0996157  42.9111177  57.6416904  48.3674854  42.0309936  55.6884312
  47.6489735  42.0817044  54.9557339  49.6051234  41.2455670  55.3867068
  50.3958577  41.7613415  55.9374189  49.5083059  39.7394740  55.8874374
  49.1438600  39.1713689  55.0903576  50.5243970  39.3902872  56.1822238
  48.5215306  39.7153255  57.1429212  49.0088654  40.2456084  57.9526330
  47.5478302  40.1415582  57.0088953  48.3252434  38.0207758  57.7770397
  47.4127403  37.2745677  56.4605459  47.1525912  36.3140866  56.8137593
  46.5267349  37.7888526  56.1025248  48.0458477  37.1867753  55.6583453
  49.8249808  41.3977973  53.8185982  48.8554131  41.4283968  53.0461629
  51.1130427  41.4380931  53.4660113  51.8323547  41.5596313  54.1414370
  51.6492397  41.2579812  52.0889584  51.3522800  40.3237472  51.5981279
  50.9492331  42.2659454  51.1530637  49.9594369  41.9166821  50.8768052
  50.7371138  43.7703573  51.5163537  50.1950153  44.1973010  50.6806814
  50.1502752  43.8929781  52.4642404  51.6694889  44.3642774  51.6936771
  51.7446809  42.1570374  49.9528528  51.0365249  42.0746737  49.2747630
  53.1810617  41.4425958  52.0023379  53.7482900  42.2538205  52.7243490
  53.8591403  40.6006450  51.2614234  53.2834376  39.9501236  50.7512682
  55.2722370  40.7634764  50.9984393  55.7842145  40.9277260  51.9456197
  55.8302972  39.4979117  50.3274445  55.2779108  39.3571355  49.4468213
  56.8874171  39.5755965  50.1587496  55.6741482  38.6920381  51.0148816
  55.5799710  42.0756017  50.1920632  56.7544597  42.3292335  49.9800182
  54.6195416  42.8496683  49.7220330  53.7131686  42.5070610  49.9699756
  54.7674079  43.9728433  48.7577463  55.6880340  44.5068739  48.9192468
  54.7929607  43.4763779  47.3320667  54.9694774  44.3553161  46.6752522
  55.8429877  42.4338641  46.8815596  55.5931389  42.2226968  45.8307130
  56.8808685  42.8826318  46.9852856  55.8332899  41.5361832  47.5207713
  53.5686671  42.8818579  46.8925541  52.9695152  43.6070804  46.7454127
  53.6689703  45.0869626  49.0070218  52.6282284  45.1727442  48.2934696
  53.8169832  45.8200696  50.1141108  54.7587086  45.7476988  51.2159239
  55.6882817  46.2990414  50.9069562  55.0901393  44.7203051  51.5207909
  54.1458146  46.4518238  52.3856173  54.9145675  46.8876966  53.0824749
  53.4539929  45.8271585  52.8650754  53.3626314  47.5809700  51.6985485
  53.9859767  48.4615822  51.4705813  52.5579940  47.9816694  52.3221602
  52.8224687  46.8827786  50.4736814  51.8665577  46.3453206  50.7355492
  52.5392903  47.8583251  49.2912602  53.4866583  48.1466963  48.5740798
  51.2741966  48.4685878  49.2055953  50.1644204  48.1435990  50.0742873
  50.2335983  48.3472998  51.1223745  49.9177402  47.0765225  49.8954653
  48.9891638  48.9229612  49.4887798  48.4551935  49.4386154  50.2620953
  48.2532402  48.2375655  49.1638165  49.5856095  49.8586771  48.4423063
  49.7627278  50.8646025  48.9257974  48.9186525  50.1109383  47.5779432
  50.8893629  49.2562190  48.1219035  50.7081817  48.5439278  47.2920032
  51.8623658  50.3332228  47.7019319  52.2733762  51.1740262  48.4854737
  52.2489648  50.2289509  46.4524442  51.7596616  49.6552920  45.8304814
  53.3896433  51.0351203  45.8766024  53.1105388  51.3140491  44.8646707
  53.4546907  51.9442628  46.5265589  54.8720701  50.4926541  46.0575592
  55.7453587  51.2791255  45.6657438  55.0152809  49.1867303  46.3682708
  54.1466305  48.6836114  46.7269439  56.2739912  48.3982185  46.5090231
  56.8994885  48.8973653  47.1923611  56.0428855  47.0034134  47.1087524
  55.9075747  47.1110206  48.1921560  55.1571565  46.4972200  46.6352231
  57.1333080  46.1463030  47.0331296  57.0680907  45.7210713  46.1404792
  57.0289709  48.2896784  45.1440019  56.3935330  48.1209887  44.0629327
  58.3689702  48.5395909  45.2277813  58.7688288  48.3471467  46.1978908
  59.2543088  48.9511782  44.0997697  58.6178233  48.8733409  43.2643213
  59.6064392  50.3596396  44.2906809  59.7842949  50.5141746  45.3775227
  60.5962983  50.6272199  43.8497082  58.5545714  51.3362425  43.6441869
  58.7390737  51.4702475  42.5301925  57.5742755  50.7860248  43.7187297
  58.5697872  52.7240647  44.2298853  58.2200558  52.7610230  45.2907450
  59.5345025  53.0988836  44.5107130  57.9043410  53.7314137  43.4137465
  58.5073935  54.5953367  43.2106319  56.7197248  53.7590074  42.8774946
  56.3273811  54.7502951  42.0877682  56.9086389  55.5388852  42.0267353
  55.4404406  54.6447469  41.5406386  55.7807733  52.9943548  43.1780785
  55.7265173  52.4915928  44.0300515  54.9101121  53.2545656  42.9176532
  60.4503235  48.0704943  43.8130016  60.9263560  48.0574010  42.6351427
  60.8738780  47.2433896  44.7687009  60.3720348  47.2359794  45.6711240
  61.9331564  46.2161290  44.5281745  62.7907111  46.6306681  43.9554270
  62.5117209  45.7869398  45.9373737  63.0142013  46.6293262  46.4236895
  61.7242500  45.4659508  46.6936973  63.5418286  44.7138918  45.8843450
  64.3019432  44.6368720  44.8698802  63.5829871  43.8758869  46.8711841
  61.3170967  44.9506289  43.8821436  60.3518665  44.4062284  44.4694561
  61.7439400  44.4304605  42.7476119  62.7016353  45.0764708  41.8689753
  63.6974940  44.9519103  42.2260633  62.4350003  46.1509239  41.8544414
  62.5260319  44.4378918  40.4574655  63.2643737  43.6390303  40.1861063
  62.4112615  45.1077638  39.5974521  61.1957827  43.5509814  40.7415037
  61.2710189  42.7373498  39.9806941  60.3549403  44.1994945  40.5855689
  61.2128461  43.1914748  42.1988509  60.1565593  43.1033149  42.4432823
  61.9391133  41.9269879  42.5511451  61.4656091  40.8439485  42.1762945
  62.9831063  41.9962405  43.2996590  63.1250290  42.9145867  43.6781739
  63.7235807  40.8564272  43.7871261  63.2060151  39.9620116  43.6191113
  65.0275086  40.6069825  42.9895273  65.7892387  41.2287638  43.3956772
  65.3983008  39.6456249  43.2612322  65.0288349  40.6913537  41.4466880
  64.8032590  39.6499914  40.5652721  64.5099090  38.7054376  40.9964195
  64.9391142  39.8085908  39.1718153  64.6597925  38.9526408  38.5617964
  65.4752068  41.0000262  38.6847500  65.6859870  41.1765672  37.6496791
  65.6867608  42.0888941  39.5654290  66.0456546  43.0666734  39.2166644
  65.5441091  41.8967057  40.9413700  65.8469128  42.7123091  41.5952077
  63.8129480  40.8571817  45.3055650  64.9403989  41.1629828  45.7084318
  62.7581470  40.5995998  46.0833158  61.3964388  40.5867465  45.7187536
  61.2199594  39.5740968  45.3653918  61.1369115  41.3216703  44.9864086
  60.6431488  41.0083803  46.9573784  59.6876412  40.4839390  46.9890803
  60.5307579  42.0925481  47.0800778  61.4296919  40.5056644  48.1132961
  61.1191772  39.4975568  48.4324866  61.4302685  41.1584711  48.9371031
  62.8459476  40.5238359  47.5463927  63.2821539  41.4170513  47.9244444
  63.6691468  39.3681642  48.0559793  64.2776148  38.5540969  47.2903782
  63.7399213  39.3171635  49.4124052  63.4143548  40.1456194  49.8907619
  64.2817590  38.2410811  50.2419451  65.3402205  38.0785350  50.0708062
  64.2635119  38.7018193  51.7540276  64.7965845  39.6768995  51.8484206
  63.2161869  38.7787686  52.1048346  64.9598521  37.6961145  52.7814086
  64.4315771  36.6977506  52.7826637  65.8972036  37.4329855  52.3004295
  65.0721799  38.1379970  54.2469104  64.5388007  39.1821954  54.6643626
  65.7891938  37.4135754  55.0557319  65.9060418  37.6978822  56.0414574
  66.1909037  36.5784081  54.7570922  63.5216724  36.9395847  50.1853248
  62.3580382  36.8397285  49.8261933  64.1869840  35.8276717  50.3703523
  65.2129059  35.9903224  50.4506096  63.6006411  34.4758663  50.4406200
  62.5923244  34.5185848  50.8217765  63.5068374  33.8435818  49.0709068
  63.0263854  32.9019899  49.1804707  62.9005488  34.3445037  48.4331562
  64.7523827  33.7070305  48.4344396  65.0196832  32.7504343  48.5563179
  64.2904507  33.4499911  51.3093050  65.5042648  33.5267245  51.5653082
  63.5849786  32.4283865  51.7953310  62.5768127  32.3675261  51.5088601
  64.2421386  31.3633347  52.6610697  64.5814725  31.8032470  53.5912560
  63.2039395  30.3226748  53.1449887  62.6114900  29.9408241  52.3227689
  63.6410621  29.5016958  53.5759455  62.2067838  30.9465262  54.1068257
  62.5193266  31.7447727  54.9505206  60.9796310  30.7300638  54.0140864
  60.4776581  31.3138573  54.6805804  60.5493280  30.1199714  53.3304342
  65.4735174  30.6394301  52.0241942  66.5450890  30.7788072  52.6269043
  65.3837529  30.0738606  50.7966020  64.4312853  30.0427899  50.3303703
  66.4248719  29.5969791  50.0471898  67.2439615  29.3955379  50.7787487
  66.0383120  28.2146253  49.5038512  65.2221910  28.4029431  48.7758059
  66.8371278  27.6217324  49.0705230  65.6616754  27.7569610  50.4367152
  66.7499294  30.6681220  48.9805231  65.8984238  31.3378209  48.4511158
  68.0603520  30.8210327  48.5567483  69.1211558  30.0695041  49.0954183
  68.9373711  28.9927005  48.9697984  69.2958585  30.2221420  50.1574643
  70.3413379  30.4706112  48.2487847  70.4475532  29.8747243  47.3880291
  71.2438555  30.4489624  48.8007557  70.0032447  31.8541627  47.7315317
  70.4109984  32.0974808  46.7380391  70.2912318  32.5404736  48.5404352
  68.4913181  31.7786226  47.6120837  68.1349944  32.7717487  47.9536308
  67.9144207  31.3069546  46.2441542  68.1374390  30.2303514  45.7781326
  67.0886127  32.1392203  45.6013525  66.9201657  32.9625210  46.0880054
  66.5194498  31.9409770  44.2759731  66.2864022  30.8727556  44.0344996
  65.2187764  32.7305644  44.0706300  65.4083401  33.7444684  44.2014669
  64.5415334  32.5243031  42.6719811  64.3662100  31.5041796  42.5371801
  63.5853973  33.0792797  42.7519883  65.1338310  32.9082511  41.8029780
  64.0432288  32.3889944  45.0519384  63.5402105  31.4511322  44.9238834
  64.4167187  32.2985570  46.0421912  62.9473459  33.4502121  45.1437020
  62.2132010  33.3333982  44.3607430  62.4295269  33.2242034  46.0812090
  63.2895510  34.4388504  45.3139227  67.4915716  32.4374280  43.1723160
  68.1315786  33.4549311  43.2713170  67.4939744  31.6124612  42.0408723
  66.8845880  30.7789262  42.0057405  68.0649381  32.0151649  40.8397918
  68.9490551  32.5510980  41.0010966  68.5329421  30.7270697  40.0609888
  67.6480713  30.1521172  39.7486324  69.5052737  31.1903701  38.8679718
  69.7306725  30.2832541  38.2790427  69.0286010  31.7756098  38.1389738
  70.4569765  31.5457435  39.2047162  69.3065168  29.6978710  40.9612128
  70.3006085  30.1709869  41.1105720  68.7699810  29.4922412  41.9119926
  69.5131694  28.3769501  40.2145602  68.4986405  27.9170164  40.0571869
  70.0561166  28.5365470  39.2714561  70.0680023  27.7345960  40.8661859
  67.2530827  33.0052812  40.0106130  66.3296347  32.6204080  39.3206299
  67.5929943  34.2992543  39.8864779  68.3833165  34.7159771  40.4263823
  66.9847925  35.1381290  38.8559400  65.8600044  34.9958276  38.8817086
  67.1039814  36.5596099  39.4117994  68.1170581  36.9423734  39.2881877
  66.3924103  37.1453025  38.8369832  66.7152885  36.7803669  40.9371433
  65.5428076  36.5886055  41.2878453  67.5987366  37.1518467  41.7376820
  67.7121454  34.8474959  37.4594895  68.9360608  35.0945856  37.4050943
  67.0215576  34.4974785  36.4121460  66.0531373  34.3094026  36.5715638
  67.6106107  34.3571901  35.0142987  68.6249672  34.8001790  35.1033629
  67.8006765  32.8743143  34.6107570  68.4182753  32.3094235  35.3302379
  66.8133594  32.3937803  34.5582791  68.4256721  32.7056016  33.1218284
  68.1534270  31.7946987  32.5549569  67.9821755  33.3966865  32.4172784
  69.9810431  32.8534613  33.2153254  70.4320460  33.7471442  33.9078393
  70.7200407  31.8484410  32.7652096  66.8154675  35.1043775  33.9483485
  65.6967135  34.7045017  33.6698367  67.4196496  36.0137459  33.2517189
  68.3453646  36.2220422  33.3747893  66.8262026  36.8129236  32.1194587
  65.8272777  37.1449598  32.3082556  67.6495569  38.0770057  31.9108600
  67.8809650  38.5305974  32.8087730  68.6187133  37.8173782  31.4631624
  66.9344925  39.0947209  31.0151692  66.2412675  38.5467489  30.3301462
  66.3203298  39.7128853  31.6794685  67.9516816  39.9304227  30.1796469
  68.0747165  39.7165715  28.9266519  68.5974119  40.8264380  30.7162528
  66.8709643  35.8850268  30.8626311  67.8785505  35.7645124  30.1760875
  65.7209087  35.4302056  30.3810300  64.7732597  35.6294348  30.7446444
  65.5923859  34.7422388  29.0897212  66.5739299  34.6430559  28.6129029
  65.1571657  33.3111276  29.4065836  64.2243890  33.2936270  29.8835897
  65.0917432  32.7293787  28.4409466  66.2848196  32.6416743  30.2352882
  67.1950795  33.1431633  29.9238565  66.1714559  32.9662180  31.2530469
  66.2681643  31.0878055  30.1887992  66.8143579  30.7042327  30.9702515
  65.2225529  30.6873454  30.3028973  66.8459500  30.5626572  28.8854586
  66.7015618  31.1511904  28.0348086  67.5334934  29.4447665  28.6897430
  67.9750527  29.0501258  27.4869893  67.7708833  29.6153605  26.6826114
  68.1640659  28.0894970  27.4326319  67.5530370  28.4012995  29.5466884
  67.0802315  28.5612623  30.4491607  68.0106304  27.5580299  29.2580906
  64.7094202  35.4085950  28.0928561  64.6057612  36.6219838  28.0720450
  63.9898343  34.6283815  27.2955459  64.0060116  33.6792550  27.4589319
  62.9486404  34.9993602  26.3321522  62.4903996  35.9210097  26.6278148
  63.6196740  35.1184890  25.0020124  64.4655280  35.8584808  25.0880287
  64.0754779  34.1583394  24.6571459  62.6255735  35.6424948  23.9865301
  61.6505980  35.8829090  24.4853453  62.9756508  36.5334459  23.4264755
  62.1351701  34.6923530  22.8666370  62.8051151  33.6904229  22.6483432
  61.0145696  34.9803794  22.2829600  61.9059182  33.8575969  26.3495612
  62.2548434  32.6812323  26.4356109  60.6643515  34.2395478  26.3247669
  60.5235219  35.1881248  26.0199012  59.4424246  33.4847877  26.7955471
  59.7367205  32.4386250  27.0453679  59.0109229  34.0576693  28.1622628
  58.7910604  35.0872571  28.0014677  57.6910738  33.3060444  28.5990478
  57.3661702  33.8164917  29.5147329  57.0176200  33.4658152  27.8383700
  57.8382951  32.1718122  28.7396488  60.1821805  33.9392729  29.1919590
  60.1322027  32.8876054  29.4675897  61.1104202  34.2268542  28.7854702
  60.1654342  34.7691149  30.4659085  60.2072896  35.8739931  30.2890962
  59.3296959  34.5170204  31.0769565  61.0215094  34.5050236  31.0524925
  58.3633354  33.5707737  25.6477195  58.1449363  34.6944859  25.0970028
  57.7242115  32.4430490  25.3336403  58.0859469  31.1345998  25.7287383
  58.0560364  31.0078986  26.8273196  59.0970938  30.9720791  25.3537861
  57.1868816  30.2123598  24.8776362  56.2878087  30.0248530  25.4971143
  57.6159165  29.2456464  24.6539791  56.6521772  31.0511065  23.6691500
  55.6576027  30.6986235  23.3289474  57.3318205  30.9590463  22.8777891
  56.6341438  32.4759118  24.2764808  56.9042614  33.1495073  23.4505628
  55.2546146  32.8521766  24.9110601  55.1193240  32.6871178  26.1569239
  54.3212644  33.4034810  24.1680521  54.5964102  33.6212882  23.2369372
  52.9292210  33.7324438  24.5784044  52.8491319  33.5742780  25.6555647
  52.6458908  35.2431370  24.2943160  53.5531273  35.8091752  24.3155935
  51.9850595  35.2710798  23.3709897  51.7107846  35.7755082  25.4398696
  50.9342417  35.0430842  25.7559420  52.3757628  35.9107417  26.2923205
  50.9375150  37.0197885  24.9117003  51.4797878  37.9735187  24.3243876
  49.7079390  36.9962300  25.1310344  51.9265809  32.8057314  23.9400161
  50.7522587  32.8698824  24.2891211  52.4617184  31.9787765  22.9910839
  53.4057248  32.0034070  22.8017144  51.6704151  31.0562544  22.1299904
  50.8224596  30.7625574  22.5752767  51.2783725  31.8452714  20.8251889
  52.2036984  31.9360479  20.2711059  50.6849846  31.1676623  20.2195607
  50.5909869  33.2683035  20.9361611  51.0359825  33.9261803  21.6398529
  50.7059670  33.7174294  19.8696053  49.1362247  32.9248414  21.2274422
  48.7240591  32.2784121  20.4634050  49.0356153  32.3584960  22.1781308
  48.2972730  34.1005925  21.3748591  47.5730913  34.2197110  20.7185320
  48.2170670  34.9206589  22.4021082  49.0832775  34.8988286  23.3885992
  49.8772029  34.2598203  23.2904629  49.1014996  35.5630040  24.1323091
  47.1935647  35.7620083  22.4701295  46.5360723  35.7350871  21.6669185
  46.8915021  36.1455519  23.4023992  52.5378171  29.8120866  21.7533800
  53.6841384  29.6869132  22.1879530  52.0072460  28.9250791  20.9146677
  51.1078778  29.1138036  20.4309987  52.7014985  27.6918163  20.4265383
  52.9995451  27.0835804  21.3266969  51.7667216  26.7911021  19.5537563
  51.3662198  27.3197930  18.6926586  52.4002462  25.9086833  19.3378359
  50.5818844  26.5250938  20.3483228  50.0153346  27.2941026  20.1988309
  53.9518075  27.9626784  19.6407772  53.8643740  28.4844537  18.5704863
  55.1343609  27.7295546  20.2410303  55.1084513  27.0454502  21.0199444
  56.4237788  27.8041394  19.5469596  56.3319791  28.6178412  18.8412004
  57.5417184  28.0972053  20.5045481  58.4656641  28.2399271  19.9036963
  57.3706554  29.0597679  20.9415862  57.7037865  27.0503808  21.5120982
  58.6653262  26.1115521  21.5592373  59.4793586  26.0432403  20.8367685
  58.5019284  25.2800593  22.6091949  59.2628300  24.7224209  22.9827890
  57.5554629  25.7276078  23.4414896  56.9939716  25.2120082  24.5910868
  57.3800748  24.2890508  25.0663986  55.8445433  25.7406507  25.0950800
  55.4289069  25.2872134  26.0671142  55.2578348  26.8270676  24.5187819
  54.3749731  27.2409742  25.0144855  55.8287952  27.3557947  23.3873128
  55.3915334  28.3118486  23.0529981  56.9689163  26.7951218  22.7504983
  56.6168202  26.5269139  18.6345373  56.1647502  25.4226026  18.8571708
  57.4812726  26.7233955  17.6415779  57.8668126  27.7109656  17.5693624
  57.9266414  25.7303643  16.6920236  57.2173184  24.8750121  16.8059953
  57.9167747  26.0730237  15.2067434  58.4537345  26.9713508  15.0206183
  58.4326021  25.3051256  14.6279944  56.5768132  26.1437836  14.5524996
  55.6216002  26.5420416  15.2232984  56.4041335  25.9430616  13.2895700
  55.4648110  26.1409888  12.9945032  57.0421699  25.4697641  12.6886880
  59.3121100  25.1993124  17.0412901  59.5166036  23.9961317  17.0896984
  60.2842442  26.1008450  17.3452385  60.0512811  27.0751862  17.0812618
  61.7030316  25.9079999  17.7290544  61.7721424  25.0041739  18.3751560
  62.5373923  25.7102403  16.4100680  62.2335337  24.7942346  15.9234901
  62.2355104  26.4904543  15.7629882  63.9060825  25.5759290  16.7251241
  64.2175950  24.8253654  16.1676986  62.2894167  27.0782191  18.5926024
  61.6846138  28.1298432  18.7358750  63.4551993  26.9033286  19.1646828
  63.9955053  25.9685972  19.0939624  64.1692443  28.0022507  19.9313638
  65.2223704  27.9095806  19.6326083  63.7895844  28.9191992  19.4489266
  63.8982775  28.1348104  21.4402159  64.4051046  29.0122331  22.0822380
  63.0255573  27.2478289  21.9406700  62.5979036  26.6176721  21.2846239
  62.6838728  27.1562840  23.3937119  63.3913318  27.6858624  24.0237789
  61.3276831  27.8095951  23.5567755  60.5143415  27.2495287  23.0220092
  61.1174520  27.7553104  24.5612471  61.2633403  29.2495004  23.0864146
  61.2537481  30.3846453  23.8854320  60.8938582  31.4231537  23.1178146
  60.7496762  32.4083939  23.3942962  60.7614566  31.0134545  21.8971787
  60.5026183  31.6905655  21.1745938  60.9564199  29.6479765  21.8251812
  60.8501393  28.9492626  20.9241657  62.8183098  25.7326116  24.0267500
  61.9949791  25.3197443  24.8037920  63.9248670  25.0667791  23.6329450
  64.4706456  25.4656073  22.8815796  64.1369879  23.6635736  24.0194124
  63.3076360  22.9735006  23.7987878  65.3637109  23.0569246  23.3661852
  66.2528226  23.4200425  23.8539954  65.3131075  21.9543263  23.5296185
  65.5965722  23.2830572  21.8216346  66.1657648  22.4573371  21.3702648
  64.6316421  23.2230659  21.3480209  66.1567950  24.7122566  21.4136818
  66.6642872  25.4533733  22.3125162  66.0329043  25.1104358  20.2096548
  64.2274119  23.6493134  25.5830288  63.9270972  22.6726094  26.2376914
  64.7632143  24.7431864  26.2280501  65.0979036  25.4644494  25.6892323
  64.9940910  24.8223900  27.7515611  65.7430684  24.0865399  28.0640676
  65.6323851  26.2025168  27.9568296  66.0368488  26.3597335  28.9422734
  66.4891624  26.2263355  27.2005603  64.7386541  27.3383674  27.6702646
  64.6457502  27.9718468  26.4396683  65.3635056  27.8213454  25.5673043
  63.6783357  28.9146950  26.3960653  63.6554969  29.5684701  25.6339753
  63.1186123  29.0185065  27.6743333  62.2082609  29.9715763  28.1825679
  61.8680607  30.7849984  27.5699630  61.8912706  29.9738935  29.5403855
  61.1642592  30.5406532  29.9849144  62.3686670  28.9351113  30.3132266
  62.0247164  28.7308318  31.3224802  63.3987650  28.0584461  29.8374590
  63.8702854  27.2763499  30.4660244  63.8310189  28.0734818  28.4978044
  63.7528284  24.6643157  28.5948489  63.7845679  24.2914662  29.8189098
  62.5562915  24.9095245  28.0162471  62.6691957  25.2650533  27.0775224
  61.1968120  24.7639024  28.6253622  61.0988542  25.2419423  29.5784634
  60.1113580  25.3249618  27.6400342  60.1385055  24.8180454  26.7016781
  58.7214351  25.3593789  28.2141124  58.5146652  26.0828946  29.0558208
  58.0524438  25.6881341  27.5047574  58.2793541  24.4201146  28.4821200
  60.4502808  26.7790006  27.3054872  61.4956273  26.8335731  26.8642181
  59.7827277  27.0687007  26.4755842  60.4911991  27.4874125  28.1830324
  60.8693433  23.2830998  28.9376997  60.4883614  22.9662110  30.0762903
  61.1205330  22.4004785  28.0162789  61.5816286  22.7811987  27.2003056
  60.7239779  20.9541313  27.9576403  59.8719003  20.7582832  28.6385353
  60.2462296  20.5246812  26.5187091  60.2163583  19.4300756  26.4476286
  58.7910309  20.8596797  26.3933864  58.6285719  21.9202080  26.5787136
  58.5096948  20.5976689  25.3852457  58.1909592  20.2375279  27.0730239
  60.9837083  21.1915848  25.4181253  61.7984019  20.7515292  25.2166970
  61.8604632  20.0837192  28.4380867  61.5978434  18.9680547  28.9854007
  63.1334618  20.4275906  28.2278918  63.2530703  21.2407132  27.5951241
  64.2596857  19.6273396  28.6123105  64.0797051  18.6049336  28.3277889
  65.6482169  20.1128284  28.0783130  65.8134563  21.2333203  28.1458460
  66.4968556  19.7585750  28.6405293  65.9264310  19.8255577  26.6244961
  66.9078871  20.3452242  26.0192048  65.2257761  19.0293719  25.9456532
  64.4270085  19.6020108  30.1702521  64.8186110  18.6333205  30.7339328
  64.1508675  20.7352127  30.8484375  63.7510352  21.4745338  30.2939607
  64.0420699  20.7168841  32.3071957  65.0113673  20.5069056  32.7716851
  63.7428253  22.1089793  32.7499667  64.4789243  22.8183000  32.3469168
  62.7729851  22.4666495  32.4269324  63.9377558  22.3559710  34.2383356
  62.8328689  22.6289316  35.0254346  61.8987457  22.7483320  34.5544561
  62.8705474  22.8049000  36.3916698  61.9927094  23.1766611  36.8440120
  64.0931823  22.7273178  37.0224701  64.1716471  23.0046380  38.0559706
  65.2299549  22.4454417  36.3255192  66.1407039  22.3401247  36.8847224
  65.2105342  22.2068398  34.8917971  66.1826390  21.9793412  34.3728380
  63.0967198  19.7616392  32.9345956  61.9519696  19.7761322  32.6379158
  63.5492671  18.9660484  33.8894892  64.5669522  19.0317571  34.0696542
  62.7557306  17.7813708  34.3976247  62.1689627  17.3573938  33.5950256
  63.6482412  16.7495109  35.1417810  64.0588358  17.2663736  36.0474159
  63.0707694  15.8616770  35.4938973  64.8837495  16.3209149  34.3776953
  64.5822469  15.5753435  33.6464929  65.2651756  17.1793381  33.8490636
  65.8687420  15.6474705  35.3437863  66.5538516  16.4224145  35.7389517
  65.2090808  15.1268447  36.0584675  66.7630645  14.6095227  34.6285623
  66.1402622  13.8231248  34.1930179  67.2006603  15.1262636  33.7509406
  67.8199093  14.1019799  35.5457236  67.3947246  13.9268659  36.4863377
  68.2543780  13.2802299  35.1816546  68.4575742  14.7548081  35.8515424
  61.7640923  18.3140137  35.4001967  60.6750920  17.7910651  35.5319591
  62.1023068  19.3953349  36.1173407  62.8978772  19.8719152  35.7931796
  61.4014518  19.9641992  37.2841654  61.1623988  19.0519602  37.8541095
  62.1078134  20.5428192  37.9281515  60.1125140  20.7014625  37.1248268
  59.9322596  21.2857211  36.0828155  59.2794314  20.7080958  38.1926286
  59.5319068  20.0776866  38.9496501  57.9336560  21.2967316  38.1702773
  57.3391552  20.7238097  37.5146834  57.4130853  21.0665546  39.6045120
  58.2850269  21.2422497  40.1578341  56.6149388  21.8076590  39.7611039
  56.8114406  19.6886664  39.8935786  55.9553224  19.5517608  39.1631355
  57.5503303  18.9442018  39.6079933  56.3726749  19.4048848  41.3288129
  56.1535307  18.3569348  41.3829604  57.2790296  19.5021783  41.9231125
  55.3681693  20.4250490  41.9040532  55.8790626  21.2725893  42.3020247
  54.6379250  20.7296747  41.1398320  54.6247558  19.7763579  43.0012275
  55.2462565  19.5385597  43.7944297  53.9805918  20.4061893  43.4141551
  54.1236213  18.9368259  42.6488600  58.0018828  22.7889446  37.9380347
  58.8062774  23.5012514  38.5781000  57.2537189  23.2663553  36.9589140
  56.7329380  22.6148247  36.3714716  57.1661869  24.6896422  36.5686740
  57.8165108  25.2540630  37.1941217  57.6570478  25.0059611  35.1727360
  56.9608107  24.4833646  34.5040383  57.7472732  26.4554541  34.8210030
  58.2803342  27.0785464  35.5194830  58.1750591  26.3798184  33.8591352
  56.6841432  26.8447926  34.6874131  58.9899493  24.5495198  35.0991823
  58.9047402  23.5764594  35.0654101  55.7807933  25.3576103  36.8767722
  54.7986939  24.6520832  36.6453380  55.7894500  26.6551037  37.1929665
  56.6820529  27.1087745  37.3913870  54.5996889  27.5408169  37.2968172
  53.6662292  26.9654159  36.9800561  54.3780062  28.2117448  38.6385382
  55.0642565  29.0728676  38.7640072  52.9519762  28.7975445  38.7182474
  52.8553970  29.2875750  39.7184814  52.7583410  29.5072977  37.8766519
  52.2963016  27.9703840  38.5440747  54.5784867  27.2534603  39.7529313
  54.3848688  27.6842794  40.7462746  53.8899081  26.4049790  39.7395664
  55.5967583  26.8972825  39.6724361  54.7932391  28.6662341  36.2746199
  55.8362647  29.2891884  36.1370891  53.8295920  28.9016870  35.3823911
  53.0880379  28.1780236  35.3439761  53.9326141  29.8391994  34.2466358
  54.8803666  30.3847706  34.3275648  54.1964905  29.0409227  32.9479481
  54.8575958  28.1825415  33.1707418  53.2516371  28.5157909  32.6984142
  54.6816531  29.8435846  31.7523387  54.7480332  31.1982740  31.6708146
  54.3887357  31.8836776  32.3773070  55.1286235  31.5008767  30.3809881
  55.1121867  32.4270417  30.0116420  55.4358424  30.3808826  29.6606045
  55.8884178  30.0898119  28.3531986  56.0683536  30.9595605  27.6554855
  56.1496013  28.7606614  27.9726048  56.4884302  28.6094652  26.9685539
  55.8838162  27.6671724  28.7767103  55.9731140  26.6776717  28.4096966
  55.3437233  27.9188628  30.0330328  55.0482674  27.1351247  30.6652687
  55.1953849  29.2629392  30.4928790  52.8076846  30.7948391  34.1795003
  51.6555843  30.4976601  33.9120421  53.0217311  32.0492967  34.6298655
  53.9335395  32.2428738  34.9073261  52.0922537  33.1943744  34.5975716
  51.0684980  33.0298303  34.8574234  52.5273028  34.3116247  35.5509999
  53.5490431  34.7533081  35.2263957  51.8824304  35.1760071  35.4293687
  52.4264956  33.8592116  36.9219702  53.6158824  33.4007070  37.6074215
  54.6010743  33.4735510  37.1714521  53.5243675  32.8832309  38.9317529
  54.4043402  32.5632057  39.4417293  52.2038016  32.7821164  39.4256032
  52.0683198  32.4509710  40.4523846  51.0838760  33.2796734  38.7587626
  50.0755815  33.0832448  39.2069280  51.1641359  33.6799058  37.4596863
  50.2714014  33.8432943  36.9031864  51.9277596  33.6422712  33.1395767
  52.8537329  33.9684900  32.3719050  50.6553662  33.8226031  32.8121580
  49.9326130  33.5544688  33.4918845  50.2047751  34.2988711  31.5269655
  51.0964067  34.6023308  30.9013680  49.5230396  33.1702259  30.6693305
  49.0787166  33.6094826  29.7309008  50.5384805  32.1453779  30.1749406
  51.1055202  31.6696238  31.0155562  49.9831469  31.4278743  29.6026821
  51.1880511  32.7472406  29.5302065  48.3823764  32.5060431  31.4155145
  47.7103485  33.2443151  31.7441197  47.8240698  31.7838719  30.8316413
  48.8362795  31.9317251  32.2861362  49.3424787  35.5149225  31.6355988
  48.3972032  35.6312069  32.4547757  49.4406598  36.3934366  30.6355042
  50.2986912  36.3756072  29.3908144  50.1419799  35.4165514  28.7894248
  51.3548903  36.4551043  29.7356998  49.9069033  37.6569213  28.6625533
  49.1087593  37.4551930  27.8780080  50.6815966  38.1953026  28.1229330
  49.4978311  38.6067074  29.7906291  49.0155247  39.4272921  29.4240063
  50.4164122  38.8988970  30.3123061  48.6467601  37.6573151  30.6781436
  48.4854807  38.1316621  31.6820478  47.2822706  37.4894619  30.0303942
  46.7074453  38.5600072  29.7839988  46.8816125  36.2579962  29.6254706
  47.3980674  35.5096660  29.9843758  45.4759420  36.0274592  29.3717053
  44.8479781  36.5648677  30.1152519  45.1534203  36.4898387  27.9111506
  44.1117412  36.4819333  27.7105056  45.4274189  37.4897193  27.6963758
  45.7912256  35.7231522  26.9477903  46.6787535  36.1738581  26.7861615
  45.2054331  34.5964316  29.4672402  46.0914068  33.7331226  29.4609135
  43.9289592  34.2423374  29.3200659  43.3130231  35.0355446  29.1201820
  43.3622805  32.8468309  29.1238139  43.7375128  32.1124389  29.8159205
  41.9311002  32.9428687  29.5124226  41.3503004  33.6566839  28.9065753
  41.1646385  31.6570751  29.3276755  40.9452894  31.2616999  28.3241399
  41.6483754  30.9180790  29.9307938  40.2141451  31.7468334  29.8417952
  41.8731937  33.2925932  31.0258102  42.2569020  32.4958996  31.6377149
  42.5378251  34.1371899  31.3354469  40.4905404  33.5518787  31.5597404
  40.4916802  34.2516015  32.3822076  39.8728978  33.8132223  30.7089612
  39.9841109  32.6636287  31.9915720  43.5073706  32.3440170  27.6903198
  43.7289522  31.1060599  27.4786155  43.4921236  33.2110593  26.6389671
  43.4336297  34.2122219  26.9318806  43.8423526  32.7845383  25.1958911
  43.2563220  31.8932692  25.1022040  43.5345339  33.9261474  24.2257575
  44.0987781  34.7603089  24.7164162  44.0387510  33.7239543  23.2443287
  41.9647137  34.0701819  24.0244371  41.4825063  33.0595070  23.9645537
  41.6320497  34.4762636  24.9644368  41.6659497  34.9215004  22.7629872
  42.3757089  34.7794614  21.9183061  40.5625144  34.8594736  22.6009199
  41.9112032  36.4744619  23.0504463  43.0324893  36.7406611  23.0900538
  41.5189245  37.0162409  22.2431710  41.1400834  37.0321748  24.2241346
  40.6876860  37.9168933  24.0137975  40.3102827  36.4535800  24.5527573
  41.7300582  37.2192863  25.0336033  45.2925294  32.3636354  25.1746774
  45.6116845  31.3743703  24.4598603  46.2675229  33.1132945  25.7612094
  45.9457563  33.9516682  26.2131544  47.7017652  32.7391801  25.8441305
  48.1250179  32.7698628  24.8174517  48.4166766  33.8933614  26.5828707
  47.9026563  34.1700802  27.5024942  49.4074692  33.6491946  26.7414217
  48.3891121  34.7315308  25.8279330  47.8476607  31.4582906  26.7105484
  48.7111070  30.6296905  26.3788550  47.1944263  31.3663867  27.8631316
  46.5421674  32.0542100  28.1015807  47.2666579  30.1670266  28.5838848
  48.2595653  30.0515038  28.9900899  46.4999961  30.3017667  29.3407814
  46.8944262  28.9079369  27.8501791  47.6200169  27.8733160  27.9093302
  45.7565274  28.9710080  27.1277865  45.2485616  29.8290649  27.2160921
  45.3392305  27.8105629  26.3259978  45.2150163  26.8578116  26.9657003
  43.9926144  28.2159181  25.6993074  43.9774160  29.2919398  25.3345062
  43.7429289  27.5239165  24.8976798  42.8284839  28.0463150  26.6762554
  42.7577600  27.2942917  27.6610485  41.8388073  28.8519961  26.4479303
  40.9088581  28.7039606  26.8738130  41.8236142  29.4534672  25.6654784
  46.2516286  27.3499852  25.1934840  46.1897263  26.2411427  24.8958341
  46.9733674  28.2324462  24.4863777  46.9327277  29.1347261  24.7759874
  47.9004274  27.8937083  23.4553505  47.4434504  27.1075981  22.8300297
  48.0536491  29.1865765  22.5897519  47.1951628  29.8909879  22.6958326
  49.0997588  29.6233522  22.7904584  47.9344306  28.7934270  21.0865385
  49.0163566  28.7629233  20.4972834  46.8183769  28.6808063  20.4887590
  49.2064773  27.3717525  24.0610520  49.7225173  26.3640109  23.6223403
  49.8101947  28.0691824  25.0644784  49.4653743  28.9820463  25.3168949
  51.0527638  27.5028255  25.7546328  51.8120957  27.4284235  24.9953742
  51.4249192  28.4852925  26.9297491  50.5247013  28.7241598  27.4722570
  52.4199245  27.8530394  27.9696019  52.7866220  28.5860634  28.7328438
  51.9772056  26.9855426  28.4963625  53.3611339  27.4253628  27.4781426
  52.1596817  29.7851311  26.3060705  53.2201418  29.5357566  26.0366699
  51.6622683  30.1724028  25.4333609  52.1320862  30.9366224  27.2194961
  52.9993555  30.8980841  27.8661653  52.2387572  31.8171238  26.5866278
  51.2362006  31.0358589  27.6879718  50.7753611  26.0933019  26.2341233
  51.5691213  25.1652595  25.9721474  49.7014015  25.9421345  27.0008943
  49.1527870  26.7455307  27.1352419  49.3530602  24.6738654  27.4439139
  50.0669626  24.3427344  28.2005108  48.0289683  24.8045735  28.2360573
  47.2760293  25.2432314  27.6110006  47.6555784  23.8092825  28.6045071
  48.1938162  25.4305549  29.0502390  49.2055631  23.5828675  26.3092511
  49.7056342  22.4439962  26.5108645  48.5847655  23.8695360  25.1422672
  48.3665816  24.8321138  25.0241473  48.4756390  22.9171436  23.9804226
  47.9381769  21.9875719  24.3016692  47.6492857  23.5516877  22.8582913
  47.2589859  22.7807538  22.2997816  46.8398578  24.1309433  23.2981659
  48.2234530  24.3635010  22.3855663  49.8176867  22.5396415  23.3962667
  50.0647895  21.3897635  23.0616699  50.7358885  23.5177445  23.4128780
  50.3590955  24.4549911  23.6379349  52.1228430  23.2963446  23.0010038
  52.1800673  22.9493911  21.9819297  52.7788077  24.7234149  22.8924895
  52.1338725  25.3919463  22.3574819  52.9363151  25.1571287  23.8116259
  54.4221941  24.5137187  22.0493717  55.1872275  25.0198038  23.1121921
  52.9151264  22.3848092  23.9789357  53.6850317  21.6233402  23.4461886
  52.7741635  22.4141136  25.2909279  52.2354915  23.1815102  25.7465481
  53.3362269  21.4166146  26.2105118  54.4413154  21.2391302  26.0849153
  53.0135175  21.9468455  27.5974252  51.9550637  22.1224494  27.6152281
  53.2190574  21.1789677  28.2603164  53.9663704  23.1265417  28.0058062
  54.0894838  23.9631688  27.3869234  53.4415895  23.6497344  29.3097654
  54.1380624  24.2628884  29.8398452  52.5463139  24.1326138  29.1001127
  53.2252873  22.8173543  29.9789962  55.3636906  22.4992358  28.3296967
  55.6484653  22.0873681  27.4332403  56.1038186  23.3535772  28.4951588
  55.3699569  21.6863535  29.0687839  52.6356406  20.0434710  26.0648292
  53.2873777  19.0562592  26.1260768  51.3242661  20.0841410  25.7454613
  50.8075596  20.9470718  25.6142051  50.5922614  18.9032470  25.4744776
  50.7307701  18.2356497  26.2777762  49.1236980  19.4329533  25.5420778
  48.9900912  20.4218072  25.1098324  48.4411309  18.7511987  24.8639115
  48.6173792  19.3750591  27.0090695  48.2928401  18.3454700  27.2487058
  49.4431054  19.6380043  27.6166354  47.4014282  20.2486203  27.2672780
  47.6702862  21.3211706  27.2410270  46.5733036  20.1763688  26.5552036
  46.9826220  19.9879382  28.6219531  47.3682693  19.1794039  29.0953102
  46.1005332  20.6455302  29.3253464  45.3227593  21.5423481  28.7759931
  45.3995826  21.6308345  27.7355942  44.8975352  22.2470967  29.2904497
  45.8671780  20.3716150  30.6365254  46.5254598  19.7617969  31.1886160
  45.1629934  20.9353245  31.1155472  50.9529749  18.1119934  24.2479154
  50.9222444  16.9014920  24.3200211  51.3691429  18.8347374  23.1458652
  51.0556141  19.8572890  23.0891281  52.1009832  18.2908835  22.0171529
  51.7442739  17.2979008  22.0129336  51.6894596  18.9258886  20.6822788
  51.8802199  18.1657886  19.8328359  50.6116184  19.0394573  20.6342652
  52.2616967  20.3062723  20.2014499  51.5668227  21.0358112  20.5963021
  53.1878947  20.4835548  20.6727763  52.6021804  20.4471806  18.7041646
  51.7147958  20.4541839  18.1243342  53.0077702  21.4301620  18.5146966
  53.6258088  19.4285499  18.2319567  54.4812494  19.4158624  18.9711881
  53.1327005  18.4991506  18.3537058  54.1044799  19.6169729  16.8711043
  54.5451603  20.5252776  16.7640983  54.8143009  18.9058420  16.6749320
  53.4094728  19.5430362  16.1890356  53.6441272  18.0892808  22.1528847
  54.2143044  17.5722492  21.1777550  54.2047885  18.5566783  23.2374561
  53.5889644  18.9349782  23.9093329  55.6261566  18.1460329  23.5888615
  56.0689821  17.6452919  22.7848943  56.4574182  19.3939540  23.8798817
  55.8985900  20.0825707  24.5547661  57.4227428  19.1460693  24.2766510
  56.8493645  20.1681577  22.6330462  57.8898848  19.8646047  22.0558954
  56.1680956  21.2434651  22.3122613  56.5790866  21.9234119  21.6803503
  55.3482305  21.5202430  22.7809600  55.6929217  17.2302750  24.7958434
  56.6972415  17.1582499  25.4830216  54.6590631  16.4641020  25.0215835
  53.9478691  16.5277314  24.2954298  54.6115506  15.2639351  25.8537542
  53.7483212  14.6451908  25.7003158  55.5428605  14.7296843  25.7827292
  54.4563167  15.5371736  27.3345053  54.3411942  14.5628842  28.1496684
  54.4391155  16.7872803  27.8126129  54.6468962  17.4259531  27.1126527
  54.5040066  17.1826479  29.1944949  55.0238728  16.4850407  29.8559353
  55.1958533  18.5182280  29.2384708  54.7843585  19.1223462  28.4065596
  54.9831905  19.0559639  30.1457107  56.7395915  18.4375552  28.9054414
  56.8507465  18.0151326  27.9176484  57.1652493  19.3504339  28.9509622
  57.5339097  17.5747147  29.8419430  57.4695282  17.8436397  30.8841465
  57.2321389  16.5467653  29.7140893  59.0092740  17.6316990  29.4182321
  59.0359063  17.0616215  28.4486207  59.2050082  18.7149010  29.1772043
  59.8371170  16.9642906  30.3467186  60.8131275  17.2175600  30.1082754
  59.7184492  17.1676750  31.3003692  59.6992585  15.9677486  30.2953768
  53.0345275  17.3219175  29.6739401  52.1154715  17.7649683  28.9174156
  52.7940769  16.9022856  30.8963055  53.5677410  16.4708784  31.4005715
  51.4922464  16.9136057  31.6798031  50.6403207  16.8031107  30.9661546
  51.5428065  15.7125122  32.5990382  52.4455055  15.6526354  33.2151723
  50.6783257  15.7858917  33.2709799  51.3972380  14.3931740  31.8444193
  50.6011043  14.4489188  31.1133304  52.3144228  14.3883367  31.2122734
  51.3228747  13.3337826  32.9222945  52.1985036  13.4453748  33.6000046
  50.4375390  13.4443929  33.5583578  51.3271421  11.9682975  32.2429129
  50.5273549  11.9852416  31.4332538  52.3996923  11.9022412  31.8842101
  51.0936975  10.8000510  33.0961323  50.3989104  11.0829526  33.7191491
  50.7282239  10.1262856  32.4524973  51.9671209  10.3866805  33.5440936
  51.2822782  18.2231195  32.3844531  52.2560905  18.8589112  32.8439864
  50.0475139  18.8089248  32.3745273  49.2707772  18.2844575  32.0066644
  49.8324292  20.2561385  32.5698936  50.6162178  20.5853937  33.1978788
  49.7909793  21.0337608  31.1748582  48.8456972  20.7201796  30.6084627
  49.8101001  22.5430663  31.4160355  48.8445450  22.9951481  31.6833679
  50.5808754  22.8473824  32.1371670  50.1377531  22.9762542  30.5074813
  50.9150083  20.5175917  30.2982070  50.7215753  19.4946752  30.0644714
  51.0775683  21.0672916  29.3924041  51.8151649  20.7424868  30.8780388
  48.4879501  20.4730460  33.2638817  47.4865244  19.8937214  32.8223008
  48.3328331  21.4625534  34.1434237  49.1613869  21.9520928  34.4332305
  47.0733938  21.8584907  34.8029866  46.1609608  21.3253454  34.4060340
  47.0712997  21.4109276  36.2918001  47.9408924  21.8979263  36.7912420
  45.7200646  21.9066347  36.9120758  44.9182616  21.5940310  36.2525165
  45.4730433  21.5122182  37.8330001  45.6463416  22.9807498  36.9519898
  47.1969678  19.9229846  36.5684854  46.1685172  19.3816091  36.7192201
  47.7179724  19.4349999  35.7271177  48.1315094  19.6060153  37.7399337
  47.7633975  20.0083609  38.6863251  48.2928714  18.4688551  37.9385432
  49.1356223  20.0708890  37.5735827  46.9046979  23.3097181  34.4801866
  47.9048967  23.9823492  34.3249449  45.6602460  23.7148367  34.4147977
  44.8714589  22.9842453  34.5884935  45.2752296  25.0590152  34.0114097
  46.1900770  25.7243465  33.9675551  44.7790392  24.9364963  32.5809752
  43.9577195  24.1585692  32.6088891  44.3564127  25.9785937  32.4699251
  45.7406109  24.6917624  31.3352544  46.6127935  25.3238301  31.4711412
  46.1658772  23.7352555  31.2944596  44.9992761  24.8495730  30.0082073
  44.4492603  23.8763789  29.4781313  44.9756223  26.0583422  29.4356015
  44.3605852  26.3380206  28.6892050  45.4266871  26.8494611  29.9811534
  44.2358967  25.6699481  35.0304013  43.4441326  24.9504543  35.5928098
  44.4141730  26.9982034  35.2740477  45.2809198  27.4307279  34.8265128
  43.7522871  27.7220040  36.3825904  42.8689042  27.1684903  36.5775403
  44.6744745  27.7500184  37.5986376  45.6378189  28.2060148  37.2650014
  44.1906124  28.2679101  38.3525650  45.0166783  26.3932628  38.2806275
  45.5346916  25.7408169  37.5552032  46.1313815  26.7540135  39.2683504
  45.8086951  27.4139921  40.0829767  46.5025962  25.8156718  39.6738976
  46.9688805  27.2976537  38.8129242  43.7530315  25.6830269  38.9671490
  42.8302939  25.7422046  38.4270316  44.0198848  24.6741143  39.2178457
  43.5772061  26.0820950  39.9146754  43.3205740  29.1239339  35.9154746
  44.1177007  29.8624614  35.2987044  42.0508094  29.4626613  36.1048900
  41.4648695  28.7697295  36.6020178  41.4553515  30.7242826  35.6159324
  42.0085120  31.4770041  36.0637038  41.4292375  30.8242742  34.1066084
  41.0912341  31.8218034  33.9738168  42.3849620  30.5206128  33.6661674
  40.5402278  29.9206637  33.7278179  40.9693698  29.1656518  33.3368411
  40.0348675  30.8700460  36.2892171  39.4898371  29.9354322  36.8827481
  39.4103877  32.0104490  36.1262610  39.9581109  32.8139971  35.8275674
  37.9359260  32.2016180  36.3867954  37.7565688  31.9787486  37.4227836
  37.4297262  33.6629463  36.1260445  36.3945098  33.7841115  36.4835155
  37.9632247  34.3751099  36.7841909  37.4411559  34.2371776  34.7149717
  38.4301784  34.1491088  34.3102490  36.7851234  33.6752140  34.1484323
  37.0104364  35.7684816  34.6841333  35.9477050  35.6905912  34.8404862
  37.5186696  36.4014936  35.4176463  37.1206811  36.3566411  33.3234719
  36.2904802  36.2127434  32.6905391  38.0979290  36.9358914  32.7459734
  39.3129773  37.1028369  33.2535230  39.5757494  36.6237993  34.1515273
  39.9715576  37.3279513  32.5183134  38.0158087  37.1165473  31.4697079
  37.1164092  37.2546373  31.0464561  38.8226206  37.5410431  31.0723475
  36.9520987  31.2208109  35.6493086  35.7582356  31.1833833  35.9767428
  37.4713039  30.4671717  34.6974485  38.4261167  30.6452616  34.3618764
  36.6907803  29.3968990  33.9647672  35.6412013  29.6563465  33.9957476
  37.2682775  29.2905521  32.5513683  38.3084052  28.8057755  32.5895913
  36.7187540  28.5724144  31.9782565  37.4552497  30.5447146  31.6947472
  38.1219510  31.2751059  32.2434526  38.0951401  30.3189098  30.8721033
  36.2038580  31.2170171  31.3047529  35.6339536  30.4541246  30.6700879
  35.7267230  31.6416256  32.2174423  36.5386765  32.3753414  30.3499621
  37.2637994  33.0738402  30.7993604  37.0410848  31.9918038  29.4660909
  35.3029239  33.1195142  30.0134767  35.5286246  34.0297166  29.5598314
  34.7024040  32.6069006  29.3814294  34.7305575  33.4078963  30.7985172
  36.7802901  28.0555130  34.6966343  35.9508807  27.1481058  34.5403139
  37.8858101  27.8528750  35.4172237  38.5878952  28.5524892  35.3029450
  38.4183928  26.5601049  35.7517979  37.6126813  25.7699749  35.8473065
  39.3368709  25.9473470  34.6157696  39.7823000  25.0440987  35.0831530
  38.7057289  25.6306495  33.2956269  39.3028217  25.0291090  32.6636845
  37.7306147  25.0992089  33.4656622  38.3907855  26.5213281  32.6759226
  40.4398794  26.8156662  34.3699914  40.6677572  27.2698666  35.1616199
  39.2483058  26.6004633  37.0406659  40.3650983  27.0675210  37.0508122
  38.7502927  25.9569373  38.1422678  37.9416671  25.3979660  37.9780710
  39.2565448  26.0442552  39.5342353  40.3479271  25.8264633  39.5952149
  38.9295746  27.3232840  40.2731033  39.3924602  28.2001743  39.7886385
  37.8240066  27.5812711  40.1819100  39.1665673  27.3175714  41.7259487
  40.4856565  27.5361599  42.1885080  41.2597874  27.7005430  41.4159232
  40.7726112  27.4138610  43.5623302  41.8071654  27.6239151  43.9675414
  39.7331196  27.0212545  44.4283362  39.8994592  26.9329522  45.5045281
  38.3820191  26.9576865  44.0332365  37.6786501  26.6346430  44.7565000
  38.1343760  27.2373610  42.7142791  37.0967669  27.1717369  42.3002772
  38.7737536  24.8296933  40.3561670  39.5724845  24.1129987  40.9773185
  37.4525246  24.6041072  40.3880482  36.8732461  25.1460519  39.7602009
  36.8092683  23.8628781  41.4995683  37.1640357  24.4613451  42.3398746
  35.3161486  24.0287901  41.4213141  34.8857864  23.3744498  40.7012521
  35.0069791  23.5998905  42.4332270  34.7447594  25.4367877  41.2500790
  34.0173971  25.8540316  42.2310810  34.8584258  25.9722558  40.1338076
  37.0988513  22.3724147  41.6506059  36.7046803  21.7361470  42.6770284
  37.7992566  21.7944617  40.6686959  37.8911910  22.3802440  39.8819082
  38.3876481  20.4777497  40.7250069  38.6254611  20.1957996  41.6982031
  37.4447755  19.3912990  39.9963483  37.8663362  18.3971307  40.1322658
  36.4874731  19.3871787  40.4395685  37.3326006  19.6846054  38.6071304
  36.5590579  20.2087345  38.5260736  39.7333966  20.4413334  40.0306158
  40.1258930  19.3584391  39.5763578  40.4160089  21.5701635  39.8728747
  40.1044857  22.4644613  40.2500534  41.7480738  21.7965217  39.2871963
  42.0374586  20.8802114  38.8136987  41.5519883  22.8286136  38.1641353
  41.2438183  23.7746358  38.6139493  42.4322786  23.0416430  37.6635057
  40.5218106  22.3901484  37.0650295  39.5420758  22.2200829  37.5518477
  40.4319436  23.1674572  36.3302640  40.9581118  21.0693216  36.3276130
  42.1205164  20.8923554  35.9848649  40.0702404  20.1861331  36.1168469
  42.9180066  22.1583573  40.1435335  44.0320289  21.6381849  39.9491572
  42.7164944  22.9578353  41.2192010  41.7702971  23.2569983  41.4689383
  43.7805715  23.3474082  42.1666734  44.6733878  23.7461086  41.5263476
  43.2856647  24.4124385  43.0847233  42.6492181  25.1801858  42.6867583
  42.6126589  23.9335873  43.6901938  44.4447285  25.1261908  43.8336447
  45.5328968  25.6076207  43.0705533  45.4920560  25.6073288  42.0017157
  46.6309155  26.2071929  43.6955308  47.4998142  26.4091650  43.2043974
  46.6797332  26.2560791  45.1060612  47.8667943  26.6200542  45.7392897
  47.7701036  26.5943243  46.6881167  45.5392689  25.8683804  45.8662610
  45.5059308  25.9635917  46.9558579  44.4604947  25.2291004  45.2442596
  43.7049418  24.7058788  45.7766080  44.2714188  22.1632828  42.9670553
  45.4478687  22.0969123  43.2324143  43.4191855  21.1826063  43.2481808
  42.4116522  21.3243100  43.0467090  43.7447679  19.8857330  43.9394469
  43.9729369  20.1624705  44.9068332  42.4917098  18.9743396  43.9836465
  41.8056328  19.4772522  44.5134412  41.8900229  18.6182901  42.5398676
  41.8700373  19.5385652  41.9454304  42.4151618  17.8614529  41.8862104
  40.8188191  18.3032012  42.6375241  42.8390709  17.6081393  44.7133731
  41.9047038  17.2290127  45.0633869  43.2969417  16.9514306  44.0051596
  43.5241315  17.7859160  45.5527694  44.9156443  19.1478603  43.2718189
  45.7668346  18.6733595  43.9385445  44.9138919  19.1761966  41.9283481
  44.1336354  19.6525068  41.4126625  45.9099430  18.4970271  41.1394276
  46.0254546  17.4363200  41.4016010  45.4430090  18.6424710  39.6682654
  45.5237658  19.6111635  39.2819988  46.1185838  18.0116064  39.1368664
  44.0339121  18.1196319  39.4775154  44.0317997  17.0866965  39.8741467
  43.2919054  18.7190092  40.0284229  43.6203046  18.0965288  37.9995651
  43.5801285  19.1193410  37.7181351  44.3290421  17.5338166  37.4062729
  42.3325964  17.3242691  37.9720373  42.6824309  16.1962255  38.0405073
  41.7765013  17.5076352  38.8946770  41.5604921  17.4843078  36.6680178
  40.9445726  18.2914073  36.6879315  42.2590580  17.7017990  35.9508994
  41.0257550  16.6367206  36.5764424  47.2253671  19.1437374  41.2643525
  48.2704398  18.4747249  41.3981269  47.2928857  20.4542265  41.2993429
  46.4515014  21.0430839  41.0788977  48.5704128  21.1309988  41.3666621
  49.1046749  20.8313301  40.4902314  48.4424325  22.7143189  41.2593993
  49.4682292  23.0813310  41.1315201  47.4828204  23.1694324  40.2091042
  47.6473687  24.2418707  39.9962860  47.6297475  22.6598087  39.2788675
  46.4814282  22.9120421  40.4259093  47.8185491  23.1412671  42.4298226
  46.8711112  22.8515079  42.5707281  49.3297490  20.8225538  42.6852854
  50.5355838  20.7777258  42.7590023  48.5090723  20.6356931  43.7887012
  47.4995599  20.7861406  43.6285389  49.0084913  20.2552108  45.0364003
  49.9978156  20.6818339  45.1729186  48.0897169  20.7734860  46.1410829
  47.0268133  20.3512531  46.0930796  48.5664925  20.5451195  47.1448696
  47.9849573  22.3005422  46.0862998  48.9496159  22.7550687  45.8508339
  47.3133531  22.4109487  45.3134525  47.4461097  23.0755943  47.2477044
  48.0653878  22.8999535  48.0987344  47.3767437  24.0806044  46.9816791
  46.1101284  22.5986464  47.6276579  45.7201565  21.8073845  47.1584131
  45.3411552  23.1427118  48.6053903  44.2491598  22.5802380  48.9861271
  44.0789627  21.6315853  48.6443172  43.5611821  23.0945969  49.4952648
  45.5492964  24.3107112  49.1471334  46.4299400  24.7743670  48.9107721
  44.9274186  24.8538881  49.7582009  49.3360283  18.7871320  45.2328862
  50.0602927  18.5320428  46.1787515  48.8655017  17.9377426  44.4201401
  48.4972232  18.3527691  43.5730629  48.7597138  16.4442871  44.5677005
  49.5299064  16.1062195  45.2683366  47.3233112  16.0301416  44.9474322
  46.7624196  15.9800206  44.0387197  47.4132874  14.6920855  45.5808398
  47.7764717  13.9484458  44.8870400  47.9946817  14.6580388  46.5097814
  46.4729196  14.4368484  46.0676061  46.6965321  16.9495668  45.8054267
  45.9129727  17.3481256  45.3067089  49.2842489  15.5771684  43.3974772
  49.9750166  14.5779100  43.5570297  49.0825116  15.9193852  42.1381653
  48.4529464  16.6815077  41.9563391  49.3939729  14.9709797  41.0500765
  49.1949076  13.9544796  41.3671329  48.4841227  15.1900460  39.8204106
  48.4861278  16.2079253  39.5142654  48.7418709  14.5344032  39.0043482
  47.0403968  14.7051773  40.0176314  46.6495938  14.3771103  41.1056182
  46.1735055  14.8000514  39.0717571  45.2266537  14.5645963  39.2220188
  46.4793783  15.1846177  38.1341959  50.9185998  15.1315280  40.6661439
  51.6146600  16.0965564  41.0370649  51.4648095  14.0853816  40.0221970
  50.9045032  13.2591790  39.8953727  52.5917186  14.3505321  39.1681693
  53.3534197  14.8486201  39.7296081  53.2606793  13.0885466  38.6850459
  53.6580209  12.5020243  39.4597884  52.6583978  12.4850386  37.9729439
  54.5394709  13.4465370  37.8507668  55.3747804  14.3193536  38.2151986
  54.7237273  12.7222743  36.7999950  52.1967425  15.3077257  38.0775473
  51.2664002  15.0200485  37.3278171  52.9664595  16.3726131  37.8336631
  53.6954401  16.7675678  38.4445897  52.8066892  17.2121625  36.6557881
  52.4317063  16.5676467  35.8648648  51.7030482  18.2779600  36.8972454
  51.7186950  18.8344279  35.9683847  50.7700262  17.7674981  36.9866671
  51.8460782  19.0193768  38.2338438  51.1557747  18.7216333  39.3344033
  50.5581568  17.8271305  39.3730756  51.4813221  19.6128406  40.3080862
  51.1736212  19.5372644  41.2643418  52.3428864  20.5513059  39.8191884
  52.7531093  21.7777102  40.4116570  52.5280148  22.0202176  41.4344107
  53.7013831  22.5174019  39.7310757  54.0803614  23.4517108  40.1581984
  54.1609394  22.0815809  38.4207067  54.8495921  22.6705801  37.8516994
  53.6039789  20.9518386  37.8608569  53.9340778  20.7141143  36.8818528
  52.6994346  20.1611428  38.5522448  54.1702579  17.7443668  36.1533612
  55.1196661  17.6706010  36.8925491  54.2752226  18.3328150  34.9461807
  53.4873326  18.2783794  34.2833819  55.4280047  19.0823781  34.5872017
  56.1589451  18.8797714  35.3196017  56.0001347  18.6313204  33.2477078
  55.2094360  18.9066260  32.5662393  56.9845132  19.1296724  33.0700431
  56.1862168  17.0820730  33.1424793  57.0733336  16.5244362  33.8238146
  55.4619620  16.4976835  32.3330579  55.2443370  20.6248542  34.7023589
  56.1187058  21.3735626  35.1245173  54.0826593  21.1410247  34.2155918
  53.4339688  20.4996151  33.7069067  53.6232170  22.5073882  34.3282419
  54.4174158  22.9489394  34.9789538  53.6725021  23.1947221  32.9246448
  53.1010197  22.5622849  32.2605180  53.1882983  24.1401460  33.0256226
  55.0473850  23.5355662  32.3785614  55.6307393  24.8128819  32.4692316
  55.0476016  25.6680970  32.9396455  56.7586614  25.1523447  31.7674672
  57.1835189  26.1619464  31.6570531  57.6427473  24.0970777  31.2981119
  58.5776431  24.3384002  30.8292623  57.1676209  22.8032583  31.3865611
  57.8608666  21.9952748  31.0680564  55.8292055  22.5629918  31.7982252
  55.5093779  21.5683112  31.8695597  52.2113452  22.7105662  34.9924576
  51.3246962  21.8829840  34.8740964  52.0369432  23.9618626  35.4805414
  52.9565114  24.4634242  35.6238411  50.8889480  24.8094137  35.8065646
  50.0174427  24.2283339  35.5824707  50.9300157  25.2197031  37.2328116
  51.8608042  25.6787392  37.4795585  49.8656874  26.2334931  37.5962647
  48.9027536  25.8894009  37.3600871  49.9980729  26.4918840  38.6071193
  50.0576295  27.1667456  37.0671026  50.7210100  24.0157590  38.1881938
  51.6506645  23.4031240  38.0834813  50.6687783  24.4080223  39.2499985
  49.8780308  23.4367340  37.9582781  50.9121881  26.0153346  34.8219017
  51.9589096  26.6615109  34.7348240  49.8233448  26.1530285  34.0841046
  49.0301952  25.5170003  34.1900245  49.6425438  27.3764754  33.3176402
  50.5006808  27.9793087  33.4286466  49.3425292  27.0618447  31.8290996
  48.2912119  26.7160801  31.6499356  49.4795346  28.3406584  30.9496666
  50.4523447  28.7885744  31.0095018  49.2598278  28.0950902  29.9189130
  48.6714380  29.0565626  31.1341947  50.3401712  26.1321136  31.1990088
  50.4721111  25.2896236  31.8968558  50.0966794  25.7888513  30.2059901
  51.3183318  26.6047766  31.1960542  48.4865302  28.1630424  33.8389872
  47.3801101  27.6237298  33.9739397  48.7367255  29.3933955  34.3822513
  49.6022794  29.8744423  34.1370865  47.8883657  30.1678442  35.3600964
  46.9003494  29.7252593  35.2181243  48.4186548  29.8438125  36.7756260
  48.3281638  28.7224480  36.8569514  49.7732312  30.3042493  37.0291125
  50.5073731  29.8669019  36.3301774  49.8983066  31.3983819  37.0087305
  49.9912603  29.9279025  38.1141087  47.6653356  30.4879626  37.8008281
  47.5345863  31.4129823  37.5623033  47.8310206  31.6188436  35.0409550
  48.8568934  32.2980723  34.7534963  46.6221483  32.1756714  35.0842817
  45.8045779  31.6036492  35.2067335  46.3684880  33.6236376  35.1577459
  47.0010413  34.1709390  34.4544872  44.8428624  33.8474099  34.9629495
  44.6795115  34.9202590  35.0354141  44.1779967  33.3612474  33.6115495
  43.9029572  32.3012432  33.6480968  43.2662368  33.8631953  33.4506052
  44.9159338  33.3900045  32.8704054  44.1401876  33.2361381  36.0000051
  43.1820289  33.4268040  35.8480160  46.8163919  34.2095105  36.5876140
  47.3247074  33.4254395  37.4192369  46.4258142  35.4991436  36.8630759
  45.9177574  36.1053797  36.2223026  46.7196225  36.1018676  38.1523842
  47.7881013  35.8912601  38.3185590  46.7478740  37.6385322  38.1401319
  45.7197289  38.0249634  38.4795434  47.5174635  38.0027546  38.8484387
  47.2605084  38.2976968  36.8647738  47.0704049  39.5125707  36.6703173
  47.8534238  37.7215775  35.9430518  45.9789421  35.5147582  39.3834469
  46.3336128  35.7685983  40.5208829  45.0582276  34.5269679  39.1580863
  44.8640284  34.3638883  38.1944113  44.4786016  33.6882255  40.2269395
  43.9052717  34.3952996  40.7618169  43.5786637  32.5191992  39.5765286
  42.9464280  33.0313748  38.8692441  44.3618308  31.4388610  38.8290256
  44.9274554  30.7109636  39.4363475  43.7435396  30.8305277  38.2641476
  45.0206086  31.9891984  38.0955785  42.6886463  31.8944748  40.5904255
  43.2467690  31.2210482  41.2146921  42.2909999  32.7153368  41.1578300
  41.4284939  31.2410922  40.0459380  41.7405771  30.3863995  39.3719853
  40.8238184  30.8539163  40.8929192  41.0233002  32.0951809  39.4836409
  45.5040265  33.0899919  41.1704472  45.2771890  33.0309505  42.3922285
  46.6726454  32.6594798  40.6728258  46.9147113  32.7505936  39.6541199
  47.7150481  31.9762211  41.5207416  47.4057033  31.9383042  42.5345873
  48.1376698  30.5884331  41.0511061  48.9862413  30.7671024  40.3916389
  48.5384360  30.0807502  41.8873178  47.1752292  29.6716010  40.3894381
  47.2972700  29.9999064  39.4671367  48.9363794  32.9311886  41.6055293
  50.0256582  32.4442371  41.7897607  48.8836113  34.2596699  41.3645352
  47.9745558  34.6253868  41.2032828  49.9987355  35.1987420  41.3737823
  50.8637062  34.7840162  40.8058377  49.6561874  36.5909705  40.7786209
  49.5989097  36.5295962  39.7235824  48.7053894  36.9835459  41.1635750
  50.7847797  37.5786909  41.1249467  50.7207616  37.8925949  42.1405264
  51.7825085  37.2641655  40.9371433  50.5608002  38.7847118  40.2613184
  50.9253512  38.6766112  39.0210229  50.0128088  39.8198945  40.6354920
  50.5079630  35.2845400  42.8803489  51.7667151  35.2712912  43.1207639
  49.5970484  35.2890340  43.8754798  48.5938819  35.2971223  43.6611386
  49.9641796  35.4125404  45.2455661  51.1008406  35.6151428  45.2390039
  49.2084010  36.6540316  45.9579371  48.1296287  36.6269449  45.8668185
  49.4647420  36.6749827  47.0239955  49.7190484  37.9163747  45.2437701
  50.5672847  38.3334605  45.7375730  50.1650872  37.6487403  44.2918791
  48.5257603  39.2786789  45.1168028  47.6811910  38.8282642  43.5786271
  46.8423001  39.5133306  43.3529182  48.5165757  38.7718284  42.8271360
  47.3243140  37.7680041  43.6958785  49.6954090  34.0606343  45.9724625
  48.8762211  33.2246647  45.6082693  50.3455094  33.9893178  47.1277715
  50.9149814  34.7806206  47.4356089  50.0454673  33.0372961  48.1527136
  50.7475437  33.2481253  48.8987105  49.0590280  33.2201681  48.5026335
  50.2540275  31.5402557  47.9384919  50.5184539  30.8307753  48.9053114
  50.1579198  31.0594817  46.7204917  49.7870548  31.6122511  45.9385032
  50.0535077  29.6196481  46.4829210  49.2234868  29.1743405  47.0437988
  49.6042288  29.6055804  45.0122909  50.4894823  29.6245159  44.3856347
  49.1234042  28.7326545  44.6163728  48.9347218  30.4363498  44.7606661
  51.3268578  28.8689742  46.6646768  52.4371529  29.3462129  46.4898486
  51.2774330  27.5648513  46.9453057  50.3741631  27.1799199  46.8838335
  52.1865122  26.7604858  47.6994043  53.1532591  27.3429203  47.6537278
  51.7568639  26.5479520  49.1611400  50.6462767  26.4673026  49.1607552
  52.1695087  25.7294490  49.6310770  52.1478682  27.6769403  50.0947634
  53.3416649  28.0458729  50.3262837  51.1966092  28.3217293  50.7635444
  51.4532904  29.1433502  51.3883273  50.2975692  28.1412308  50.4015712
  52.4658277  25.3948774  46.9460297  52.5267333  24.3289786  47.5281686
  52.6735337  25.4492803  45.6322667  52.4682148  26.3797534  45.2409533
  52.7976010  24.3860510  44.6300501  51.8400207  23.9272274  44.6598281
  53.1039990  25.1426223  43.3671789  54.0969491  25.6078151  43.4471783
  53.2968719  24.2763298  42.6662780  51.9750843  25.9727373  42.8398040
  50.7697591  25.3172650  42.5423883  50.6404315  24.3131113  42.8025630
  49.7380475  25.9885139  41.8088028  48.8547593  25.4629679  41.4600288
  49.9749062  27.3474913  41.4927504  49.2207127  27.9152922  40.9611178
  51.2100347  27.9876942  41.8975413  51.2622971  29.0297972  41.5882773
  52.2271734  27.3134519  42.5516352  53.1496601  27.7226308  42.8431404
  53.9218757  23.2607971  44.8639060  54.0059898  22.3768680  44.0431586
  54.8972205  23.4632286  45.7942280  54.6654869  24.1851353  46.4889049
  56.2190617  22.8147023  45.8580344  56.8358447  23.4886877  46.3985634
  56.1361207  21.4767723  46.6486451  55.6357906  20.7291319  46.0256575
  57.1358145  21.1674301  46.8392651  55.5280147  21.5068742  48.0276747
  56.2883632  21.9716083  48.5957671  54.6233552  22.0845006  47.9576440
  55.1997053  20.0468934  48.4865086  54.6797971  19.4590897  47.7175016
  56.1464120  19.5309568  48.7432715  54.3024754  20.2351631  49.7447653
  54.8589212  20.6290687  50.5660877  53.6327221  21.0044656  49.5548933
  53.6269040  18.9580821  50.0256856  53.0744375  18.5529939  49.2549216
  54.3091529  18.2282563  50.3503014  52.8956908  19.1675351  50.7353846
  56.8641920  22.7500401  44.4448657  57.4128903  21.7244134  43.9907457
  56.7950166  23.9433883  43.7370366  56.3928407  24.7825265  44.2285841
  57.4105088  24.0719751  42.4404993  57.1613167  23.2721052  41.7681669
  56.8731921  25.3126251  41.7665641  57.2558058  25.4595075  40.7804663
  55.7977844  25.2267965  41.5934859  57.1187908  26.2461636  42.3476784
  58.9524448  24.1060507  42.4444211  59.5981346  24.3829557  43.4551112
  59.5926252  24.0329245  41.2699973  59.0321359  23.8587269  40.4702655
  61.0472395  24.0154123  41.0327625  61.5384045  24.1645904  41.9976197
  61.4549474  22.6347076  40.3753670  60.9507161  22.5357200  39.4350717
  62.5500419  22.6654196  40.1753958  61.2457360  21.4380472  41.3149301
  61.8968433  21.6284696  42.1838769  60.2404960  21.4323651  41.6749678
  61.5736050  20.0509361  40.8028487  60.7191544  19.2332787  40.4641895
  62.7798725  19.7457154  40.8481096  61.4748556  25.2380790  40.1786331
  62.5856644  25.7150127  40.2902130  60.5582460  25.8377734  39.4103668
  59.5994258  25.4906733  39.4979264  60.8073081  26.9191644  38.4502604
  61.5218803  27.6345773  38.9493966  61.4651902  26.3326924  37.1817374
  62.3748071  25.6771578  37.4528154  60.7159910  25.6554835  36.7253930
  61.7204672  27.3758197  36.0789768  60.7768403  27.6987084  35.7534292
  62.3158790  28.2173206  36.4288068  62.3693223  26.7805878  34.7962581
  62.4987839  27.5773797  34.1012498  63.2823408  26.2097175  34.9819233
  61.4218223  25.8220815  34.1635961  60.6151645  25.6256326  34.7035025
  61.5398890  25.1498994  33.0794070  62.6602878  25.2108147  32.4376360
  63.4465349  25.5798356  32.9912102  62.8069199  24.7614910  31.5752955
  60.5680426  24.4703322  32.5485635  59.7118633  24.3577533  33.1363839
  60.7357374  23.7721845  31.7842333  59.5292154  27.7382944  38.2473114
  58.4080376  27.1893339  38.2541571  59.6409854  29.0423780  38.0204476
  60.6679702  29.3202935  38.0493015  58.5494163  29.9344760  37.5602804
  57.6721247  29.2512952  37.3909483  58.1147464  30.8836878  38.6664498
  59.0225957  31.4363919  38.9197166  57.0200985  31.8182622  38.1990127
  56.1914891  31.1734124  37.8025701  56.6512450  32.4203635  38.9901508
  57.3647551  32.3598823  37.3496224  57.6980923  30.1321160  39.9182479
  56.6591198  29.6131880  39.9234247  58.4706401  29.4179123  40.2084469
  57.6238437  30.9157741  40.6874373  59.0856971  30.5384189  36.3162764
  60.2796752  30.7601669  36.1367289  58.1563013  30.7867809  35.3736048
  57.2467712  30.5152334  35.6231574  58.3943973  31.4539207  34.0547982
  59.3676939  31.8913624  34.0610556  58.1837941  30.4127301  32.9240334
  57.2115867  29.9685015  32.9507224  58.4173340  31.0816687  31.5060361
  59.4977672  31.2686836  31.3279215  58.0310743  30.4526289  30.7022428
  57.9239846  32.0099336  31.4439176  59.1865498  29.2762412  32.8825183
  60.2277151  29.5276225  32.7528684  59.0268500  28.8002962  33.8083381
  58.8859475  28.1355762  31.9282194  57.8570668  27.9620366  31.9220751
  59.2151149  28.3841707  30.9470932  59.4808062  27.2688674  32.1498286
  57.4058141  32.6614852  34.0600621  56.2764866  32.5057949  34.5766174
  57.7993650  33.8816708  33.6185824  58.7647054  34.0001020  33.4178390
  57.0482943  35.1329873  33.8056808  56.0145720  34.9616742  33.8230156
  57.5168841  35.7781140  35.1215992  57.2988684  34.9894471  35.8411248
  58.5649122  35.9488590  35.0626570  56.7741336  37.0382274  35.5315318
  55.6901465  37.2407785  34.9719264  57.2129407  37.7883481  36.3977922
  57.3209923  36.1444800  32.6336368  58.4708358  36.6253635  32.4681537
  56.2824745  36.5456736  31.9118658  55.0120844  35.8952363  31.8113932
  54.4845221  35.8273936  32.7340143  55.1638343  34.9318878  31.3538871
  54.2368333  36.6765448  30.7948687  53.6839607  37.4976919  31.2105780
  53.5437084  36.0262081  30.2263469  55.3660568  37.1995375  29.8306911
  55.0160933  37.9999553  29.2861369  55.7011810  36.3638705  29.2066154
  56.5056401  37.4552774  30.7851907  57.3530300  37.1610753  30.1751079
  56.7158539  38.8934901  31.1621173  57.0727961  39.7418820  30.3846933
  56.4656265  39.2607955  32.4729045  56.2964895  38.4459788  33.0332228
  56.4198560  40.5971173  33.1339078  56.0430436  40.4726346  34.1301349
  57.9153802  41.0165935  33.3111078  58.4152622  40.8858133  32.3349521
  58.0118794  42.0192783  33.7286692  58.6390653  40.2697368  34.4840964
  58.1256115  40.5045716  35.4426992  58.6124747  39.1711220  34.4254872
  60.0506616  40.9000411  34.5862201  60.6758166  40.4308950  33.7574600
  60.0147787  42.0270912  34.5900950  60.5760975  40.3917532  35.8684340
  59.9035342  39.8369595  36.4783050  61.7131902  40.8493942  36.3461735
  62.3721846  41.7744348  35.7186120  62.0414428  41.9498149  34.7598100
  63.2775256  42.1340098  35.9845524  62.1222968  40.5844229  37.6010373
  61.5460960  40.1143223  38.2359237  62.9553300  41.0931117  37.8672499
  55.6151193  41.6481068  32.4479766  55.9198043  42.8145637  32.6172023
  54.5945848  41.2523135  31.7162030  54.4238688  40.2541666  31.7987376
  53.6081471  42.1158614  30.9179891  53.7616563  43.0825384  31.1975847
  53.9133721  42.1918269  29.3629902  53.9104855  41.1265898  28.9871425
  53.1482016  42.6860615  28.7968489  55.2187171  42.9839214  29.1737692
  55.1596076  43.9433794  29.7054765  56.1079298  42.4881514  29.5998766
  55.6334830  43.2462283  27.7596355  56.1743427  42.3965622  27.3921933
  54.7376274  43.2915087  27.1694598  56.2697599  44.5991170  27.6419612
  55.9516187  45.3522275  27.0100078  57.4394900  44.9678630  28.1354030
  58.0912950  44.1683484  28.9243072  57.7705727  43.2850472  29.2238651
  59.0657637  44.3743551  29.1162506  57.9756722  46.0862341  27.8285280
  57.4740076  46.6975464  27.2011455  58.8899794  46.3487871  28.1781932
  52.1768950  41.8035300  31.2633181  51.8298592  40.7334604  31.7685442
  51.3649896  42.8564440  31.1289204  51.7394609  43.8216098  30.9113852
  49.9005597  42.7806195  31.3123974  49.5165115  41.7457829  31.0458693
  49.5327452  43.1770859  32.7622828  48.5022955  43.4990937  32.9663731
  49.6951712  42.3312864  33.4254882  50.6408822  44.5225865  33.3541259
  50.2434231  45.5272190  32.5014277  49.3420047  43.7928062  30.3109474
  50.0376622  44.6737589  29.7392260  48.0459370  43.8559005  30.1287651
  47.5101200  43.1325648  30.6927055  47.3192920  44.9901707  29.6744572
  47.9368334  45.4688543  28.9462612  46.0315039  44.5397787  28.9964425
  45.5110877  44.0250701  29.7447546  45.3712349  45.3465768  28.6636885
  46.1542121  43.6077786  27.7830136  46.6051202  42.6702107  28.2005277
  45.1461041  43.3519596  27.4319786  47.1682191  44.1230500  26.3454347
  46.3187473  45.6145875  25.8345326  46.3751460  46.4235580  26.6393478
  46.7687364  46.0729660  24.9730194  45.2919064  45.4573957  25.6770828
  46.8990108  45.9289837  30.8004714  46.7468821  45.5464203  31.9447648
  46.6435396  47.2037902  30.4208483  46.8287391  47.4068146  29.4213901
  46.4604906  48.3154022  31.3400488  46.5173526  47.9699628  32.4050729
  47.6063401  49.3458596  31.2161919  48.5039123  48.7843736  31.2978539
  47.5763369  49.7429851  30.1721312  47.6919862  50.4072495  32.3301208
  46.7373594  50.8496093  32.5424903  48.0783615  49.9952260  33.2864032
  48.7079602  51.5395612  32.0627652  49.6573510  51.1389863  31.9710809
  48.4445432  52.0860739  31.1575075  48.9168784  52.4112039  33.3048004
  48.0861704  53.0668873  33.3868112  48.9703151  51.8095275  34.1558959
  50.0420622  53.3144817  33.1802188  50.9772850  52.8318574  33.3742972
  49.9955949  53.7306933  32.2290975  49.9505579  54.1577183  33.6951412
  45.1028370  49.0033217  31.1470913  44.9727854  49.6521532  30.1066433
  44.0492002  48.9900288  31.9877210  43.9447865  48.0940331  33.1127961
  44.8206898  48.3003291  33.8162073  43.9741855  47.0157936  32.7640809
  42.6586753  48.4996237  33.8211686  42.7371345  49.0738247  34.7609969
  42.0873800  47.5900441  34.0121145  41.8267623  49.1453668  32.6583030
  41.1580187  49.9703406  32.9876308  41.3419536  48.3228444  32.1098731
  42.8308482  49.7824385  31.7630923  42.5825136  49.6819760  30.6974657
  43.1375417  51.3097705  32.0460960  43.7171984  51.6828035  33.0675517
  42.7108854  52.2238363  31.1038355  42.2874174  51.7967699  30.2194833
  42.8895392  53.6234757  31.1540092  43.0711588  53.9290303  32.1881733
  43.9259221  54.1467375  30.1021035  43.4406196  54.1476499  29.1141638
  44.4228150  55.6169302  30.1043579  45.0828843  55.9193279  30.8716394
  45.0044623  55.8935677  29.2552849  43.6726933  56.4017152  30.0051711
  45.1592350  53.2759049  30.1191346  45.0157578  52.2466224  29.7232439
  45.9871172  53.7493554  29.6592673  45.5397606  53.3278943  31.1709456
  41.5550982  54.2049135  30.7386440  41.0368771  53.8697342  29.6896844
  40.9857851  55.0581273  31.5787910  41.4535186  55.3269990  32.4471760
  39.7681570  55.7484620  31.2453735  39.2835723  55.2084368  30.5223414
  38.7996345  56.0356772  32.4255709  39.0946997  56.9591571  32.9605062
  37.3798109  56.2619254  31.9594395  36.9814829  55.3813436  31.4648040
  36.7965150  56.4804454  32.8629955  37.3587993  57.0377148  31.1313092
  38.8345700  55.0083647  33.5214003  38.9411360  54.0817419  33.0765332
  39.8069775  55.2293034  34.0006007  37.8408050  55.0390556  34.6505809
  37.7728476  56.0615873  35.0885549  36.8970708  54.8178280  34.2044799
  37.9191371  54.3464272  35.4757069  40.1624393  57.0753978  30.6496926
  40.8284449  57.8810610  31.2798937  39.8516168  57.3353094  29.3716088
  39.3115242  56.6543513  28.9106696  40.3266310  58.5309083  28.6976956
  41.3070271  58.7949581  29.1217489  40.3779288  58.2676801  27.1380742
  39.3512455  57.9816087  26.8157557  40.5570631  59.2065093  26.6234482
  41.4557526  57.3004441  26.7136856  41.2870398  56.3715553  27.3134929
  41.3283720  56.7399845  25.3411679  40.5051220  56.0950683  25.2933219
  41.0667284  57.5385816  24.6505405  42.2196613  56.1721376  25.1864436
  42.8916069  57.7334460  27.0527719  43.5238319  56.9090264  26.8692198
  43.1481875  58.5518855  26.3949059  42.9750328  58.0563103  28.1254670
  39.3682732  59.6964940  28.9896777  38.2069736  59.4678664  29.3729552
  39.7463968  60.9373609  28.7856495  40.7266943  61.0483446  28.4332713
  39.1401956  62.1729120  29.2105309  38.1016781  62.0164533  29.5031563
  39.9641464  62.7896432  30.3877023  40.9393485  63.0116681  30.0087339
  39.3002166  63.9200858  31.1172282  38.3398183  63.6019255  31.4934198
  39.9479358  64.2144192  32.0354414  39.2055135  64.7962240  30.3853001
  40.1849697  61.7999058  31.3769263  41.0175769  61.3241196  31.2434014
  39.0705092  63.1808548  28.0280859  38.0986300  63.9801458  27.9699390
  40.0357021  63.1866615  27.0813210  40.7681337  62.4730769  27.2365259
  40.0566605  64.0433392  25.8921064  40.0436869  65.0267540  26.3000307
  41.3307042  63.7219325  25.0934001  41.4448205  62.6135832  25.0066034
  41.2288720  64.1916136  24.1327968  42.5926542  64.4085493  25.5667540
  42.5439842  65.3637141  26.3743169  43.6750613  64.1553115  24.9660806
  38.8524452  63.9371351  24.9527789  38.8437440  63.0167946  24.1339388
  37.9304953  64.8704283  25.0517813  38.0187461  65.5984212  25.7038236
  36.8089790  64.8187829  24.1205725  36.4614491  65.8342043  23.8017026
  37.2343117  64.3438348  23.2428801  35.7055932  63.9954418  24.7275672
  34.7211567  64.4954716  25.2475062  35.8042607  62.7337766  24.6365424
  36.6132588  62.3585271  24.1681695  34.7889522  61.7544120  25.1518933
  33.9283873  62.2978610  25.5166164  34.3099522  60.8216162  23.9335548
  33.3852471  61.2130666  23.5563914  35.0517771  60.7920571  23.1555319
  34.0283355  59.3657455  24.3614308  34.9455362  58.8254957  24.6480998
  33.2970956  59.3600062  25.1542024  33.4316591  58.5454436  23.1854552
  32.3239687  57.9648613  23.4474349  34.0277663  58.5105370  22.0980673
  35.5241331  60.9176122  26.2959937  36.6905236  60.6445830  26.2103148
  34.7686220  60.4416654  27.2879535  33.7310491  60.5619335  27.2205894
  35.2887817  59.5842295  28.3034902  36.2791649  59.7687602  28.4844972
  34.6098162  59.7763380  29.6203059  34.6626736  60.8553347  29.7324083
  33.6000660  59.4591406  29.4446414  35.1391922  59.0848918  30.8685470
  35.1797855  58.0398773  30.6790372  36.1398911  59.4678698  31.0640080
  34.2008958  59.3112996  32.0375198  33.9193080  60.4819731  32.3783113
  33.6928638  58.3819961  32.6995347  34.9929175  58.1507042  27.8345223
  33.8079761  57.7195483  27.7298963  36.0533114  57.3852854  27.5377027
  36.9342072  57.8199968  27.8379792  36.0264676  55.9446204  27.2195870
  35.0819669  55.5525537  27.6095772  35.9452319  55.6302102  25.6330519
  35.6405733  54.6086166  25.5163823  35.2818294  56.3723775  25.2137197
  37.3114096  55.7997657  24.8681992  37.6298612  56.7923050  25.0785205
  37.9580472  54.9382671  25.0898787  36.8727327  55.6222959  23.3861081
  36.3213542  54.7430240  23.2608530  36.2125208  56.4456609  23.1167845
  38.0942233  55.6345250  22.5295243  38.4417849  56.5627085  22.3050624
  38.6573669  54.5962935  21.9662151  38.2374737  53.3623222  22.0004084
  37.4365687  53.0936986  22.5957187  38.6846987  52.6851589  21.3973515
  39.8333074  54.6650558  21.4465746  40.3274115  55.5275490  21.2878124
  40.1829083  53.7713745  21.1417187  37.1486587  55.0572824  27.8380914
  38.0474121  55.6640978  28.3866663  37.0283760  53.7359315  27.7901402
  36.2346981  53.3443663  27.2724269  38.0846994  52.8488194  28.4039831
  38.7500295  53.4221894  28.9777840  37.5930706  51.8559280  29.4536290
  36.7748304  51.3444481  28.9504994  38.5860780  50.7846848  29.8825639
  39.5079187  51.1972156  30.2893699  38.2033072  50.0103092  30.5480169
  38.8879408  50.1256755  29.0543807  37.1227443  52.5355534  30.7274714
  36.6099344  51.8638224  31.3347991  37.9784510  52.9099072  31.2483101
  36.4321869  53.3006594  30.4566235  38.7772566  52.0940111  27.2999438
  38.1553852  51.3421662  26.5227125  40.0705888  52.0580218  27.3368990
  40.6148057  52.6573610  27.9438816  40.8880713  51.1563691  26.5313667
  40.2427845  50.4382632  26.1134987  41.5881740  51.8934501  25.3228252
  42.0819634  51.0585634  24.8378355  40.7438688  52.4861301  24.1662877
  39.9124891  53.0512390  24.6201830  41.2937848  53.1549708  23.5034145
  40.5131321  51.7002828  23.4341229  42.7511095  52.8633519  25.7709629
  42.0877519  53.7469838  26.0248779  43.1428208  52.4757124  26.7477111
  43.9033853  53.3352717  24.9983759  43.6032995  53.7963856  24.1230503
  44.5014835  54.0289379  25.5506029  44.4943642  52.4522325  24.7777486
  41.8426871  50.4012996  27.4297549  42.2590825  50.8645235  28.4828526
  42.1358119  49.1482980  27.0550877  41.7886342  48.8812322  26.1409617
  43.2593774  48.4281530  27.5463670  43.4892815  48.6777696  28.5795252
  42.9203662  46.9108452  27.4837157  42.4977034  46.7775703  26.4861406
  43.8395516  46.3537065  27.5445899  42.0298489  46.3545474  28.6265183
  41.1733945  47.0029183  28.6226753  41.6427671  44.9894093  28.0982891
  40.9326723  44.6014346  28.8366057  41.0911458  45.1549039  27.1791256
  42.5175582  44.4256275  27.9855053  42.6515070  46.2825529  30.0041739
  41.9734204  45.9456549  30.7044193  43.6530454  45.7314820  30.0730239
  43.1166535  47.2510162  30.3165592  44.3775123  48.8866041  26.5768545
  44.6145908  48.4337682  25.4846489  45.1922845  49.7538915  27.1657090
  45.1380188  49.8532210  28.1976132  46.4898513  50.1438019  26.6296735
  46.4970363  50.4610942  25.6097866  46.7236624  51.3939841  27.5013223
  46.7800113  51.0780937  28.5559317  47.5937469  51.9342246  27.2237903
  45.8631842  52.0487355  27.3835951  47.5688678  49.0481727  26.8185676
  47.4351324  48.1981719  27.7106698  48.6795332  49.0536800  26.0862015
  48.7276942  49.8780933  25.4411200  49.7111055  48.0258128  26.1832394
  50.6838446  48.6031433  26.0743839  49.7830098  47.6382165  27.2450870
  49.6210621  46.9068451  25.1819612  49.1284152  47.1866677  24.0575918
  50.0990002  45.6967584  25.3148368  50.0674933  44.6879967  24.2595856
  50.9037613  45.0113126  23.6321766  49.1423911  44.6946302  23.7549576
  50.3096221  43.4487602  25.0368389  50.7688222  42.7226915  24.4877083
  49.2996938  43.0259884  25.4108691  51.2378876  43.7213550  26.2324203
  52.3381832  43.7376590  25.9480192  51.1180420  42.9886289  26.9943923
  50.6656369  45.1453786  26.5877449  49.8211401  45.0379810  27.2984507
  51.8115509  46.0410433  27.1992213  52.5568267  46.7730571  26.5244943
  52.0559794  46.0652497  28.4816121  51.3240977  45.6847807  29.0291097
  53.0473819  46.8773077  29.2125640  53.8728598  46.9656687  28.5445234
  52.3392826  48.2441271  29.5835167  51.3658431  48.1755508  29.8755204
  52.8849132  48.6712941  30.4360380  52.4045275  49.3010943  28.4676107
  53.3855677  49.4486855  28.0658697  51.8387937  48.9365682  27.6047596
  51.7811930  50.9678760  29.0129891  50.0337142  50.7359985  28.6917998
  49.9594671  50.6721175  27.6341530  49.6982906  49.8500560  29.2072797
  49.3187174  51.4792943  28.9526453  53.5082105  46.2229147  30.4792709
  52.7725634  45.4560006  31.0049628  54.7049603  46.4771044  31.0083321
  55.6462293  47.4809260  30.4674937  55.2744488  48.4984943  30.5453046
  55.7399935  47.3182102  29.3410317  56.9131073  47.2942196  31.2073607
  57.2494081  48.2703675  31.5470969  57.6997880  46.7780225  30.6836189
  56.5346327  46.6001154  32.5338027  56.2932868  47.3216506  33.3892823
  57.2479569  45.8587031  32.8774893  55.1974835  45.9139956  32.2354067
  55.4196244  44.9551451  31.9237462  54.1611940  45.8933804  33.3768420
  53.7130187  46.9656237  33.8194152  54.1975894  44.7706073  34.1285363
  54.8214054  44.0249318  33.8032347  53.7422728  44.5544249  35.5112105
  52.6818803  44.9007749  35.4593318  53.7645001  43.0919005  35.9006698
  53.4150935  42.9590577  36.9601158  52.9755405  42.1167341  35.0620297
  51.9744671  42.5572999  34.9965428  53.4000352  42.1049028  34.1037838
  52.8752327  41.0868650  35.4836751  55.1855130  42.5629484  35.9991160
  55.7724260  43.1148408  36.7153696  55.1645258  41.6169892  36.4533142
  55.7625166  42.5740152  35.1249371  54.5653088  45.4325343  36.5269472
  55.6204710  45.9858072  36.3271009  53.8705491  45.6176182  37.6086371
  52.9683796  45.1960131  37.7204254  54.4073397  46.3957693  38.7303987
  54.7663165  47.3655200  38.3781391  53.2551364  46.7752681  39.7021572
  53.5934527  47.1506275  40.6750742  52.3848335  47.8275951  39.0420916
  51.6742542  48.2187700  39.7626934  53.0640696  48.6815714  38.8832436
  51.9522537  47.4025918  38.1182048  52.7157467  45.4938410  40.1348253
  52.0335340  45.6787791  40.8308980  55.4983136  45.6086003  39.4171752
  55.5507833  44.3834116  39.2536324  56.3952242  46.1868407  40.1711327
  56.3925636  47.1836435  40.2196941  57.3762927  45.4560453  41.0303841
  57.9677018  44.8315425  40.2311178  58.3931662  46.3445101  41.6774498
  57.9759848  46.9133800  42.5453044  59.1510984  45.6695076  42.0812627
  59.0216551  47.2507290  40.6136922  59.9628598  46.9210461  39.6278397
  60.0271705  48.0518211  38.9079175  60.8210740  48.2011325  38.1215662
  59.2817843  49.0295317  39.3422164  59.2834828  49.9415407  38.9281837
  58.5327652  48.5098182  40.3082873  57.8215366  49.0390152  40.8706973
  56.7541983  44.5683775  42.0371330  57.3384541  43.5695914  42.4799925
  55.5191542  44.8954239  42.4192868  55.0967382  45.7241351  42.0847939
  54.6822695  44.0141456  43.2920165  55.2824677  43.6947422  44.2087222
  53.3603112  44.6849434  43.7746633  52.8154370  45.0971844  42.8981264
  52.6488083  43.8631218  44.0488174  53.5342940  45.5883858  44.8121391
  53.0863618  46.4686626  44.6268897  54.3737936  42.6204717  42.7127053
  54.7118669  41.6068592  43.3188052  53.8512064  42.5856982  41.4807866
  53.5507939  43.4788292  41.0509426  53.5301073  41.3586799  40.7352060
  52.9048741  40.7415996  41.3737816  52.7055299  41.6153054  39.4972557
  53.2155032  42.4404458  39.0263012  52.7864112  40.6735769  38.8907465
  51.3802605  42.0317724  39.7225726  50.8786792  41.1958297  39.9895973
  54.8122755  40.6223444  40.4315128  54.9343286  39.4470271  40.7422216
  55.8669885  41.3027732  39.9660448  55.7476178  42.2977702  39.8690874
  57.1319705  40.6918851  39.6410483  56.9712534  40.0022853  38.8223380
  57.9752062  41.8606992  39.0878030  58.3987956  42.3792193  39.9592820
  58.7049223  41.3907022  38.4621720  57.3861801  42.4243715  38.4083927
  57.8277085  39.9873759  40.8218301  58.3458503  38.8985127  40.6137443
  57.7237953  40.4969789  42.0391239  57.2078437  41.3904671  42.1470746
  57.9357200  39.8391269  43.3263841  58.9265124  39.2967988  43.2991445
  57.9734791  40.8795753  44.4542994  57.1703459  41.5620764  44.3270962
  57.9149103  40.3558996  45.3672089  58.8953629  41.5255010  44.3733411
  56.9276971  38.7483389  43.7623535  57.3295958  37.5879929  44.0613312
  55.6342137  39.0344776  43.7295991  55.3030715  39.9340851  43.4401846
  54.6530529  38.0016528  44.0840389  54.8586025  37.6693147  45.1187237
  53.2764813  38.5983664  44.1369530  52.9671933  38.9122758  43.1314214
  52.5712169  37.7102981  44.4298584  53.0506688  39.6784132  45.2076212
  53.6592917  40.5108067  45.1579665  52.0086050  39.9680821  45.0845359
  53.0804512  39.1538097  46.6468630  53.2431758  37.9840056  46.9082205
  53.1176757  40.0111868  47.5869862  53.1152150  39.6129180  48.4878483
  53.1199553  40.9674304  47.3479151  54.7525493  36.6994303  43.2766419
  54.7338854  35.5939684  43.8499055  54.9475603  36.8638977  41.9371883
  54.9894466  37.7984877  41.5215842  55.1534217  35.6560886  41.0075814
  54.2570413  35.0249585  41.1709254  55.2174551  36.0325484  39.5470471
  56.0105451  36.8152596  39.4850094  55.3367883  35.2041809  38.8714979
  53.9099355  36.5926080  39.0483857  53.1274288  35.7818038  39.0027777
  53.5672650  37.2647846  39.7436619  54.1518911  37.3012589  37.6977251
  55.0997938  37.9186848  37.5762267  54.1699045  36.4480942  36.9713117
  52.9752046  38.0569128  37.3212144  52.2746267  38.1141503  38.0663122
  52.5232879  38.1994398  36.1619900  53.1191235  37.9307784  35.0467729
  54.0518087  37.5130054  35.1546621  52.6725138  38.0841570  34.2358787
  51.2948313  38.6111812  36.0997670  50.8215111  38.8809791  36.9531708
  50.7494525  38.7669811  35.2432971  56.4170510  34.8210065  41.3512027
  56.3874479  33.5967169  41.3234072  57.5479037  35.4772389  41.5488472
  57.4474048  36.4837392  41.6852166  58.9095057  34.9419733  41.8575362
  59.2412081  34.2068365  41.0965026  59.8617591  36.1982500  41.9151622
  59.7875580  36.7027613  41.0198411  59.4137919  36.8516529  42.6300052
  61.3065271  35.9952574  42.3472135  61.4203744  35.5497833  43.3793358
  61.8256113  35.2715353  41.6567718  61.9241246  37.4146149  42.4579043
  61.7958714  37.9188755  41.4988560  61.3142069  38.0255980  43.1858602
  63.3177359  37.2398797  42.8269871  63.9336330  36.9064916  42.1130256
  63.7529082  37.2501711  44.0690766  63.0031880  37.3820075  45.1434004
  61.9912151  37.3017261  45.1561591  63.3964533  37.1042660  46.0954404
  64.9886692  36.9377301  44.2865565  65.4728029  36.5715190  43.4931856
  65.2997405  36.8444017  45.2514036  58.7658648  34.2795603  43.2511847
  59.5159413  33.3421001  43.5304472  57.8700092  34.7882296  44.0733138
  57.2509813  35.4935573  43.6665291  57.6626049  34.3944155  45.4332386
  58.6165454  34.4323784  46.0320834  57.1341961  35.2110885  45.8098173
  56.9371910  33.0379851  45.6611155  57.0915744  32.4385932  46.6984552
  56.3568194  32.4238531  44.5390173  56.4640661  32.8697227  43.6069600
  55.7727026  31.0498407  44.5661926  55.2769871  30.9512381  45.5421600
  54.8371504  30.7496702  43.3306342  55.3448316  30.6356149  42.4062835
  54.3809061  29.7558221  43.5842250  53.7412760  31.8399816  43.0304391
  54.1507920  32.7504385  42.6166823  53.1569522  31.4627935  42.1363616
  52.7735892  31.9661206  44.1777032  51.7338200  31.9591394  43.7586189
  52.8112288  31.0392655  44.7773580  53.1767971  33.1889825  44.8775392
  53.3378880  34.0307771  44.3114241  53.4303726  33.2338997  46.1934187
  53.2575523  32.2602992  47.0197616  52.9375631  31.3148773  46.7595368
  53.2705487  32.6220358  48.0096303  53.7560005  34.4273676  46.6183096
  53.7523921  35.2367312  45.9721184  53.9415581  34.5169469  47.6536740
  56.9204993  29.9929476  44.6578987  56.5427310  28.8338336  44.9342894
  58.2259821  30.3533530  44.5456833  58.4366113  31.2263928  44.1150110
  59.4543551  29.4917786  44.7085469  59.0209297  28.5487565  45.1494848
  60.0701333  29.1845079  43.3916354  60.9567591  28.6106244  43.5536712
  59.2108729  28.1396381  42.6572067  58.1746239  28.4555738  42.4057438
  59.6414324  27.8041424  41.6573550  59.0610964  27.2785614  43.3256869
  60.5960000  30.4557424  42.6503150  59.7152867  31.1103125  42.4551558
  61.3316601  30.8935946  43.3081309  61.3502952  30.1836369  41.3743589
  60.7115632  29.8487981  40.5184463  61.8661990  31.1095895  41.0648377
  62.1267542  29.4165082  41.5834534  60.4549819  29.9227526  45.7674350
  60.4717789  31.0600840  46.2655970  61.3853081  29.0707389  46.1248745
  61.5193133  28.3113295  45.4635281  62.4542692  29.3258921  47.1683568
  63.0164670  28.4288215  47.1413247  62.9487084  30.2496795  47.0219771
  61.8520460  29.3154360  48.5456456  62.5638396  29.6014638  49.5479907
  60.5317656  28.9512687  48.7624045  59.9910233  28.8167273  47.9336797
  59.7149195  29.0850570  50.0005200  59.6643945  30.1296266  50.3470259
  58.2611529  28.7100391  49.7172556  58.1798223  27.6593255  49.5888574
  57.6124454  28.9957870  50.5897362  57.5771035  29.4179679  48.5103584
  57.9461079  30.4107686  48.5660306  58.0659604  29.0401752  47.6587348
  56.0696802  29.1541820  48.2705852  55.7475596  29.4866387  47.2692398
  55.9563662  28.0842198  48.2203823  55.2665469  29.6469931  49.3839509
  54.5979601  28.9947685  49.7669196  54.9663007  30.8642492  49.7275122
  54.0156955  31.1673936  50.5800457  53.5146746  30.4238272  50.9880077
  53.8890609  32.1544351  50.8213836  55.5695470  31.8845811  49.2852437
  56.2228013  31.8187870  48.5652460  55.1113180  32.7806800  49.3112613
  60.1630876  28.1543356  51.1097841  60.1177904  28.5927478  52.2591734
  60.5152540  26.9200535  50.7737262  60.5539264  26.6929249  49.7851243
  61.0885041  26.0301844  51.7358332  60.5445105  26.1299027  52.7154650
  60.6829890  24.6170673  51.3448966  59.5920168  24.4791085  51.4061079
  61.0228449  24.6220249  50.3338890  61.4930159  23.4969075  52.0355958
  62.5936978  23.6265429  52.5459273  60.8746948  22.3100450  52.0137479
  61.3688666  21.6002633  52.4982906  60.0179411  22.2343688  51.5289210
  62.6080647  26.3354054  51.8734158  63.4058305  26.3218651  50.8512841
  63.2099867  26.5025019  53.1369478  62.4694047  26.4111886  54.3532659
  62.3039497  25.3644479  54.5553310  61.5603515  26.9786249  54.3419283
  63.3161634  27.1756598  55.4331472  63.1828887  26.7606512  56.3787317
  62.9734132  28.2587464  55.4647326  64.7400952  26.8476977  54.8932810
  65.1737574  25.9340022  55.2668397  65.3296637  27.6143940  55.1670188
  64.6421471  26.7658119  53.3531868  64.8346354  27.8323358  52.9545212
  65.6511035  25.8208098  52.6473348  66.8215274  26.2647696  52.4521746
  65.2689544  24.5774917  52.2309051  64.2648869  24.3694442  52.2471722
  66.1359127  23.6972380  51.5313291  67.1258496  23.8666038  51.9148529
  65.6268239  22.2058024  51.7117337  64.6132326  22.2075566  51.8030772
  65.9634307  21.6103592  50.8648112  66.2293337  21.5550039  52.9576040
  66.0849244  22.1613676  53.8016823  65.6481940  20.6832307  53.1017832
  67.6536167  20.9628168  52.9295032  67.7613268  20.3112035  52.0501231
  68.3769500  21.7602796  52.7796142  67.8911468  20.3272086  54.3242818
  67.5118513  20.9763611  55.0993643  67.3935277  19.3971936  54.4227344
  69.3954709  20.2687911  54.4633145  69.8402012  21.0011722  53.9434776
  69.7540939  20.1567938  55.4227427  69.6875020  19.4506420  53.9097642
  66.3155422  23.9446125  50.0554029  67.3842347  23.6543939  49.4974524
  65.4453765  24.6959278  49.3166520  64.5578730  24.7953988  49.8265208
  65.3640927  24.9736161  47.8455459  65.5273142  24.0127846  47.4541044
  63.8616943  25.3593399  47.6170285  63.5822644  26.2460737  48.1831171
  63.9511027  25.5845803  46.5840130  62.8284195  24.1892015  47.6829437
  62.7568232  23.4242994  48.6245884  61.9643195  24.1117755  46.6639135
  61.1880024  23.5192575  46.7913388  62.1915602  24.5022766  45.7437153
  66.4229717  25.7849483  47.1044155  66.1514444  26.6770942  46.2895293
  67.7466915  25.4772983  47.4412295  67.8733935  24.7626444  48.1236014
  68.9383142  26.2549185  47.0662236  68.8621151  27.1899364  47.4738244
  70.1665893  25.5981756  47.7182145  70.0954038  24.5623672  47.6021298
  70.9920552  25.9390609  47.0871043  70.2811611  26.0505945  49.2238946
  70.4235683  27.1239995  49.1724665  69.3078834  26.0002797  49.7874367
  71.4115141  25.2472831  49.9249425  72.1984106  25.9985222  50.4763043
  71.5221002  23.9789284  49.8983488  69.1911736  26.4681964  45.5549545
  70.1393358  27.1307786  45.1913498  68.4199392  25.8329630  44.6881793
  67.7293695  25.1728237  45.0580003  68.5490097  25.7477101  43.2109718
  69.3108991  26.3983069  42.8015463  68.9132707  24.3441018  42.7323966
  68.0230441  23.7987197  42.8693567  69.1570182  24.3204227  41.6873081
  70.1032844  23.7183584  43.5189535  71.1306357  24.3837475  43.6246303
  70.0957866  22.4932304  43.8662349  70.9185900  22.2069665  44.4669760
  69.3681593  21.8876997  43.5077530  67.2739161  26.1983846  42.3976054
  67.2927611  26.0385041  41.1948687  66.1651551  26.6726398  43.0346203
  66.1655276  26.6934011  44.0336580  64.9721630  27.2061360  42.3358100
  64.6105213  26.4329030  41.7193199  63.8789396  27.5044958  43.3760892
  64.2766333  28.1439865  44.1544047  63.1288707  27.9186841  42.7189124
  63.2877507  26.2520201  43.9707067  63.6209695  25.0970533  43.4588880
  62.3445850  26.4216193  44.8015803  65.2044777  28.3995736  41.3719918
  65.9735486  29.2998275  41.6701417  64.3802811  28.4509292  40.3472410
  63.6276813  27.8070764  40.3063967  64.5739238  29.2604097  39.1315805
  65.3962220  29.9413525  39.2727990  64.7882690  28.2906373  37.9012044
  63.8539263  27.7853688  37.7691497  64.9209862  28.9500324  37.0391229
  65.9062408  27.2519101  38.1350918  66.7392675  27.8469368  38.6458359
  65.5948928  26.4584592  38.7745760  66.4470605  26.6330249  36.8832124
  66.3216115  27.1412709  35.7701139  67.0441109  25.4543192  36.8566278
  67.3073939  24.8466758  36.0783391  67.2421577  25.0721205  37.7300108
  63.3440254  30.1738388  38.7844979  62.3051493  29.7268946  38.3101582
  63.5701773  31.4807419  39.0861897  64.5270759  31.7486428  39.3133587
  62.6124816  32.5517056  38.5577584  61.5883251  31.9837456  38.4233933
  62.4552530  33.6569608  39.5989106  61.8729870  33.2903751  40.4782572
  63.4094304  34.0132182  39.9810989  61.6972742  34.8461762  39.0899579
  60.4442826  34.6609011  38.4877478  60.0040444  33.6343051  38.5641159
  59.6562086  35.7494975  38.0628135  58.6761454  35.5304896  37.7145584
  60.2047968  37.0117078  38.1542624  59.5999547  38.0772915  37.6700964
  58.7500738  37.9175573  37.1074456  61.5233697  37.1788142  38.6534143
  61.9047927  38.1713830  38.6032910  62.2898743  36.0791329  39.0063882
  63.2887975  36.2682786  39.4639580  63.0587597  33.0587223  37.2206971
  64.0872471  33.7752165  37.1110509  62.3113964  32.6878837  36.1484214
  61.5359400  32.0515233  36.2125893  62.7477721  33.0565234  34.8043666
  63.7477746  33.4492908  34.7698531  62.6878687  31.8658789  33.8365289
  61.6426910  31.7033969  33.6871035  63.3218300  32.2870998  32.5147053
  63.8126350  31.4632404  32.0411851  62.5433122  32.5210113  31.7955418
  63.9553026  33.1916349  32.6340272  63.2585541  30.6034371  34.3312282
  62.6196220  30.2587750  35.1881939  63.2199956  29.8278406  33.5490857
  64.7090128  30.6671236  34.8654550  64.7337008  31.4321303  35.6226794
  65.0393403  29.7360439  35.2031605  65.3430369  30.9791484  34.0333948
  61.9312488  34.2494605  34.3825286  60.6933246  34.2083373  34.4133406
  62.5140013  35.2214815  33.7763150  63.5330147  35.1700223  33.6598904
  61.8412319  36.3632914  33.2023240  60.8771323  35.9827794  32.9526836
  61.7646603  37.4907367  34.2836238  61.0203097  38.2658927  33.9696563
  61.3320265  37.1511297  35.2237268  63.1086429  38.1444749  34.5839958
  64.0002402  37.5315876  35.4325268  63.7550923  36.6334855  35.9516146
  65.3020852  37.9357596  35.5456894  65.9491951  37.4227816  36.1904609
  65.7336732  39.0896568  34.8718586  66.9561771  39.7102889  35.2207888
  67.5447053  39.2052337  35.7858366  64.8893626  39.7013653  33.9696593
  65.2640158  40.6168544  33.4958122  63.5952737  39.1613338  33.7683363
  62.8930673  39.5875416  33.0741643  62.3670242  36.9055004  31.8632843
  63.4389451  36.4524405  31.3695547  61.6301306  37.8997756  31.3068158
  60.7290478  38.1523461  31.7035355  61.9744496  38.6102293  30.0980802
  63.0107530  38.5705203  29.7694621  61.1650317  38.0136433  28.9060330
  61.5664107  37.0047599  28.8190561  60.1036387  37.8647947  29.1143690
  61.2885382  38.7405091  27.6164663  60.9338729  39.7258535  27.6993757
  62.3593515  38.7062305  27.3838280  60.5487166  37.9207325  26.2327632
  58.7996839  37.7493020  26.7510293  58.6981423  37.1051993  27.5893680
  58.4684681  38.7935197  27.0523009  58.2093531  37.3254134  25.9434282
  61.5380832  40.0987095  30.2981262  60.3450281  40.3211661  30.4823126
  62.5454846  41.0038048  30.3124832  63.4363389  40.6715429  30.1036899
  62.2814645  42.4838694  30.3813958  63.1791241  43.0475550  30.0243206
  61.4135623  42.6881318  29.7217642  62.0199095  43.0080588  31.8095418
  61.9298517  42.3227695  32.8095133  62.1725639  44.3434911  32.0408862
  62.1436690  44.8280281  31.1570918  62.0486224  45.1528004  33.2488472
  62.5280400  44.5956992  34.0206759  62.7508861  46.4988213  33.0150878
  62.6930696  47.0228806  33.9611939  63.7748458  46.4406824  32.7915045
  62.2123610  47.4768004  31.9847125  62.4138204  47.0949899  31.0240362
  61.1359042  47.5557809  31.9396023  62.8371340  48.8313098  32.0815377
  63.2880036  49.2828517  31.0267170  63.1375239  49.4279935  33.1597337
  60.5757669  45.2905842  33.6309698  59.6642801  45.2754535  32.8149405
  60.2047521  45.2663148  34.9767988  61.0306048  44.8558455  36.0843907
  61.6029317  45.7384350  36.3770764  61.5994061  44.0379039  35.7659791
  60.1276990  44.4816930  37.1587984  60.4349306  44.7688045  38.1266058
  60.2049967  43.3838985  37.3449182  58.7595149  45.0033255  36.8385882
  58.3263909  45.6885407  37.6349367  58.1509094  44.0691957  36.6705129
  58.8951804  45.7253974  35.4909119  58.1260682  45.3502389  34.8244085
  58.7981359  47.2086503  35.6488949  59.7602612  47.8617376  35.5533290
  57.6191209  47.7740369  35.9490088  56.7730411  47.2639763  36.0323137
  57.5802369  49.2219666  36.0611332  58.5485116  49.5622405  36.5152501
  57.4271520  49.8122946  34.6103333  58.1184066  49.1627923  33.9588588
  56.4794815  49.6166592  34.2295818  57.7291826  51.3131240  34.5951959
  56.9919392  51.7396997  35.2985570  59.0535492  51.8470130  35.1269955
  59.0791691  52.9017896  35.1266107  59.3909435  51.4197009  36.0216478
  59.8124730  51.5165468  34.4601817  57.4155931  51.8513949  33.2274126
  56.5231025  51.4793263  32.8269211  57.3765841  52.9076560  33.2894055
  58.2661561  51.6486770  32.5836650  56.4830750  49.8342338  36.8931288
  55.4336824  49.2622879  36.9976717  56.8891722  50.8377595  37.7213262
  57.7801287  51.1671781  37.5330577  56.0227607  51.5305068  38.6572856
  55.2656074  50.8997573  39.1052994  56.8753279  51.9647983  39.8419578
  56.2050311  52.2671605  40.6461100  57.3633465  51.1406827  40.2501013
  57.8063502  53.0846775  39.5850325  57.1894766  53.9593603  39.3848442
  58.3654449  53.4056579  40.4387670  58.8763541  52.8696807  38.5432546
  59.2893564  53.8658170  37.8443599  59.4550181  51.7366223  38.4671229
  55.2435703  52.6817889  38.1012191  54.7257465  53.4852776  38.8350578
  55.0386661  52.8681730  36.7794273  55.5219456  52.1609341  36.1327058
  54.0163908  53.8173131  36.1981456  54.0795775  54.8597478  36.5530701
  54.3739325  53.8477788  34.7094568  55.4659424  54.0122199  34.5745233
  54.2679400  52.8521763  34.2469577  53.6013729  54.9079801  33.9828449
  52.6700514  54.6998860  33.1875379  53.9232117  56.1562263  34.1778239
  53.3731080  56.9028668  33.7107431  54.6874592  56.3339528  34.7821602
  52.5914207  53.2822277  36.3406488  52.1107084  52.5962513  35.5017286
  51.9680773  53.5647364  37.4491053  52.6043633  53.9523504  38.1617567
  50.6331613  53.1335936  37.8219703  50.2818635  52.4056223  37.0685914
  50.7172510  52.1969883  38.9937134  49.8520162  51.5444422  39.0325150
  51.4553880  51.4739414  38.8712216  50.8662186  52.9793712  40.3006352
  51.5348010  54.0851917  40.3788283  50.4123775  52.5194819  41.3864238
  49.5149046  54.1454597  37.9239071  48.3815343  53.6885277  38.0241136
  49.7563947  55.4509287  37.8195681  50.6449713  55.7607890  37.5857368
  48.7973106  56.3770585  38.3923764  48.4013756  55.9516314  39.3621233
  49.5159132  57.6872648  38.8880179  49.7751671  58.2468673  38.0508127
  48.8201751  58.2670700  39.4139060  50.7550834  57.4291262  39.8091849
  50.7785636  58.3768566  40.3484026  50.5442528  56.6929248  40.5468375
  52.0857089  57.0922484  39.0599942  53.1691175  57.1296197  39.7078946
  52.1417975  56.8045653  37.8407613  47.6127946  56.6798597  37.5302692
  46.5088653  56.9824334  37.9629906  47.8159602  56.6465075  36.2252663
  48.7261090  56.3804356  35.8622103  46.7535119  56.9902676  35.2207685
  46.1746375  57.7475949  35.6999229  47.3059212  57.5303719  33.8462938
  46.4551695  57.7223415  33.2232558  47.8680916  58.4557772  33.9798470
  48.3866428  56.6889360  33.1690914  48.6854329  55.5742638  33.6669272
  48.9742399  57.1332287  32.1365163  45.9183451  55.7480553  34.9548404
  45.0858303  55.7589928  34.0454504  46.0993462  54.6272329  35.7086254
  46.7304715  54.6733043  36.5352055  45.4079516  53.3545746  35.5929658
  45.3753619  53.1054122  34.4944204  46.2354891  52.2533890  36.1505648
  47.2380699  52.4690691  35.8141822  46.1266402  52.2753772  37.2251074
  45.7145790  50.5717511  35.6063472  44.8390070  50.3820309  36.6932127
  44.0054697  53.5573735  36.1948532  43.6824462  54.2010984  37.1691305
  43.1112903  52.8911506  35.5384486  43.4313540  52.3892895  34.7668324
  41.6563537  52.9220619  35.7898961  41.3751428  53.9674130  35.6987114
  41.0721912  52.1842679  34.5962967  41.3659210  51.2001697  34.6579838
  40.0289920  52.1102384  34.6220715  41.3321822  52.6985452  33.7329432
  41.1128890  52.3963513  37.1494974  39.9917422  52.7872666  37.5059310
  41.8922797  51.6951342  37.9823305  42.8576534  51.6911952  37.8501044
  41.4182001  50.9362445  39.2287063  40.4424358  50.6008620  39.0554788
  42.3342138  49.7299679  39.4223938  42.0084247  49.1876365  40.3362135
  42.2168688  49.0515675  38.6238900  43.8431604  49.7705618  39.4076301
  44.6601544  49.5514282  38.3085008  45.8952080  49.5695038  38.7806214
  46.7590215  49.1681568  38.2583517  45.8851912  49.7732347  40.1137474
  46.7640356  49.9283892  40.6995075  44.5861633  50.0694782  40.5078618
  44.2503983  50.3118570  41.5096789  41.3570307  51.8285976  40.4605470
  40.4583704  51.6926343  41.3150328  42.0865352  52.9684721  40.3949861
  42.8183504  53.1245379  39.7083601  41.9537475  54.1327978  41.2809526
  41.9153099  53.7365948  42.3313321  43.1676393  55.0679891  41.2057834
  43.0421082  55.7185383  40.3349205  43.2641810  55.6818007  42.0233310
  44.5115460  54.3383346  40.9967907  45.3848002  54.5841998  40.0140603
  45.3290759  55.3444369  39.2619354  46.4977110  53.7165146  40.1566026
  47.2084527  53.5693704  39.4548271  46.3396128  53.0205730  41.3760364
  47.1667151  52.1126887  42.0807245  48.0784844  51.7069031  41.6097226
  46.7352861  51.6784702  43.3556511  47.2319824  50.8979336  43.8284811
  45.5038281  52.1253382  43.8718727  45.2207415  51.7548762  44.8734093
  44.7022044  53.0112928  43.1515930  43.9011645  53.5161298  43.6166028
  45.1447317  53.4569745  41.9203948  40.5982028  54.8370322  41.1579071
  39.9577245  55.2111759  42.1774021  40.1708214  54.9644249  39.8910594
  40.6622366  54.4526461  39.2271731  38.8343037  55.4080627  39.5664857
  38.6590315  56.3717504  40.1039866  38.7130872  55.9707616  38.1106441
  38.9481791  55.1563605  37.3523177  37.6543973  56.2370565  38.0114933
  39.6624180  57.1350235  37.7782346  39.6408356  57.9208452  38.5709348
  40.6281897  56.7305159  37.7538057  39.3436024  57.8630742  36.4701149
  39.3467277  57.1044499  35.7082603  38.3293143  58.1651061  36.4000199
  40.1411581  59.1382727  36.2365498  39.7695285  59.6649739  35.2945532
  40.0205809  59.7470247  37.1317589  41.5901414  58.9151934  36.0504427
  41.8710293  58.1869387  35.3889477  42.0928833  59.7355524  35.8206728
  42.0488491  58.6948782  36.9307082  37.6892299  54.5414049  40.0369433
  36.8271341  54.8814801  40.8743689  37.6230446  53.3038121  39.4896762
  38.4054003  53.0455635  38.9202650  36.5839902  52.2952702  39.8254885
  35.6685948  52.6522477  39.4830224  36.8542760  50.9073154  39.0997382
  37.8540943  50.6525259  39.3568010  36.0664387  50.2442154  39.3572352
  36.7527879  51.0813862  37.6161193  35.9271348  51.7651549  37.4095628
  37.6136293  51.6084962  37.2568918  36.6444456  49.8300264  36.7766351
  37.4285606  48.8293719  36.9787581  35.8901073  49.8043963  35.8161098
  36.4222828  52.0213648  41.3628561  35.3216521  51.7763776  41.8233332
  37.5632590  52.0093624  42.1390617  38.5040970  52.0925351  41.7287229
  37.6026650  51.8854193  43.5737575  37.1825252  50.9414183  43.8995376
  38.9813547  51.9350268  44.0492049  39.0007486  51.8402276  45.1615254
  39.4031717  50.9586959  43.7142523  39.6067796  52.8277146  43.7673425
  36.7027405  52.9994319  44.2118774  35.7614180  52.6637705  44.8378576
  36.8354827  54.2345644  43.7179141  37.4794314  54.3490882  42.9349297
  35.9651002  55.4107819  44.2384754  35.8142647  55.2667859  45.2698380
  36.6585838  56.7454321  43.9015274  37.2304323  56.6213112  42.8888640
  35.9835476  57.6064943  43.8003588  37.7176450  57.1711555  44.9271015
  38.2037663  56.2660965  45.3238939  38.4516737  57.8592001  44.5006701
  37.0099656  57.9140321  46.1420670  37.6623687  58.6862200  46.5625712
  36.0538151  58.3522439  45.8033947  36.6842676  56.8921665  47.2409841
  36.2310374  55.9904952  46.8508521  37.6365976  56.4974215  47.6864241
  35.7958416  57.4945280  48.2480598  34.8732449  57.8229515  47.8794054
  35.6667571  56.8838605  49.0572815  36.2233622  58.3216143  48.5210728
  34.5375490  55.2955233  43.7282530  33.6896001  55.3857372  44.5056043
  34.2898153  55.0689899  42.4124036  35.0309425  54.9353420  41.7034787
  32.9522530  54.7406991  41.9422970  32.3615892  55.6619907  41.8756014
  33.0856872  54.0480694  40.4850518  33.7191801  53.1648629  40.5993698
  32.0976989  53.7360136  40.1599230  33.6651222  55.0020170  39.3989741
  32.9796505  55.8362502  39.2926600  34.5942063  55.4332981  39.7120262
  33.9881549  54.2207626  37.8520752  34.3708428  55.7276612  36.8793349
  34.9971686  55.4668185  36.0940155  33.5849039  56.3691358  36.5427535
  35.0235836  56.3554888  37.4321171  32.2612440  53.7921946  42.9186475
  31.2364339  54.1214781  43.4502719  32.8878804  52.6462275  43.2561851
  33.8135833  52.5594490  42.7998513  32.3707441  51.6530372  44.2902745
  31.3695409  51.3731070  43.9767219  33.3612696  50.3955901  44.3131899
  34.3831202  50.6264817  44.4910734  33.0696284  49.7372512  45.2096183
  33.3849674  49.4908645  43.0827607  33.6112944  50.0823246  42.1975714
  34.4058605  48.3192764  43.2848132  34.4091893  47.8144535  42.3522535
  35.3505879  48.7965310  43.4989093  34.1312564  47.7055022  44.1633315
  32.0895578  48.7392275  42.7034799  31.8805100  47.9917700  43.4218567
  31.1983855  49.3865964  42.6487652  32.3137330  48.1968313  41.7258692
  32.1805959  52.1716583  45.7105285  31.1362567  52.0362408  46.3231952
  33.2429767  52.8490445  46.2366437  34.0996649  52.8605436  45.7034324
  33.3963800  53.3862263  47.6478527  32.8712537  52.6787128  48.3223560
  34.8760961  53.4398123  47.9047306  35.2967208  52.5151247  47.5147221
  35.2694288  54.2495623  47.2856426  35.2548821  53.6181750  49.3658528
  34.9607872  54.5628204  49.7291758  34.6992093  52.5637387  50.1904553
  34.8922637  51.6337747  49.7173855  35.2255230  52.4693152  51.1179930
  33.6502815  52.5433001  50.4295907  36.8562469  53.6186210  49.4724487
  37.3957591  54.1611845  48.7227176  37.2403116  54.0655004  50.4058377
  37.1535975  52.5360998  49.4223819  32.4935549  54.6844206  47.9037830
  32.0016684  54.8885631  49.0181102  32.1630596  55.3895907  46.8079070
  32.4996220  55.0370014  45.9328917  31.2605986  56.5051090  46.8507737
  31.4442130  57.0500093  47.7914524  31.5480113  57.4322590  45.7050801
  31.5018435  56.9369550  44.6556704  30.6499714  58.0649858  45.6921967
  32.8017825  58.2730339  45.8360306  33.4461300  58.3701467  46.9159443
  33.0519795  59.0627194  44.9244644  29.7838636  56.0760800  46.9764152
  28.9570738  56.9226130  47.2926361  29.5329105  54.7754838  46.7614657
  30.4158952  54.2734197  46.6450501  28.3098760  54.0494094  46.9854520
  27.4333962  54.6739524  47.2087385  28.0159356  53.2930005  45.7208150
  28.9070481  52.5750820  45.5390125  27.1476266  52.6678105  45.9578855
  27.5802240  54.1915786  44.5817447  26.4039130  54.5040903  44.4630010
  28.5167179  54.5936626  43.7487909  28.1658904  54.9421625  42.8708515
  29.4744722  54.4666993  43.9879980  28.3731231  53.2029180  48.2431882
  27.5810333  52.2784799  48.3782639  29.2625033  53.4215789  49.2221889
  30.0533352  54.0222545  48.9963385  29.2948479  52.8022779  50.5230814
  28.5787603  52.0168590  50.6647130  30.6450787  52.0613944  50.6774283
  31.4887430  52.8155279  50.5846438  30.8341014  51.5227890  52.1035388
  29.9358847  51.0937460  52.5434410  31.6877156  50.8587735  52.1322304
  31.1047594  52.3067389  52.7564347  30.7105451  50.9435777  49.5983855
  29.8730337  50.2332700  49.7330098  30.6559238  51.4084090  48.6098862
  32.0369960  50.0989403  49.3693260  31.9330178  49.4431245  48.5198982
  32.9251386  50.7192896  49.2099173  32.2237061  49.5143227  50.2090937
  29.0096532  53.8911710  51.6202355  29.3805872  55.0702375  51.4241191
  28.2874547  53.5796034  52.6383291  27.9086471  52.6704942  52.7033617
  28.3587270  54.3946142  53.8470605  29.0875260  55.1691721  53.6204552
  26.9808945  55.0199746  54.0717914  26.2323244  54.2210152  54.1114520
  27.0864202  55.5007428  55.0338357  26.5119296  55.9745394  52.9584385
  25.4975813  55.7871271  52.2856014  27.2387617  56.9885528  52.6694374
  26.8234489  57.6963532  52.0088578  28.0015177  57.2349846  53.2810354
  28.8389238  53.5104913  54.9456276  28.6303541  52.2471493  54.9271035
  29.4859587  54.0272291  56.0233353  29.5519290  55.0749586  56.0362725
  29.4284001  53.3933244  57.3553184  29.7799851  52.3966315  57.2762236
  30.3540800  54.0897423  58.4244836  30.3484399  53.3909211  59.2555002
  31.7740950  54.5087059  57.8405012  31.7463526  55.2980022  57.0728261
  32.4669993  54.9189554  58.6271103  32.2544995  53.5830411  57.4301530
  29.7278634  55.3488749  58.7593536  29.4038916  55.1655071  59.6838641
  27.9124364  53.3451244  57.7719947  27.0390838  54.0538374  57.1981711
  27.5297786  52.5764583  58.7823845  28.3531266  51.6714432  59.6475669
  28.7976876  52.2113472  60.4839383  29.1745406  51.2229995  59.1315817
  27.4066651  50.7253188  60.3138674  27.6810957  50.1717652  61.2271872
  27.1806586  50.0686640  59.5436902  26.1391630  51.5932601  60.5601781
  26.1945293  52.0649778  61.5460022  25.2996294  50.9340588  60.5604065
  26.1669878  52.5107103  59.2862561  25.5180355  52.0808747  58.4851918
  25.6702347  53.8950899  59.7395347  24.5503533  54.2868940  59.4084789
  26.5922820  54.7135703  60.2925644  27.4989360  54.3143639  60.5677373
  26.5337163  56.1846309  60.4285926  25.5189037  56.3820487  60.9461621
  27.5995665  56.6981625  61.4434378  28.5226126  56.8303010  60.9887630
  27.3137971  57.6827211  61.7612695  27.9296894  55.8369558  62.6608396
  28.2808645  56.4044236  63.4679473  27.0337869  55.2954498  63.0756121
  28.9300238  54.7250264  62.2855273  29.1763242  54.5324171  61.0840741
  29.3184673  53.9299869  63.2099734  26.5431094  57.0406131  59.1525168
  26.8094930  58.2741166  59.2792807  26.3320549  56.5655998  57.9269476
  26.1051351  55.5473286  57.8871234  26.1629674  57.4632674  56.7634602
  25.7833976  56.8096749  55.9610153  25.5036782  58.3591837  57.0352370
  27.4754135  58.0397378  56.1956945  27.5342921  58.6467178  55.1691583
  28.6848284  57.9741314  56.8695400  28.6755983  57.3860968  57.6882839
  30.0365616  58.4496510  56.4596489  29.8998964  59.4841272  56.0868381
  31.0661786  58.4819036  57.6051481  31.1696352  57.4101225  57.8652897
  32.5163255  58.9252856  57.1533472  32.4485957  59.9375336  56.6848628
  33.2352832  58.9818052  58.0072241  32.9835673  58.2456346  56.4405112
  30.5524948  59.1962479  58.8358375  30.2484274  60.2102025  58.5438737
  29.6728641  58.6949276  59.1881449  31.4942839  59.2575925  60.0223567
  31.8856349  58.2289452  60.1285264  32.3338317  59.8551057  59.7875319
  30.9751476  59.5519637  60.9135995  30.4497659  57.7405501  55.2550182
  30.4802133  56.5214898  55.2944051  30.8681722  58.4854750  54.2443860
  30.9368772  59.4552787  54.3947118  31.4470542  58.0684756  52.9669525
  30.9724415  57.1263486  52.5918070  31.1519264  59.1039882  51.7450542
  31.5256339  60.0362132  52.1167377  31.8936763  58.7638446  50.4694447
  31.5270026  57.8186851  50.0209261  31.6922949  59.4746487  49.7955743
  32.9441619  58.8149945  50.5745339  29.6544990  59.0755948  51.5540231
  29.4204448  58.1715389  51.0251164  28.9833886  59.0778403  52.4926020
  29.1712364  60.2241564  50.6519473  28.2390669  60.5057256  51.0978861
  29.8019313  61.1074688  50.5642575  29.1128146  59.8505151  49.6414789
  33.0014021  57.7801682  53.0559017  33.7841478  58.7045884  53.4474836
  33.5134389  56.4944105  52.8975034  32.7731793  55.3464135  52.6354599
  32.7216592  55.2373518  51.5806856  31.8078153  55.3457238  52.9572228
  33.6708118  54.2188100  53.2523002  33.6073698  53.2414686  52.7519950
  33.4189757  54.0636459  54.3318506  35.0344439  54.7228948  53.0339283
  35.2049984  54.5245956  52.0114424  35.7487955  54.2802491  53.6415861
  34.8817575  56.2262224  53.1752784  35.0931220  56.3796807  54.1975645
  35.8593225  56.9530680  52.2007705  35.8515606  56.7791564  50.9745229
  36.9373873  57.5561482  52.7130727  36.8850280  57.7736423  53.6996724
  38.2298817  57.8448441  52.0066717  38.0303108  58.1723936  51.0316600
  38.9867524  59.0141647  52.7480005  39.7328063  59.5033035  52.0935816
  38.3051345  59.8508889  53.0655625  39.6185252  58.5213018  53.9182339
  38.9025711  58.1773442  54.5527302  39.0674032  56.6228792  51.9397954
  39.0214582  55.7450514  52.7961506  39.9326422  56.5475195  50.8988373
  39.9678298  57.3422922  50.3434557  40.8265117  55.4165241  50.5233956
  40.1783363  54.5513410  50.4548174  41.4855509  55.7044364  49.1201625
  42.0824521  56.6077181  49.3604630  42.0558682  54.8322453  48.7062252
  40.3933365  56.0041941  48.1198999  39.5309270  56.3157943  48.6649050
  40.6636946  56.8277932  47.5480611  39.9175883  54.6181856  47.0208983
  41.2543175  54.4633263  45.8349678  41.4450911  55.4505503  45.4082788
  42.1289882  54.0845938  46.3183296  40.9292268  53.7581559  45.0551300
  41.8380611  55.0842645  51.6429259  42.0882334  55.8585211  52.5478305
  42.4263263  53.8753830  51.5228160  42.4851714  53.4945637  50.5705903
  43.5043116  53.5084785  52.4684907  43.1748872  53.6129720  53.4513051
  43.8448945  52.0145072  52.3117514  42.9655302  51.4089616  52.4623500
  44.0498931  51.9866003  51.2812867  44.9851600  51.4420899  53.1060128
  45.1744311  51.8639892  54.4404343  44.5671838  52.5691619  54.9123844
  46.1739798  51.1599704  55.1821367  46.2673882  51.4868580  56.2057117
  47.0611755  50.1825438  54.5967792  47.9833619  49.7869854  55.0970121
  46.9359731  49.9045679  53.2697688  47.7223072  49.2949022  52.7802749
  45.8778408  50.5264897  52.5328434  45.7331905  50.2245000  51.5392799
  44.7120253  54.4750100  52.2416671  44.9102195  54.8539646  51.1010805
  45.4516533  54.8240883  53.3069446  45.1049570  54.5808316  54.2053957
  46.5408229  55.8452695  53.1872195  46.1730549  56.7264568  52.7855483
  46.9115947  56.2355656  54.5507170  46.0491040  56.6963978  55.0743574
  47.2659725  55.3893913  55.1113361  47.9636309  57.2594715  54.7371100
  47.9613917  58.0073366  53.9480846  47.6659160  57.6904706  55.6633891
  49.3526510  56.6742117  55.0543828  49.6238089  56.0111751  56.0859227
  50.2963172  56.7485559  54.2099771  47.7114286  55.5150299  52.1873678
  48.1665534  56.3794677  51.4200476  48.2070002  54.2477188  51.9870771
  48.3054000  53.2545537  53.0112414  47.4933903  52.6046377  53.0746964
  48.3703907  53.8701707  53.8878752  49.6466569  52.6098182  52.7789604
  49.6322761  51.6682266  53.3222621  50.4412782  53.3011781  53.1222940
  49.7227737  52.5421317  51.2595289  49.0330582  51.8401489  50.9412816
  50.6759185  52.3405217  50.8336810  49.1226941  53.8753110  50.8662713
  49.9179661  54.6406205  50.6645488  48.3465727  53.7432118  49.5869925
  48.9559763  53.3035670  48.6518529  47.0214480  54.0542433  49.4711782
  46.4421254  54.1390010  50.3137976  46.3242534  54.1395881  48.1771208
  47.1129743  54.0657060  47.4080323  45.4662346  52.8720360  48.0137772
  44.7986227  52.9118488  48.9255802  44.8627980  52.9151758  47.0066602
  46.3588408  51.5499527  48.0278395  47.0980198  51.5168300  47.1638756
  46.9015227  51.4947751  48.9266778  45.4761464  50.3152088  47.8690415
  46.0682941  49.2667153  47.5299136  44.3255003  50.3702759  48.2858245
  45.5379377  55.4886837  47.9633693  44.7333682  55.6329763  47.0407036
  45.8028428  56.5728979  48.7754652  46.4697173  56.3484557  49.5715351
  45.4491910  57.9599745  48.4470776  44.4623115  58.0391220  47.9532866
  45.3408025  58.7815494  49.7644346  46.2798612  58.8380141  50.3596302
  45.0985458  59.7890291  49.4904249  44.2072211  58.4041770  50.7257108
  43.2339704  58.6580653  50.3537407  44.2540376  57.3172728  50.7379585
  44.2870871  59.0178869  52.0735181  45.2145455  58.7631166  52.5327837
  44.1878709  60.1395085  52.0716142  43.3448100  58.3570461  52.9814338
  42.6222256  57.6573994  52.6317065  43.3569087  58.4368842  54.3067893
  44.1681047  59.2156508  54.9820369  44.7437320  59.8801153  54.4511902
  44.1853258  59.3247115  56.0287321  42.4120446  57.8155445  55.0615066
  41.6697353  57.4081184  54.5751197  42.3720252  57.8412888  56.0843281
  46.3390211  58.6431289  47.5076847  47.4704488  58.1919508  47.2464331
  45.8510818  59.7723696  46.9894264  45.0369151  60.1121458  47.3638450
  46.5319174  60.5936431  45.9769415  45.8435943  61.4867440  45.7347470
  47.7287404  61.2750068  46.6592612  48.5894698  60.5848990  46.8199865
  47.9506670  61.9941709  45.9202431  47.5032277  61.9487771  48.0448579
  47.5564535  61.1848211  48.8126143  48.3219197  62.6311317  48.2576055
  46.1878194  62.6811947  48.1975347  45.3376660  62.2870119  49.0407839
  45.9505694  63.6157787  47.3971281  46.8503128  59.8419452  44.6069847
  47.4838082  60.4041499  43.7089215  46.3170472  58.6112226  44.3798167
  45.8181083  58.1801001  45.0517208  46.4293388  57.9055979  43.1087430
  47.4222958  58.1283191  42.6000963  46.3530338  56.3582103  43.2288514
  45.3110555  56.0571807  43.4083429  46.6784495  55.9143180  42.2483919
  47.1566182  55.7128584  44.4615841  46.7375446  56.2214337  45.3075102
  46.8944560  54.7019609  44.6554539  48.6738419  55.7421447  44.3085512
  48.9027714  56.7466381  44.2721540  49.2051063  55.2241068  45.1333289
  49.0542849  55.0278821  43.0671553  48.5612735  54.0460866  43.0972527
  48.5075508  55.5846426  42.2825970  50.5372046  55.0396163  42.8380174
  50.8657097  55.9654507  42.8690726  50.9821273  54.5001163  43.5934898
  50.7829350  54.6599676  41.9678537  45.4498809  58.4991575  42.0967319
  45.8676532  58.8855973  40.9939117  44.2612451  58.8324228  42.5544585
  43.9025105  58.3391271  43.3836938  43.3524322  59.8748345  42.1134930
  43.7811017  60.3007732  41.2763293  41.8557744  59.3746863  41.9264636
  41.2412534  60.1965053  41.6710643  41.6043260  58.5777582  40.6710242
  42.1242233  58.9582857  39.8285161  41.8537839  57.5025418  40.7849377
  40.5624090  58.5815936  40.4384329  41.3800522  58.7210305  43.2079515
  41.4815269  59.3019113  44.1633832  40.2794112  58.5381738  43.0959841
  41.8581172  57.6915209  43.2750948  43.4986873  60.9094037  43.2435557
  43.7605552  60.6588040  44.4056861  43.1092677  62.1199509  42.8922394
  42.8008184  62.2849290  41.9373541  42.9287378  63.2117658  43.8820861
  43.7862236  63.2054005  44.5292374  42.9263105  64.5504311  43.1226234
  43.6988329  64.5010638  42.3515917  41.9821231  64.7901638  42.6014729
  43.0492003  65.7948267  43.9496938  42.9083412  66.9747760  43.5061918
  43.4021355  65.7537460  45.1256484  41.6834328  63.1236102  44.7768185
  41.0473456  64.0933793  45.2007105  41.3678375  61.9175247  45.1877799
  41.9692496  61.1601089  44.8924755  40.0256622  61.5131699  45.6879102
  40.1958602  60.4220496  45.7065032  39.7707564  61.9520979  47.1334245
  39.9598054  62.9889659  47.1912313  38.7121750  61.7614974  47.3988498
  40.4277521  61.3670472  47.7318140  39.1006136  61.8896775  44.5160927
  39.1443801  61.1342514  43.5421750  38.1384184  62.8197932  44.6074200
  37.5603804  62.8051482  43.7098049  37.4316387  63.6910080  45.6453588
  38.1175605  63.8398385  46.4667747  36.8949075  65.0509730  45.0772035
  36.2994486  64.7960500  44.1774364  36.1435679  65.9796661  46.0529125
  36.6818370  66.5417260  46.8834876  35.5813651  66.7007752  45.5141247
  35.3112592  65.3411582  46.4657066  38.1353890  65.8358687  44.5524746
  38.6903510  66.2951357  45.3670996  38.7807469  65.2570686  43.7542941
  37.7377131  67.1081075  43.8128187  37.0384128  66.8073378  43.0904248
  37.3034785  67.9411706  44.4234494  38.6431061  67.5165209  43.3422870
  36.2715489  62.9107155  46.1671379  35.4019506  62.5202252  45.3677831
  36.1668917  62.6343633  47.4786012  36.7367473  63.0113374  48.2210009
  35.2372679  61.6666883  48.0240296  35.2736482  60.6660662  47.5388484
  35.5303882  61.3385477  49.4942923  35.3946107  62.2544109  50.0710582
  34.8224838  60.6646078  49.8137693  36.8534334  60.6351174  49.6621516
  37.0907170  59.5985485  49.0585253  37.6328523  61.0788935  50.4767436
  33.7421248  62.1487763  47.8927671  33.4129441  63.3538903  47.9477035
  32.9431041  61.0925303  47.6415798  33.3519710  60.1785219  47.4923675
  31.5057312  61.1671232  47.4038316  31.0440762  60.1739830  47.5941451
  31.1096900  61.8400631  48.1534246  31.1030297  61.6284285  45.9849495
  29.9497230  61.5767496  45.6621827  32.0758955  62.0073540  45.1014994
  33.0538227  61.8809507  45.2452539  31.8037802  62.4916077  43.7483119
  31.0226157  63.2658226  43.8347766  32.9355659  63.3064929  43.1518194
  33.8175598  62.6664361  43.0787472  32.5607315  63.5297314  42.1755959
  33.3100595  64.5969777  43.9635977  33.5518478  64.4114920  45.0109338
  34.2557228  65.0218664  43.5449359  32.2786624  65.7421654  44.0049131
  31.8814604  66.2326855  45.0696315  31.8233216  66.1423883  42.9386367
  31.1776532  61.4691403  42.7588106  30.5928129  61.9327913  41.7956434
  31.0628591  60.2030414  43.0725792  31.6377756  59.8916262  43.8895467
  30.3810122  59.1801427  42.1781152  29.9030775  59.6917492  41.3436392
  31.2861404  58.1026261  41.6382742  31.7756856  57.6296074  42.5059426
  30.7093451  57.3095402  41.2115718  32.3788860  58.5069565  40.6821737
  32.0863210  59.0831178  39.4378646  31.0593330  59.3605870  39.2163184
  33.1747138  59.3449959  38.5952718  32.9860898  59.8374964  37.6707349
  34.4939016  58.9927720  38.9787452  35.4842851  59.1478856  38.0910306
  35.1273741  58.9238301  37.2593343  34.7582221  58.3257840  40.2482420
  35.8025469  58.0784588  40.5129351  33.6641443  58.1262035  41.0848427
  33.8398327  57.7082812  42.0482223  29.1233262  58.5112845  42.8598219
  28.5904066  57.5040877  42.4419615  28.7192802  59.1211852  43.9706549
  29.0537075  60.0442737  44.1600497  27.5726443  58.6008681  44.7054818
  27.7963010  57.5115246  44.8483344  27.5258536  59.2809070  46.0851964
  26.9234443  58.7452498  46.8414611  28.5307744  59.3411524  46.4307168
  26.9696957  60.7061675  45.9721552  27.3617779  61.2077701  45.1099906
  25.8964086  60.7756606  45.8108220  27.3514794  61.5566998  47.1997015
  28.3307279  61.2861930  47.4788690  27.3588575  62.5786220  46.8980333
  26.5576295  61.3468965  48.4015918  26.1793210  60.4123585  48.6192888
  26.2860553  62.1288120  49.4028219  26.6739860  63.3216397  49.4516493
  27.2975270  63.7324231  48.7015598  26.4787014  63.7866489  50.3351521
  25.5213924  61.7315525  50.3465761  25.4785633  60.7195877  50.3859582
  25.4387500  62.3084750  51.1643114  26.2754430  58.7111408  43.9584523
  26.0207436  59.6964225  43.2852025  25.4807000  57.6349839  43.9414810
  25.7864913  56.7715004  44.4167123  24.2665481  57.5070090  43.1575826
  24.1911886  58.2886872  42.3969343  24.2073323  56.1949691  42.3844217
  24.1421608  55.4021086  43.1216408  23.2542516  56.1108194  41.8282142
  25.3061186  56.0360287  41.3030436  26.2875234  56.0561680  41.7434759
  25.0817610  54.6564166  40.6631563  25.7661472  54.3858926  39.8193497
  25.1759828  53.9919381  41.4879765  24.0541874  54.6334512  40.3056911
  25.2246267  57.0865944  40.1559119  25.5883170  58.0370326  40.5520475
  25.8334621  56.6775235  39.3246847  24.1989605  57.2052705  39.8050243
  23.0570368  57.8896553  43.9653948  23.1501954  57.5594152  45.1606099
  22.0331730  58.4916438  43.3534344  21.9854685  58.6658312  42.3460843
  20.8119880  58.9256649  44.0679919  20.9052326  58.9782797  45.1477126
  20.4451536  60.3393174  43.5326782  20.6000032  60.3535212  42.4478582
  19.3640438  60.5563993  43.7055823  21.3595237  61.4045032  44.1456186
  20.8399093  62.3322989  43.8656978  21.3219556  61.3016094  45.2308676
  22.7616637  61.4113954  43.5881592  23.3799904  60.8454926  44.2174103
  22.7604043  60.9465771  42.6184438  23.2318539  62.8384821  43.3111551
  22.6652759  63.6007505  43.5971186  24.3727176  63.1610431  42.7467091
  25.3345372  62.2543482  42.4586592  25.1508781  61.2821029  42.8161432
  26.1966061  62.5888240  42.2482048  24.7300619  64.4006831  42.5626729
  24.1828334  65.1721831  42.8996534  25.4711207  64.6410798  41.8995821
  19.6444335  58.0065425  43.7420818  19.3924143  57.6574720  42.5886208
  18.8376376  57.6083367  44.7449424  18.9473057  57.9643111  45.6752462
  17.7689213  56.6026623  44.5941992  17.5289186  56.3258796  45.5843334
  16.9672790  56.9749560  43.9538024  18.1870537  55.2960540  43.9698934
  19.3329710  54.8525831  44.1816913  17.3148715  54.7146061  43.1251784
  16.5256775  55.2920880  42.7711413  17.5809217  53.3068241  42.6700318
  18.0569054  52.7177858  43.5473524  16.2981689  52.5192322  42.3211835
  15.9408347  52.9672238  41.4431905  16.4365846  51.4462827  42.2032785
  15.1988569  52.7732093  43.4498662  15.0468054  53.8796439  43.5688292
  14.3398724  52.3289790  43.1202247  15.6237223  52.1469219  44.7845894
  15.9350559  50.9532756  44.8934649  15.7552881  52.9348126  45.7021727
  18.5862500  53.3037702  41.4701954  18.8844043  52.1811600  41.0346786
  19.2229604  54.4242364  41.0877533  18.8842141  55.2458954  41.4860160
  20.5095071  54.3847617  40.4441104  20.4462951  54.0480693  39.3991960
  20.9617160  55.8798866  40.3248135  20.8201550  56.3590141  41.2602816
  21.9922162  56.0424587  39.9213969  20.2284280  56.3357532  39.6849460
  21.5500861  53.5570438  41.1940570  22.1953689  52.7673532  40.5529881
  21.6623906  53.7207594  42.5133684  21.1548066  54.4968291  42.9010594
  22.4614533  52.8412245  43.3542261  23.5017763  52.9872709  43.0152842
  22.5084251  53.4058699  44.8122881  22.7866960  54.4827702  44.6374124
  21.5056125  53.1930122  45.2273364  23.4828533  52.8124219  45.7512161
  23.2452246  51.7005052  45.7372926  24.4847648  52.8859826  45.3578976
  23.3986326  53.3679837  47.1381760  23.6269052  54.4521260  47.0911126
  22.3770938  53.2670967  47.5732759  24.2770913  52.6591471  48.0280135
  25.1951345  53.0734585  48.1511870  24.0949739  51.5391958  48.7660801
  23.0108054  50.8227730  48.6036465  22.2406000  51.0536462  47.9633092
  22.9446862  50.0704584  49.3287029  24.9965830  51.1772651  49.5961273
  25.8993596  51.5716323  49.4646005  24.8466206  50.4532077  50.3145283
  22.0801800  51.3259220  43.4071856  22.9111330  50.4511690  43.2941019
  20.8421690  51.0195448  43.4958353  20.2077949  51.7192398  43.5063296
  20.2896494  49.6734874  43.4069712  20.9449593  49.1795716  44.0508616
  18.8137992  49.6037360  43.7723071  18.1946718  50.0027127  42.9953947
  18.4812250  48.1340908  44.0914040  18.0039548  48.1056024  45.0871562
  17.8848040  47.6623389  43.3458171  19.3259861  47.4382082  44.1404780
  18.5845890  50.3555945  44.9458089  17.6872081  50.5756015  44.9983652
  20.4832891  49.0951758  41.9177592  20.7645636  47.8940595  41.7457830
  20.5315385  49.9263864  40.8769314  20.2240294  50.8532601  41.1045956
  20.8039843  49.5587701  39.4581279  20.2891255  48.6328091  39.1572834
  20.3031666  50.6543438  38.5146185  20.8867350  51.5584502  38.6925715
  20.4313084  50.2758919  37.0120731  19.9882244  51.1524034  36.4885536
  21.5237615  50.2041704  36.7954453  20.1577765  49.2372470  36.8588710
  18.9146240  50.7931120  38.7162165  18.7792203  51.1614993  39.5932963
  22.2870708  49.3137102  39.1521160  22.5858598  48.3170753  38.5060013
  23.2226157  50.1307932  39.6472670  22.8719982  50.9263292  40.1309134
  24.6943123  49.9183632  39.7040475  25.1095250  49.9579572  38.7488785
  25.3526149  51.1347218  40.4869908  25.0729145  52.0415494  39.9404598
  24.7446674  51.3076868  41.4292245  26.8013201  51.1839709  40.8086029
  27.6312195  51.1106325  39.6547273  27.3067412  51.0295933  38.6286643
  28.9865636  51.2089737  39.8951537  29.6617907  51.1180065  39.0462253
  29.5592638  51.2679262  41.2352680  30.6418271  51.1699161  41.3957331
  28.7491854  51.4595758  42.3631244  29.1716002  51.6216918  43.3464587
  27.3425145  51.4151644  42.1525094  26.6591116  51.5152677  42.9862767
  25.0681175  48.5345012  40.3321440  25.9502317  47.8915925  39.7661375
  24.4025215  47.9626661  41.3524478  23.5768642  48.4265396  41.8022379
  24.7297670  46.6027402  41.8118956  25.8412773  46.4502779  41.6243328
  24.4360867  46.3932796  43.3249671  23.3366374  46.4503268  43.4492709
  24.8398389  45.0162051  43.8825991  25.8921520  45.0955731  44.1617975
  24.1895287  44.6710303  44.7282970  24.7036180  44.2376510  43.1824002
  25.0486503  47.5361646  44.0766965  24.3661212  48.3354118  44.1055737
  24.9399199  47.3104988  45.1292262  26.0217397  47.7898627  43.6281267
  24.0702425  45.5737684  40.8051730  24.7700929  44.7052178  40.3172056
  22.8368917  45.7555889  40.3153039  22.3380715  46.5612738  40.7452786
  22.2332454  44.8609461  39.3072483  22.2645101  43.8389539  39.7919847
  20.7485333  45.1477304  39.1287995  20.6177523  46.1960518  38.8935425
  20.4433641  44.5960527  38.2636932  19.8504800  44.6725535  40.3042207
  20.3727378  44.0328406  41.2675744  18.6227017  44.6781306  40.1245218
  23.0989500  44.6766769  38.0463938  23.3095178  43.5667483  37.5427641
  23.6230357  45.8162540  37.5044683  23.3136157  46.7074559  37.9473232
  24.4964966  45.8475516  36.3092454  24.0809905  45.3198488  35.5248055
  24.5876525  47.3616788  35.9664582  24.7358433  47.8195371  36.8908837
  25.4241019  47.5512623  35.3289885  23.2989320  47.8371804  35.2906780
  22.4163004  47.8067916  35.9288301  23.5711021  49.3510488  35.0712230
  24.4178761  49.5900202  34.4583090  22.6907896  49.9106324  34.7724242
  23.8356779  49.7845059  36.0480313  23.0279879  47.1137014  33.9579520
  23.8605252  46.4547390  33.7123548  22.0439930  46.6497087  34.0244226
  23.0343478  47.8477040  33.1570410  25.8366286  45.1007845  36.5232605
  26.3020130  44.4617211  35.6248593  26.4724732  45.3177368  37.6828160
  26.0941951  45.9348952  38.4111894  27.8517088  44.7621814  37.8801410
  28.4206742  44.9175494  36.9305525  28.7052664  45.3539867  39.0099417
  28.1891959  45.1953498  39.9536972  29.6780542  44.9440150  38.9044706
  29.0496437  46.7614212  38.9075489  29.5433309  46.9702170  37.9490900
  28.1897077  47.3022498  38.7324834  29.9117666  47.5134204  40.2434064
  28.6153481  47.7392813  41.4452878  29.0725951  48.3263159  42.2820067
  27.8527993  48.4014683  40.9853830  28.2015373  46.7623536  41.7875904
  27.8208786  43.2582857  38.2591308  28.7899167  42.6086182  37.9379348
  26.7418358  42.7904857  38.8774218  25.9992488  43.4289890  39.0847069
  26.6861916  41.4590230  39.5137900  27.4744270  40.9507862  39.0631207
  26.9777422  41.4611393  40.9559069  26.2676951  42.1578997  41.4911303
  26.9093059  40.4552308  41.3617477  28.3836289  42.0043809  41.3635804
  28.4565211  43.0315074  40.9708327  28.4286069  42.0421485  42.4611540
  29.5557539  41.1572722  40.7369414  29.4269033  40.8473150  39.7353729
  30.3296578  41.9259534  40.7925692  29.7790463  39.9412391  41.6118016
  30.4765147  40.0962891  42.3114896  29.2152016  38.7181190  41.4993899
  29.2950202  37.8090231  42.5210801  29.9250985  37.8887751  43.3535266
  28.8392493  36.8913111  42.3185202  28.3972901  38.2727738  40.5302526
  28.3416594  38.8479033  39.6352337  27.7020727  37.5684965  40.7097285
  25.5290042  40.5016802  39.0755249  25.6202725  39.3378951  39.3888790
  24.5651514  40.9580885  38.2527379  24.5409272  41.9610278  38.0889262
  23.5537909  40.1606811  37.5865073  23.7112779  39.1926080  37.9138951
  22.1395183  40.6023748  37.9455605  21.8464580  41.5410497  37.4003298
  21.4155810  39.8714304  37.5141224  21.8936776  40.6156203  39.4674843
  22.4159715  39.7759442  39.9619345  22.3561307  41.5221850  39.8191406
  20.4331393  40.5128076  39.8395984  20.1285968  39.4973852  39.4740270
  20.3807655  40.4468316  40.9562961  19.6907092  41.6706825  39.3860740
  19.7559171  42.5391371  39.8614937  18.8084249  41.6907677  38.4243297
  18.6391372  40.7236952  37.5918285  19.2459737  39.9103304  37.5548554
  17.7834497  40.5871826  37.0470854  17.9967517  42.6727979  38.2145250
  17.9831888  43.4192328  38.9099788  17.2514457  42.6321484  37.5708068
  23.8188725  40.1269049  36.1058275  23.9804732  39.0091429  35.6110926
  23.9386071  41.3342208  35.4987681  23.6614409  42.1406028  36.0620651
  24.4990559  41.5147572  34.0932990  23.9158574  40.9367855  33.4188411
  24.5535998  42.5945888  33.9107385  25.9644303  41.2244645  33.9410380
  26.3749265  40.9177869  32.8026283  26.7548015  41.3354995  35.0851794
  26.4611190  41.7254955  35.9550328  28.1398372  40.9296204  35.0917084
  28.5005789  41.0067848  36.0806992  28.4381816  39.4554020  34.7183743
  28.5632456  39.3682456  33.6504735  29.3518313  39.1735162  35.1662505
  27.3919172  38.4026821  35.1001760  26.9364310  37.6866920  34.1358472
  26.8594824  38.2702970  36.2333550  29.1219106  41.9028931  34.3745931
  30.0663638  41.4917940  33.8225975  28.7606628  43.1893935  34.2070926
  27.9070254  43.5378799  34.5830109  29.5628016  44.1524135  33.5278773
  30.0411494  43.7329483  32.6901254  28.6578406  45.2942063  33.1111640
  28.2718305  45.8832835  33.9436100  29.2431015  45.8984394  32.3931083
  27.4631549  44.8311960  32.2192585  26.8399917  44.2140228  32.7993060
  26.6447659  46.0101235  31.7542199  27.0758688  46.4571586  30.8128925
  25.6793336  45.5981174  31.5394078  26.5892380  46.8125325  32.5148636
  27.8776272  44.0723681  30.9446565  28.3382696  43.1525776  31.2001828
  27.0176750  43.8150742  30.3151126  28.5461629  44.6081991  30.3114133
  30.7469478  44.7801730  34.3774024  30.5473587  44.9498216  35.5702246
  31.9016355  45.1620697  33.7312720  32.3708171  44.6607884  32.4769583
  31.6578966  44.9393132  31.7038833  32.3799439  43.6409853  32.5292216
  33.8062827  45.2364176  32.2980449  34.0737194  45.4716256  31.2478859
  34.5364565  44.5003193  32.5788646  33.8644161  46.4148623  33.2804009
  33.5173528  47.2682129  32.7194720  34.8650722  46.5588377  33.5893915
  32.8622851  46.0468304  34.3858713  33.4210219  45.4800128  35.0396842
  32.3591072  47.3542856  35.0083769  31.4031639  47.9804857  34.5298953
  33.0790291  47.7676796  36.0467414  33.7183696  47.0920730  36.3974509
  32.6439453  48.8496430  36.9606801  31.5674378  48.5795845  37.1544027
  33.5544164  48.6838411  38.1893993  34.5520037  48.9797932  37.7747572
  33.0698990  49.6507050  39.2464070  33.5723871  49.4457013  40.2269003
  33.1904812  50.6749157  38.9168826  32.0380626  49.4056545  39.5600376
  33.6905715  47.3382372  38.8960077  32.8308195  47.2474164  39.6459446
  33.7031818  46.5115454  38.1793039  34.6795817  47.3279672  39.4797792
  32.4288102  50.2395226  36.3324754  31.3957352  50.8190351  36.6648421
  33.3446345  50.7341333  35.5211265  34.2750645  50.2787380  35.4138809
  33.0383156  51.8996273  34.6695082  33.0240347  52.8610656  35.2157346
  34.1879448  52.0956115  33.7389201  35.0821650  52.2543565  34.2977168
  34.2703677  51.2052756  33.1062658  34.1124817  53.3323021  32.8788540
  34.2835176  54.5845191  33.3541702  34.2994515  54.8279906  34.3898342
  33.9846018  55.4286514  32.2660166  33.9682827  56.4317369  32.4080001
  33.7897304  54.7112379  31.1013942  33.3897299  55.0923851  29.7792074
  33.3703110  56.1251048  29.5000786  33.1018393  54.0508474  28.8698744
  32.8044761  54.3439544  27.8036140  33.0600765  52.7310794  29.1851417
  32.8226692  51.9491458  28.4856468  33.4898343  52.3460175  30.4901435
  33.5995188  51.2942166  30.7092755  33.7441331  53.3395873  31.4696173
  31.6812362  51.7787467  33.9521414  30.8891687  52.7716577  33.9615534
  31.5168976  50.6151526  33.2953051  32.2127041  49.9413335  33.4213482
  30.4917448  50.3828073  32.3004838  30.3906615  51.2470615  31.6403337
  30.8224726  49.1217377  31.4062253  31.8140432  49.2449512  30.9470078
  30.8130323  48.2428609  31.9238016  29.7777701  48.9015501  30.3831787
  28.7664902  48.7118512  30.7963541  29.6672464  49.8954699  29.2249750
  30.5726350  49.9677671  28.5576164  28.8714457  49.6605922  28.5142289
  29.4523749  50.7872044  29.7227375  30.1415573  47.5931772  29.6847110
  29.9824563  46.7825322  30.3528561  29.5825578  47.4262365  28.7178631
  31.1218030  47.6517882  29.2459730  29.1216671  50.2429364  32.9827470
  28.2505431  51.0001489  32.5488390  28.9937480  49.4970343  34.0747392
  29.7415684  48.9213235  34.4109393  27.8076374  49.5579124  34.9428258
  26.9469995  49.2371159  34.4303875  27.9601408  48.7049362  36.2073401
  28.7025549  49.1717610  36.7947242  27.0530517  48.7647862  36.6916247
  28.1554711  47.6957686  35.9397324  27.5521464  51.0378888  35.3327387
  26.4685596  51.4725330  35.3796063  28.6208861  51.7756585  35.7574329
  29.5671556  51.4775545  35.5440755  28.5055104  53.1386543  36.2162956
  27.7352047  53.1027772  37.0660694  29.7790407  53.5441361  36.9333598
  29.9783411  52.9316836  37.7444895  30.6447445  53.4961391  36.2867040
  29.6967849  54.9599971  37.4659644  28.8501070  55.2512505  38.5282748
  28.3098555  54.4762941  39.1263139  28.5406362  56.6015986  38.8888325
  28.0209213  56.8618225  39.8233964  29.1568530  57.6630348  38.1482151
  28.9250773  59.0193632  38.4028625  28.1734244  59.1800382  39.0940900
  30.0651625  57.3266031  37.1977173  30.5219008  58.2115771  36.8366766
  30.3693580  56.0253092  36.8036272  31.0011785  55.7996046  35.9440361
  27.9643247  54.2317229  35.3327065  26.8541891  54.6877254  35.6683219
  28.6199223  54.5024348  34.2143063  29.6443066  54.2082371  34.1158276
  28.1438092  55.4854706  33.1904444  28.2713641  56.4097464  33.6455739
  29.0347097  55.3329461  31.9809726  29.0833782  54.3367168  31.6531227
  28.4559272  55.9496835  31.2829003  30.4809958  55.7373382  31.9866408
  30.8973351  55.6023089  32.9836209  31.0473560  54.9996274  31.4097888
  30.7887253  57.1395953  31.5183243  31.8318657  57.3351312  31.6703276
  30.6610625  57.1394761  30.4485623  29.9076352  58.2139138  32.1253698
  29.0576443  58.5219265  31.6578201  30.0006078  58.7885809  33.3492086
  28.9890358  59.3661166  33.9031944  28.1013958  59.3477021  33.4623608
  29.2725628  60.0447377  34.6434650  31.1477339  58.8625440  33.9377330
  31.9706510  58.4954359  33.3947533  31.3569262  59.3962446  34.8000639
  26.5845017  55.3384792  32.9067609  25.8694536  56.3727646  32.7908003
  26.1838553  54.0717525  32.7410879  26.8801805  53.2894961  32.8023423
  24.8263458  53.5960115  32.4437545  24.4911074  54.0690359  31.4785295
  24.8369743  52.0518175  32.2867617  25.3673543  51.6554997  33.1571869
  23.3851459  51.4968629  32.0977281  23.0851155  51.8233289  31.1251309
  23.3264943  50.3929342  32.2117355  22.6748871  51.8216273  32.8727617
  25.7003200  51.6243158  31.0538228  25.7984740  50.5678435  31.0025220
  25.1687348  51.8665446  30.1777684  26.6397830  52.2082245  30.9543630
  23.7957525  54.1070265  33.5099635  22.9079520  54.8869788  33.1857232
  23.9557718  53.6592787  34.7506480  24.6969603  52.9984384  35.0352844
  23.1734553  54.2521836  35.8109422  22.1293803  53.9057493  35.7243751
  23.7321720  53.6703260  37.1172296  24.7400407  53.8892091  37.1974584
  23.1617211  54.0832457  37.9581350  23.6041207  52.5746209  37.1798966
  23.2459138  55.7682152  35.8895524  22.1893074  56.3901361  36.0076815
  24.4514079  56.3474466  35.7484482  25.1790436  55.7304709  35.7066250
  24.7538412  57.7493351  35.9216977  24.2660067  58.1108656  36.8174626
  26.3069080  57.8218694  36.0605964  26.7993319  57.6547418  35.1162813
  26.6118831  58.8658280  36.4183161  26.6530936  57.1575901  36.8080118
  24.1811182  58.6623395  34.7976808  24.0052835  59.8474495  34.9570600
  23.7944507  58.1420306  33.6520469  23.9679493  57.1492086  33.4410351
  22.9234860  58.7776647  32.6249721  23.2057862  59.7994334  32.4588206
  23.2658831  58.0100090  31.3349890  24.2463622  58.1874301  31.1296102
  23.0892986  56.9702330  31.6080485  22.4640906  58.3109206  30.0612997
  22.7329332  57.6612686  29.1778308  21.3548044  58.0512387  30.1981471
  22.4192020  59.8015413  29.6661904  22.2928888  60.0439317  28.4538498
  22.6377511  60.6882359  30.5237749  21.4297453  58.6349984  32.9365494
  20.5055413  59.3000617  32.3776425  21.0680019  57.6606403  33.7894608
  21.7645993  57.0107894  34.1211108  19.6869687  57.3745099  34.1792678
  19.5027147  57.3660177  35.2615769  19.1440599  58.2526561  33.8210102
  19.1184611  56.0542686  33.6989707  17.9200557  55.9389635  33.6990939
  19.7816140  55.1130763  33.0962245  20.8105170  55.2963940  32.9669381
  19.3665053  53.8795939  32.4607915  18.3705569  54.0216096  32.0331600
  20.3443928  53.4613581  31.3585922  21.3275102  53.3511431  31.8286110
  20.0496615  52.1094628  30.7067067  20.0741601  51.3446999  31.5156198
  19.1386079  52.0685473  30.1240795  20.8008931  51.8277806  29.9418327
  20.3907641  54.6491641  30.3111635  19.3432601  54.9071280  30.0115743
  20.8401985  55.5578290  30.7445839  21.2098854  54.3819584  29.0565630
  22.1251732  53.8971773  29.4539802  20.6819119  53.6960822  28.3563639
  21.6079891  55.2842767  28.4820166  19.1858498  52.6913525  33.4329145
  20.0182150  52.4527993  34.2308351  18.0710389  51.9865895  33.2647441
  17.4701828  52.3327763  32.5724567  17.5893488  50.9049734  34.0822194
  17.9336570  50.9753367  35.1047564  16.0592036  50.9820856  34.1749437
  15.5498089  50.8421905  33.2045114  15.6608533  50.2196649  34.8148517
  15.6848386  52.2460435  34.8387742  15.6489671  52.3641401  36.0492957
  15.6402010  53.4043120  34.2092473  15.5518773  54.2883119  34.7098667
  15.8179045  53.3891015  33.2288008  18.2450886  49.5432993  33.5182083
  18.8632124  49.4807602  32.3964130  18.1047051  48.5109221  34.3794235
  17.5315010  48.6304109  35.1433340  18.6984912  47.1859290  34.0698207
  19.7764705  47.2486165  34.1189087  18.4668972  46.2308675  35.2622170
  18.8439477  46.7170837  36.1320739  17.4017586  46.0459181  35.4237746
  19.1382906  44.8352712  35.1092364  20.4838574  44.6712006  35.3957007
  21.0390604  45.4443815  35.7924665  21.0264372  43.4294387  35.1064293
  22.0436349  43.2629391  35.3637937  20.3291093  42.3256988  34.6412153
  20.8916994  41.0780076  34.5342022  20.3994004  40.3611355  34.0105142
  18.9629579  42.5193789  34.4107215  18.4243184  41.7013330  34.1016883
  18.4094573  43.7871363  34.5685237  17.3246438  43.9020178  34.3342535
  18.3044036  46.5389462  32.7640117  19.1876441  46.0949637  32.0047550
  17.0074357  46.4655649  32.5608948  16.4418619  46.8151182  33.3278101
  16.5029917  45.7946312  31.3325364  17.2736185  45.0272590  30.9457513
  15.2219606  45.0601151  31.7466490  14.3469987  45.7684669  31.7635879
  15.0023250  44.1935979  31.0841723  15.3936121  44.6592326  32.7910702
  16.2026783  46.8323261  30.2148411  15.5650422  46.5103259  29.2326858
  16.6184271  48.0918892  30.3168201  17.1057212  48.2980908  31.1783256
  16.6850265  49.0357380  29.1641410  15.9006590  48.7913949  28.4760328
  16.3494311  50.4352191  29.6600886  15.2910654  50.3672941  30.1301246
  16.9185964  50.7552243  30.5443354  16.3305107  51.5093833  28.4947183
  16.7719146  51.2083738  27.3494249  15.9807682  52.6707515  28.8869041
  17.9983426  48.9497485  28.3239784  18.9968669  49.4467869  28.7660575
  17.9821165  48.2491770  27.1869485  17.0360141  47.9472556  26.8567624
  19.1721972  47.8140126  26.4953387  20.0448057  48.0854117  27.0430750
  19.2097906  46.3133346  26.2310692  18.3621847  46.1431532  25.5911372
  20.1135110  45.9974218  25.7335224  18.9781327  45.4924926  27.5178755
  18.1546006  45.9901773  28.0436086  18.6551144  44.4409666  27.3403782
  20.2241749  45.3954818  28.3805693  20.9563551  44.7560411  27.9246535
  20.6245224  46.3981793  28.5187836  19.9347389  44.8654363  29.7339303
  19.8589835  45.5994362  30.4352785  19.8081730  43.6178644  30.0698884
  19.9692971  42.6466420  29.2763121  20.1166399  42.8628212  28.3017193
  19.7790534  41.7294970  29.6706820  19.4673704  43.3732442  31.3242951
  19.4406015  44.1791970  31.9332997  19.4021520  42.4181618  31.6522196
  19.3660383  48.4741762  25.1582031  20.3442428  48.2532780  24.4488151
  18.5677166  49.4886741  24.9014306  17.8614840  49.6460583  25.5916627
  18.5534280  50.2256572  23.5751304  18.3501680  49.4688945  22.7933772
  17.3610748  51.1855383  23.6798127  17.5165393  51.8486464  24.5472293
  17.4730980  51.8448567  22.8015184  15.9411783  50.6056625  23.6454015
  15.6745844  50.1302410  22.7280465  15.8478802  49.7702785  24.3325719
  14.8035618  51.5610538  23.9997488  14.9758649  52.3465381  23.2484475
  13.7916940  51.1304790  23.8249511  14.8921795  52.2179121  25.3621487
  15.6398573  51.8933296  26.0260261  13.9944046  53.0055982  25.8458924
  14.2652375  53.6902680  26.9440930  14.8105795  53.1332661  27.6048436
  13.6197111  54.3064927  27.3504424  12.8173142  53.2402557  25.3201244
  12.4820377  52.8938324  24.4015093  12.2630110  53.9564192  25.7777915
  19.9466710  50.8989395  23.3510327  20.4922113  50.8830397  22.2672740
  20.7442259  51.1334992  24.4043131  20.2446919  51.0155064  25.2534064
  22.0993417  51.7633459  24.4200493  22.1482650  52.6094815  23.7934938
  22.5092794  52.1792798  25.8892501  23.3742260  52.8894301  25.9620952
  21.6440222  52.7596859  26.1968206  22.7550709  51.1323030  26.9452922
  21.9032517  50.5644155  27.7977178  20.8866689  50.9371664  27.9055261
  22.5734964  49.7483803  28.7076886  22.1339307  49.3950654  29.5565381
  23.8472293  49.5018159  28.2139095  24.8732643  48.6530294  28.6040553
  24.8097663  47.9473305  29.3537151  26.1148890  48.7034602  27.9606625
  26.9895734  48.0784887  28.1793694  26.3169855  49.7545505  27.0759919
  27.3193933  49.8775340  26.6581193  25.2676169  50.5395661  26.6084043
  25.5077928  51.2407737  25.7335106  24.0028629  50.5235667  27.2027688
  23.1721637  50.7753163  23.9216953  24.2627313  51.2791141  23.5845936
  22.9333060  49.4799279  23.7892609  22.0538004  49.1026895  24.1056845
  23.7941354  48.4593046  23.1434490  24.8123715  48.6039423  23.6059932
  23.2202312  47.0540985  23.5256388  22.1516693  46.9355236  23.1705255
  23.7935596  46.2558342  23.1644392  23.1062932  46.7686900  25.2626604
  22.2078159  47.7498903  25.5876819  23.8584235  48.6485952  21.5856861
  24.7100109  47.9917680  20.9276888  23.0528005  49.5327674  21.0335071
  22.3177008  49.9748887  21.6023671  22.8810062  49.8357016  19.5636841
  23.7486900  49.3448538  19.0993662  21.6166351  49.0073304  19.0596529
  20.8599651  49.6063258  19.4087502  21.4727374  49.1384347  18.0073004
  21.5032676  47.6036648  19.5003943  22.1430649  46.6188694  18.7783875
  22.5776397  46.8743133  17.8359032  22.0399848  45.2526624  19.1732794
  22.6033682  44.5266303  18.6088006  21.3667064  44.9340591  20.3454381
  21.4793971  43.9394641  20.7888104  20.7405801  45.9410018  21.0857983
  20.1533552  45.7888366  21.9960060  20.7599957  47.2571999  20.6418904
  20.3058785  48.0491819  21.2796858  22.7388301  51.3018509  19.1511781
  22.7480296  51.6057482  17.9542445  22.6658983  52.2492601  20.1290477
  22.9047629  51.9582230  21.1030112  22.4666910  53.6624943  19.9041464
  21.7663710  53.7297044  19.0842744  21.8671363  54.2728329  21.2323815
  22.1945005  53.8123733  22.1432553  21.9866073  55.3234933  21.3376744
  20.3531635  54.1382534  21.2561168  19.7106861  53.6459191  20.2788828
  19.8064414  54.5826488  22.2566719  23.6499557  54.4691750  19.5186902
  23.4976474  55.6633216  19.2174088  24.8674184  53.9462680  19.4863773
  25.0501869  52.9612230  19.7467649  26.0521028  54.7186320  18.9662610
  25.9040960  55.7413457  19.2397898  26.9826321  54.4225300  19.4022556
  26.2526329  54.8129664  17.4853615  25.5305926  54.2923275  16.6427292
  27.2842965  55.5634538  17.1545197  27.8530415  55.8502899  17.9378888
  27.6615644  55.9307114  15.7608940  26.6898414  56.1270084  15.2388298
  28.5972436  57.1917537  15.5941867  28.5937975  57.5254389  14.5296206
  28.0129508  58.3255101  16.4380942  26.9920412  58.2842055  16.2873597
  28.2554267  58.2176894  17.5533712  28.4104060  59.2596074  15.9850362
  30.0638811  56.9321297  16.0987022  30.5986753  56.3714306  15.3748277
  30.5211615  57.8646558  16.4646772  29.9576498  56.3544484  17.0262244
  28.2209914  54.6438573  15.1546433  28.6522036  53.7515995  15.8899671
  28.2281771  54.5030661  13.8250670  27.9601656  55.2823495  13.2871233
  28.7599382  53.3708676  13.1097235  28.1627102  52.5557576  13.5128268
  28.4990233  53.5089217  11.6270809  27.5087452  53.8735112  11.3629468
  29.2838582  54.2255999  11.4352017  28.6105477  52.1777800  10.8837095
  29.6527564  51.9053140  10.7519825  28.1292026  51.4200145  11.5254994
  27.9203244  52.1274740   9.5212294  26.8406806  52.1691331   9.6770655
  28.2372147  53.0025098   8.9129864  28.2797798  50.7814189   8.9075342
  29.3277634  50.8518421   8.5346036  28.2717488  49.8707155   9.6408716
  27.3264499  50.5249926   7.8012752  26.4173683  50.5772356   8.1549187
  27.3502413  51.3445804   7.2022619  27.4770504  49.6900405   7.2590419
  30.2153832  52.9870049  13.4324556  30.5801736  51.8148564  13.2467224
  31.0411683  53.8516267  14.0819870  30.8369465  54.8470102  14.0148688
  32.4029467  53.4675280  14.6193845  33.1808606  53.1584510  13.8182049
  32.9651553  54.6751295  15.3303120  32.6898614  55.5219212  14.7869701
  32.6366828  54.7504708  16.3268635  34.5074677  54.6841479  15.4415115
  35.2014449  53.9141621  14.8022903  35.0318011  55.5022898  16.3066456
  36.0592649  55.5337358  16.3502336  34.5316703  56.2780864  16.7530475
  32.3044401  52.3784950  15.6478478  33.2182853  51.5637655  15.6501378
  31.1984062  52.4051154  16.4189360  30.5181833  53.1919906  16.3809275
  31.0550879  51.4960830  17.4834329  32.1114681  51.2894298  17.8229068
  30.2940296  52.1256723  18.6591906  29.2741943  52.4054628  18.3118745
  30.2980423  51.3868384  19.4951162  30.9188565  53.4176536  19.2278340
  31.9679681  53.8707749  18.7897355  30.4568749  54.0723321  20.2690190
  31.1522162  54.6645877  20.7497007  29.7423896  53.6033490  20.8051725
  30.5351819  50.0997126  16.9589285  30.1909331  49.2962340  17.8468996
  30.4209602  49.8002855  15.6512627  30.8127927  50.4987722  15.0236755
  30.0826321  48.4588317  15.1051544  29.0622257  48.2426054  15.4760617
  29.9850727  48.5067535  13.5511957  29.1600087  49.1577732  13.2559697
  30.8924031  49.0447640  13.1725111  29.8356473  47.2032509  12.8099476
  29.8092454  47.4170759  11.7185001  30.7711527  46.5240996  12.8609967
  28.5592542  46.4267736  13.1945875  27.4577060  46.8723539  12.8601018
  28.5327351  45.4108306  14.0323451  27.6310652  45.0776574  14.4044275
  29.3652781  44.9977163  14.4350564  31.1353432  47.4377107  15.5271151
  32.2807843  47.6515244  15.2826384  30.8114540  46.4790748  16.4153265
  29.8637304  46.4493201  16.6725641  31.6946736  45.4374327  16.9235116
  32.7011063  45.7862754  16.9953829  31.2307631  44.8955695  18.3356105
  30.2978824  44.3341597  18.2409837  32.1928976  43.9601356  19.0534310
  33.2324143  44.4105490  19.1075992  31.9083240  43.7759244  20.1096580
  32.3070576  43.0370409  18.4819961  30.9117841  46.0762888  19.3170397
  30.0884171  46.6934095  19.0251026  30.7249997  45.6791867  20.2855343
  32.0532145  47.0232942  19.6316480  32.9702446  46.5025254  19.7460865
  32.2165231  47.7207498  18.7898602  31.9979680  47.6410225  20.5473982
  31.7188694  44.3244367  15.9295598  30.6409485  43.8466357  15.5600204
  32.8359148  43.9919677  15.3438753  33.6559540  44.6004832  15.5419598
  33.0893414  42.8048686  14.4777903  32.1165805  42.3575592  14.3048368
  33.7547794  43.0458920  13.0575144  34.7967522  43.2301781  13.1095107
  33.6009186  42.1769065  12.3976942  33.1145662  44.3151248  12.4320538
  32.0356195  44.3498812  12.6080573  33.7382727  45.6965599  12.7753344
  34.8163433  45.5428311  12.9110669  33.5706946  46.4230379  12.0194898
  33.2198161  45.9620499  13.6719977  33.2178058  44.1910643  10.8815396
  32.7521507  43.2218301  10.5410724  32.7542277  45.0473198  10.4014674
  34.3231775  44.0093163  10.6538838  33.8503290  41.6993656  15.1697154
  34.6791918  41.9194870  16.0552450  33.6403894  40.4712085  14.7582519
  32.9101074  40.4212027  14.0478566  34.2718176  39.2234327  15.2080810
  35.1436115  39.5089833  15.7422224  33.2631157  38.6097997  16.1691823
  33.2888526  39.3537801  17.0131488  32.2584059  38.7243177  15.8718268
  33.6112338  37.1658539  16.6386439  34.5526043  36.8795170  16.2323794
  33.7832875  37.1543543  17.7184049  32.4748101  36.1448906  16.1997727
  32.5240374  35.0265866  16.7577187  31.6160871  36.4530993  15.3597070
  34.5740023  38.3272609  14.0108241  33.6492261  37.9734639  13.2720063
  35.8193167  38.0297004  13.7702482  36.5417891  38.5218411  14.2930160
  36.3370480  37.3302249  12.5964156  37.4373742  37.4058667  12.5690516
  36.1743736  35.7189184  12.6590610  35.1305288  35.5490222  12.7468593
  36.4570331  35.1600047  11.7504996  36.8667461  35.1294275  13.9278374
  36.4814744  35.5434767  14.8380364  36.6621833  34.0739547  13.9401086
  38.3787785  35.2840320  13.8536059  38.8685821  36.2085148  14.5164194
  39.1319868  34.6831875  13.0677890  35.9329432  38.0220129  11.2538137
  35.5966752  37.3778692  10.2500071  35.9937048  39.3709767  11.2751200
  36.2363411  39.9027293  12.0982792  35.5043243  40.3006946  10.1949303
  35.5603371  41.2774310  10.5979852  36.3786208  40.1980881   8.9996831
  36.2321443  39.3043025   8.5004565  36.0474451  41.0249313   8.3425375
  37.8134767  40.5096908   9.2848001  38.1123794  41.4583541  10.0159311
  38.7754872  39.7544083   8.7364439  39.7293740  40.0010419   8.6821816
  38.4192458  39.1248875   8.0896918  34.0195413  40.1840089   9.8761154
  33.5313045  40.6567880   8.8919491  33.2494267  39.4590893  10.7144686
  33.6863897  38.9581582  11.4840920  31.7713355  39.4134491  10.6789307
  31.3481655  39.6969562   9.6691484  31.2412383  37.9792343  11.0464595
  31.5285486  37.7653327  11.9979991  29.6272243  37.8777149  11.0181984
  29.0737974  38.5796446  11.6410828  29.3201314  37.8925862   9.9816413
  29.4089477  36.8661438  11.3807817  31.8415432  36.8914496  10.1684493
  31.4109004  36.8222639   9.2019274  32.9499756  36.9595498  10.0572941
  31.7081460  35.8930535  10.6722036  31.1872689  40.4662391  11.5654009
  31.5788955  40.5900421  12.7173597  30.3376813  41.3675308  11.0463331
  30.1717469  41.3568540  10.0467300  29.5252163  42.2724997  11.8621637
  30.1745997  42.8895885  12.4646208  28.8084189  43.3321037  10.9783001
  28.2023253  42.8372463  10.1658351  28.1539676  43.9391211  11.6056342
  29.8636688  44.2831338  10.2896579  30.2861030  44.9578827  11.0437935
  30.6664394  43.6830129   9.7909775  29.2043705  45.1232397   9.1118183
  29.8973619  45.9509561   8.4279140  27.9237476  45.1327499   8.8815556
  28.5596485  41.5216665  12.7761717  27.6360030  40.7649345  12.3132214
  28.6975946  41.7193442  14.1381874  29.4710900  42.3037423  14.4234257
  27.9346371  41.0510229  15.1949284  28.1603889  40.0327339  15.1619545
  28.4080365  41.5024484  16.5702347  28.3315125  42.5937846  16.5441789
  27.6622403  40.9054289  17.7286656  27.5948185  39.8246553  17.7191918
  28.2560317  41.0513198  18.5758165  26.6358539  41.2705049  17.8659913
  29.8719927  41.0402825  16.7654981  30.2674861  41.2301184  17.7390512
  29.8351539  39.9629871  16.6380236  30.4917673  41.4391735  15.9608888
  26.3808391  41.2643815  15.0967926  25.9176565  42.2918511  15.6097793
  25.5945421  40.4072732  14.3904675  25.9788961  39.6229967  13.8794929
  24.1822552  40.4921855  14.3476219  23.9269983  41.5827967  14.3314370
  23.6531376  39.9060773  13.0492602  24.0456114  38.9460381  12.9371825
  22.5465727  39.8266130  13.0809110  23.7907288  40.7419000  11.8213991
  23.3808033  41.6989440  11.8823460  24.8950749  40.8133505  11.7642421
  23.2096427  40.0157969  10.5413767  23.5881195  38.8446889  10.2637260
  22.5559635  40.7240203   9.7358351  23.4331484  39.9125355  15.5781467
  23.6086713  38.7296324  15.9407192  22.4755408  40.6164534  16.2154114
  22.0920425  41.4697152  15.7799027  21.8880594  40.2707642  17.5250314
  22.1803535  39.2489698  17.7699667  22.2765605  41.3009335  18.5986304
  22.0610689  42.2981175  18.2854121  21.4757178  40.8783557  19.8066737
  20.3912213  41.0066312  19.6024986  21.6708387  39.8207472  20.0590581
  21.7649749  41.4594115  20.7273205  23.7836669  41.1939124  18.7822790
  23.9502937  40.1198323  18.6702911  24.2923174  41.7190167  18.0467949
  24.3069434  41.6717720  20.1139011  25.4249225  41.7719371  20.0493906
  23.8927257  42.6958917  20.3454575  24.0770571  40.9384808  20.8978633
  20.3588923  40.2521336  17.2588946  19.8683671  41.3186415  16.9657219
  19.6599658  39.1599160  17.5117453  20.0897401  38.2629942  17.6211599
  18.2171336  39.1287612  17.5386483  17.8778486  39.9297614  16.9127764
  17.5769442  37.7929935  17.1137500  18.0407111  36.9905761  17.6112782
  16.5676888  37.9035120  17.4527685  17.4860352  37.6121756  15.6799018
  16.3636984  37.6593743  14.8907153  15.3591110  37.8701702  15.3017346
  16.6483701  37.4745644  13.5838787  16.0310806  37.6148696  12.8367775
  18.0145538  37.3810295  13.4168617  18.8256245  37.1294822  12.2969000
  18.3971358  36.9114597  11.3294759  20.2114212  37.0709310  12.3978012
  20.8587449  36.9083826  11.6003686  20.8003936  37.1821594  13.6506167
  21.8940045  37.1739940  13.7256459  19.9798239  37.4082969  14.8094986
  20.4055734  37.4413907  15.8369447  18.5911399  37.4995593  14.7180331
  17.7864900  39.4243178  18.9611330  18.2748320  38.8195687  19.8967575
  16.9857131  40.4939980  19.2285125  16.6944960  41.0482097  18.4545211
  16.5355093  40.7303188  20.6203826  17.4890731  40.8368851  21.1902463
  15.8834210  42.2120612  20.7009167  15.6819518  42.4642116  21.7015672
  16.9621402  43.2010092  20.1415885  17.9043284  43.0460760  20.6015579
  17.0380667  43.1079854  19.0813417  16.6180113  44.1944481  20.3843640
  14.6138636  42.1900034  20.0553431  14.1153834  43.0693739  20.1067439
  15.6071639  39.5412111  21.1327069  15.1365049  38.7299063  20.3298574
  15.2936193  39.4881268  22.4223714  15.8342947  40.0499407  23.0719710
  14.3599924  38.5633480  22.9943009  14.6951718  37.5665445  22.7777138
  14.2329345  38.8350062  24.5145002  13.6165971  38.0440907  24.9445601
  15.2687241  38.6816236  24.9336773  13.5408377  40.1495996  24.9214827
  14.0358423  40.9935634  24.2781111  12.4670620  40.1212775  24.7484281
  13.8847207  40.6491794  26.3244849  13.4954322  39.9674100  27.0669379
  14.9804656  40.6657215  26.4554866  13.3034496  42.0418270  26.6355947
  13.7366088  42.4186893  27.5149087  13.5475654  42.5759315  25.7091115
  11.8328555  42.0313116  26.7771343  11.5319182  41.4506427  27.5857058
  11.4597621  42.9338600  26.8730438  11.3188144  41.7973227  25.8883520
  12.8933481  38.8198702  22.3499687  12.1858476  37.8489149  22.3816963
  12.5822921  40.0358674  21.8332569  13.2830697  40.7864445  21.9885390
  11.4240335  40.2895542  20.9798461  10.6531659  39.6888737  21.4189229
  11.0873936  41.8201189  21.1806255  11.7832542  42.3990723  20.5255892
  10.1862478  42.0377901  20.6043951  10.9515886  42.4163114  22.5969735
  11.8751161  42.4428744  23.1225016  10.6291402  43.4856500  22.5227251
   9.9890607  41.6715014  23.5272648  10.1319274  41.7734072  24.7227423
   8.9971953  41.0626915  23.1022237  11.5357162  39.8842263  19.4951198
  10.6128513  40.0271874  18.7293353  12.7520334  39.4776057  19.1271684
  13.5178319  39.5116418  19.8486441  13.1207158  39.0164160  17.7578056
  13.7112741  38.0709615  17.8765911  12.1718996  38.8255920  17.2764430
  13.7763233  39.9155756  16.7384262  13.6801225  39.5743368  15.5990587
  14.1858334  41.1184208  17.1473731  13.9785107  41.3100045  18.1173123
  14.7076718  42.1985393  16.2788892  14.1781228  42.0882526  15.3486728
  14.2295813  43.5955115  16.7843354  13.0891223  43.5965237  16.9754084
  14.7127012  43.8438367  17.7592593  14.4717938  44.7481569  15.7807281
  14.1442815  45.7089869  16.1545011  15.4802357  44.8425641  15.5549285
  13.7615208  44.4101318  14.4575640  14.4225273  43.9834332  13.4905222
  12.4710667  44.5419368  14.4239390  16.2010677  42.0310833  15.8999879
  17.0199403  42.1022362  16.7942546  16.5283467  41.7376651  14.6300700
  15.7634948  41.7416958  14.0129557  17.8856495  41.6485956  14.0390954
  18.4564807  40.8917289  14.5846260  17.6866552  41.1839047  12.6066742
  17.0460947  40.2137939  12.6022831  16.9798576  41.8887326  12.0789131
  18.9530390  40.9063754  11.8007271  19.5038520  41.7968346  11.6407249
  19.4974993  40.1014455  12.2996983  18.6348261  40.2715124  10.4311770
  18.1793764  39.3745241  10.5374779  17.9702169  41.0497682   9.8775174
  19.8634826  40.0282376   9.6690560  20.8255255  40.1801577  10.0979134
  19.9085406  39.5635470   8.4465037  21.0797505  39.3484381   7.9025568
  21.9126952  39.4455588   8.4733741  21.2468459  38.9440362   7.0039722
  18.7924231  39.3989656   7.6666002  17.8850777  39.5808260   8.0254711
  18.9540606  39.1006353   6.6862810  18.6557806  42.9892055  14.1066099
  18.4548441  43.8390811  13.2160705  19.4927808  43.2074430  15.1097378
  19.7732026  42.4253244  15.7216085  20.1661114  44.4779894  15.4084786
  19.9152745  45.2539446  14.6783220  19.7536032  44.9654056  16.8272130
  19.9846207  44.2262819  17.6619434  20.3298083  45.9298841  17.0259888
  18.2941292  45.4237524  16.9466670  17.9322363  46.1713656  16.2360281
  17.7497378  44.5128956  16.9318066  18.1508072  46.0441564  18.3625086
  18.5219360  45.4132595  19.1717673  18.6679042  47.0293688  18.3649987
  16.6169947  46.3409433  18.4954163  16.1450676  46.4209618  17.4850355
  16.0998679  45.4943128  19.0726986  16.3779090  47.6196987  19.2677297
  16.7209773  47.6086229  20.2502313  16.6907953  48.4417665  18.8067434
  15.4425651  47.7305558  19.3861964  21.6710716  44.2720853  15.5104043
  22.1897491  43.2853041  15.9580197  22.4647750  45.1122460  14.9194103
  22.0814326  45.9574184  14.5163666  23.9762268  45.0268707  14.8871537
  24.2869410  43.9912459  14.9611422  24.5473870  45.4514207  13.5806419
  24.3638206  46.4913995  13.6037732  25.5702359  45.1496052  13.5746822
  23.9358644  44.9493770  12.3244541  23.9030960  43.8069787  12.3245968
  22.8601942  45.3124736  12.3085327  24.7247755  45.4716473  11.0765760
  24.9255225  46.5648627  11.0682951  25.7341584  44.9993592  11.0803202
  24.1678914  45.0889373   9.7316145  23.9136209  44.0425306   9.5243358
  23.2676523  45.7648808   9.6315268  25.0336188  45.5093825   8.6389540
  24.5485064  45.3918007   7.7450545  25.3162881  46.4657283   8.6873914
  25.8747366  44.9137027   8.5581528  24.7221237  45.7450030  16.0127328
  24.4583069  46.9485170  16.2448666  25.4729248  44.9664430  16.7931552
  25.5148977  44.0406833  16.5090603  26.0152816  45.4366084  18.0719912
  25.1187512  45.5875408  18.6359660  26.8434728  44.3702960  18.7979209
  26.2419391  43.4629065  18.8043914  27.5821867  44.0635957  18.1348879
  27.3465410  44.6658836  20.2407694  27.9669746  45.5288517  20.1012277
  26.2555994  44.9371274  21.2874814  25.9039007  45.9826831  21.3476035
  25.3260770  44.3989643  21.0583941  26.7445664  44.6889019  22.2260109
  28.3683067  43.4994979  20.6282663  29.2014262  43.4623582  19.9694491
  28.7598842  43.6905321  21.6117595  27.8893522  42.5383591  20.6505424
  26.7745424  46.7877377  17.8569454  27.6993369  46.7902599  17.0773927
  26.2810465  47.8569330  18.5160079  25.5589114  47.7179238  19.2527137
  26.7724070  49.1974461  18.3188696  27.8787441  49.1527968  18.1438551
  26.1363210  49.7717964  16.9927857  26.6631274  49.1405721  16.2276873
  25.0367176  49.6021935  16.9266282  26.4356051  51.2291606  16.6179854
  25.9029578  51.8588144  17.3382825  27.5135957  51.4085719  16.6551192
  26.0936107  51.4702590  15.1334192  26.0617407  52.6030321  14.9526102
  26.8613832  50.9776891  14.5787666  24.7748819  50.9907538  14.6497772
  24.6950622  49.9389993  14.8922154  23.9636200  51.4170848  15.2924404
  24.3517833  51.3136252  13.2972530  24.8478749  50.7238255  12.6455131
  23.3809437  50.9829310  13.1591887  24.4432180  52.3016229  13.0514423
  26.7347827  50.1122361  19.5100265  25.9485694  51.0286641  19.6457903
  27.5095153  49.8169596  20.5495204  28.5027849  48.7603373  20.6592288
  29.5383294  49.1265592  20.3514768  28.2403857  47.8717369  20.1224995
  28.6656649  48.4381905  22.2064713  29.6273351  47.9815417  22.3787099
  27.8875292  47.6239249  22.3879186  28.1935463  49.6893685  22.9787102
  28.9920106  50.3014266  23.2026534  27.6058037  49.4638521  23.9519479
  27.2721624  50.3895063  21.9054824  26.2126071  50.2175017  22.1175909
  27.6357813  51.8460709  22.0938235  28.5522663  52.3056805  21.3475859
  26.9749999  52.6338104  22.9699719  26.2350105  52.2423153  23.4477669
  27.2311934  54.0285336  23.2463771  27.3832679  54.5076911  22.2478008
  26.1422085  54.8587940  24.0146366  25.9419734  54.2421116  24.9463246
  26.5237941  55.8103877  24.3274756  24.7823259  55.1224367  23.3350735
  24.7707884  55.8442543  22.5374672  24.4201391  54.2183959  22.8716602
  23.7030058  55.5917569  24.2745883  22.8042505  55.7741022  23.6756902
  23.6021869  54.7924683  25.0130322  24.0332493  56.8317745  24.9935485
  25.0007652  57.0329094  25.1933482  23.1457818  57.4186143  25.8255645
  23.4710760  58.5004019  26.4869949  24.3700192  58.8737635  26.3485670
  22.7552560  59.0181296  27.0368970  21.8939642  56.9381430  26.0112524
  21.4946562  56.1946442  25.4737063  21.2634394  57.4008018  26.6547054
  28.5308590  54.2925993  24.0788393  29.4410439  55.0037892  23.6617659
  28.7227031  53.3982187  25.0944774  27.8749731  53.0104338  25.5217869
  29.9945452  53.3553829  25.8379123  30.4842776  54.3316733  25.7371557
  29.7788703  53.3096484  27.3334910  29.3375371  52.3131602  27.5727279
  30.7175318  53.2411268  27.8762981  28.9787471  54.4355001  27.8939983
  29.5363571  55.6121621  28.2931556  30.5946117  55.8370233  28.2802307
  28.5304275  56.5113789  28.6503608  28.7487001  57.4844481  28.8495201
  27.2817190  55.9101480  28.6817157  26.0086838  56.3391326  29.0366631
  26.0303907  57.3912600  29.3875592  24.9237253  55.4717267  29.0013017
  23.9433918  55.8666506  29.3207291  25.1533715  54.1747240  28.4948059
  24.3313984  53.5031127  28.5569523  26.4051862  53.7293900  27.9970833
  26.5895053  52.6960199  27.6570872  27.5301590  54.5805543  28.1604515
  30.8943158  52.1862904  25.3916722  30.5341200  50.9915207  25.6022198
  32.1437361  52.4299134  25.0357684  32.4857765  53.4143158  24.9810176
  33.1898314  51.4785013  24.7770334  32.7411789  50.5450661  24.5305294
  33.9600470  51.8793656  23.5553032  34.3807382  52.8537448  23.7330853
  34.7706592  51.1533883  23.5714060  33.2368344  51.9087871  22.2542873
  32.4257425  52.7044418  22.2496884  34.3935775  52.0933869  21.1428398
  34.8998115  52.9866167  21.4006222  35.1377434  51.2124073  21.2520243
  34.0082426  52.1966110  20.1377171  32.5527729  50.6280603  22.0083306
  33.2356833  49.8098138  22.0849379  31.6264161  50.5789586  22.5581514
  32.2925320  50.7671943  20.9455724  34.0915144  51.2208247  25.9444778
  34.8518922  52.1156277  26.3925019  34.1089519  49.9365355  26.3216294
  33.3409790  49.3621730  26.0655002  34.9750616  49.3318772  27.3059130
  35.8028456  50.0612858  27.5065095  34.2841821  49.1413685  28.6497336
  33.8291938  50.0945392  28.8877347  33.5161157  48.2948673  28.5666952
  35.1725639  48.6857803  29.8225050  34.7346949  48.7018306  30.9912133
  36.3488754  48.3058807  29.5724358  35.7240010  48.0447436  26.8215085
  35.0967555  46.9900098  26.7527860  36.9953547  48.1949745  26.3796299
  37.4363606  49.1234489  26.4107605  37.8372984  47.1341104  25.8426868
  37.5503539  47.0057022  24.8131450  39.3389415  47.5519318  26.0470941
  39.5207993  47.4328249  27.0950246  39.9840839  46.9062677  25.5209462
  39.5575065  48.5986878  25.7779822  37.6213478  45.7745777  26.6044569
  37.7410047  44.6231565  26.0285969  37.4129655  45.8377339  27.8838988
  37.0886322  46.7080991  28.2690369  37.5026425  44.6019545  28.7312252
  38.5039717  44.1255863  28.4813259  37.4688108  45.0508615  30.2215573
  36.6302857  45.6972909  30.4233136  37.3887098  44.1473654  30.8898049
  38.8173403  45.6658909  30.6348615  39.6544720  44.9444873  30.6909987
  39.1389396  46.2874355  29.8873186  38.7981545  46.4789872  31.8952832
  38.7305366  45.7902620  32.6918112  39.7667166  46.9690938  32.0519715
  37.6125927  47.3763230  32.0994009  37.0464662  47.6204719  31.2991985
  37.3007179  48.0428446  33.1350794  37.9133907  47.8426652  34.2563647
  38.5625193  47.0729138  34.4458681  37.6021778  48.3228593  35.0635433
  36.3883555  48.9225937  33.1279435  35.7993602  48.9651784  32.2948897
  36.1286110  49.4027872  33.9818872  36.3545592  43.6096579  28.4387892
  36.4998503  42.5128184  28.9654663  35.2504896  44.0201107  27.7999300
  35.2430124  45.0224386  27.6316415  34.0073657  43.2279795  27.4628959
  33.9563298  42.2409897  28.0391674  32.6474644  44.0141479  27.6768988
  31.8232481  43.3344377  27.8619584  32.8469597  44.7916722  28.9673843
  33.3986648  45.6317944  28.6561818  31.8753470  45.0682654  29.3737800
  33.3854450  44.2070149  29.7173472  32.1228667  44.8063904  26.4424771
  32.9664759  45.2665577  25.9445229  31.6578856  44.1982107  25.6721555
  31.0392564  45.7841148  26.7560197  30.2365591  45.3376905  27.3495214
  31.4159923  46.6345976  27.1890629  30.6891933  46.1234414  25.7678614
  34.1177377  42.5416705  26.0515559  33.3238353  41.6933465  25.6810728
  35.0148131  43.0216868  25.0975564  35.7714675  43.6015267  25.4039528
  35.0729545  42.4793819  23.7323828  34.5795270  41.5469345  23.8341929
  34.1627178  43.1782648  22.7013378  34.1823479  42.4735296  21.8872786
  33.1257913  43.2381909  23.1286880  34.6143765  44.5930851  22.3668850
  34.1154181  45.6697497  23.1792500  33.4117750  45.5390488  23.9917020
  34.4779677  47.0078420  22.8561760  34.1358056  47.7290651  23.4830051
  35.2034183  47.2464722  21.6094609  35.5809115  48.5218417  21.2835431
  35.8881842  48.6830136  20.3922998  35.6782310  46.1694716  20.8675335
  36.1678973  46.2573373  19.9171364  35.4503579  44.8016989  21.2518889
  35.7768183  43.9491261  20.6392379  36.5198446  42.2360286  23.3361308
  36.7761475  42.0521813  22.1344424  37.4497121  42.1690761  24.2711859
  37.0909854  42.3510315  25.2231645  38.8057608  41.5670368  24.0435714
  39.2154454  41.8986519  23.0884152  39.6971289  42.0300162  25.2436728
  39.1389964  42.0055711  26.1644601  40.4425709  41.2737525  25.3417396
  40.3338576  43.2403803  24.9705129  39.6532198  43.9448780  24.9663167
  38.7844488  40.0469521  23.8546311  39.8500184  39.3901387  23.6729195
  37.6310670  39.3694102  23.8314261  36.8199854  39.9172621  24.0207550
  37.4850401  37.8870918  23.6995837  38.2430864  37.5976804  22.9461321
  37.8184304  37.3168757  25.0609052  38.8628172  37.5270756  25.2235893
  37.3332965  37.8935717  25.8337513  37.6047792  35.8413582  25.0285249
  36.4299535  35.4522276  25.2871671  38.5350718  35.0721530  24.6702838
  36.0860081  37.4626661  23.1256548  35.0432253  38.0570160  23.4639193
  36.0208712  36.4560373  22.2019913  37.1918107  35.7756367  21.6626542
  37.8875307  35.4710030  22.4728671  37.5996273  36.3675119  20.8555287
  36.6072448  34.5869917  21.0586855  36.4345857  33.8914145  21.9238295
  37.1449509  34.0177773  20.2852962  35.1937742  34.9463844  20.5944060
  34.5467463  34.0831981  20.5645508  35.1817398  35.4862367  19.6238447
  34.7815663  35.9999492  21.5838595  34.3324879  36.8293535  20.9922190
  33.6752541  35.4479370  22.5352362  32.5154549  35.4098880  22.1858433
  33.9736988  35.0330697  23.7652337  34.9402371  35.1118650  24.0418709
  33.0293630  34.5489683  24.7592249  32.1425891  34.2417587  24.2592081
  33.6673692  33.3651911  25.5225691  34.5214436  33.6735612  26.0801930
  32.8857381  33.1061333  26.2979947  34.0834939  32.1485428  24.6543006
  35.0344972  32.3234524  24.1076274  34.3137499  30.9290679  25.5382953
  33.3732527  30.6417286  26.0636022  34.7739911  30.1974199  24.8952772
  35.0601578  31.1464254  26.3931482  33.0480426  31.7530212  23.7136896
  32.9494813  32.4614524  22.8875467  33.3600885  30.8067323  23.3249762
  32.1178950  31.6565703  24.2306342  32.6929290  35.5394538  25.8349987
  31.5299779  35.6480894  26.2060753  33.6577482  36.4367399  26.1831053
  34.6014785  36.3569472  25.7587062  33.2941097  37.7252279  26.7756033
  32.8591064  37.4742681  27.7065380  34.5814229  38.5897230  27.0348254
  34.9382857  38.8054952  26.0309888  34.2429935  39.4438456  27.5364728
  35.3790894  38.2242161  27.6943297  32.3040255  38.5471902  25.9021481
  31.3401730  39.1389992  26.4466931  32.4532282  38.5385931  24.5917276
  33.3036146  38.1397648  24.2419021  31.5113277  39.1715144  23.6220315
  31.4281295  40.2088216  23.9438755  32.1879656  39.0831492  22.3007768
  33.0925053  39.6225675  22.4618190  32.3486310  38.0646564  21.9985625
  31.3581803  39.7419138  21.1608199  30.4966783  39.1889912  21.0635434
  31.0009274  41.1511860  21.4478248  31.9257660  41.6207796  21.9382596
  30.6820140  41.7487241  20.5916707  30.2423209  41.1235718  22.2749026
  32.1273060  39.6937606  19.8630639  31.4300398  39.9069476  19.0734625
  32.9343099  40.4529353  19.8766430  32.5135515  38.6749595  19.6471473
  30.1244068  38.4874148  23.6977604  29.0921874  39.1445910  23.6014465
  30.1078206  37.1264873  23.7042183  30.9702798  36.6760613  23.4009502
  28.8927763  36.3247031  23.6737537  28.2457590  36.6206394  22.8795016
  29.2173764  34.8257802  23.3931188  29.9160631  34.7295131  22.5299816
  29.6351935  34.4742361  24.3121080  27.9147608  34.0555836  23.1880046
  27.2314885  34.2258236  24.0109303  27.4959535  34.4671498  22.2690770
  28.2146784  32.5753509  23.0093737  28.6889380  32.2532008  23.9131641
  27.2199602  32.0952271  22.9889692  29.1279651  32.2185381  21.8438560
  28.7332088  32.7599255  21.0033028  30.1783113  32.4348354  22.0716128
  28.9799088  30.8130596  21.5724524  29.5594468  30.6312101  20.7737605
  29.3619142  30.2396568  22.3455841  27.9908847  30.6162583  21.2586644
  28.0911230  36.6448663  24.9413537  26.9018820  36.8868584  24.8375484
  28.7043768  36.8619402  26.1104312  29.6849002  36.6117448  26.2415040
  28.0521640  37.2491999  27.3681877  27.2288990  36.5503731  27.6246410
  29.0745115  37.3125969  28.4913142  29.9932513  37.8176545  28.1324305
  28.6205337  37.9326342  29.2435382  29.4682512  35.9648391  29.1203506
  29.2368935  35.1176775  28.4291137  30.5130500  35.7831909  29.0755966
  28.8983699  35.7223068  30.5314161  28.3865261  34.5818601  30.7580534
  28.9976662  36.6256568  31.3652609  27.4253923  38.6063297  27.1906455
  26.3510105  38.8971343  27.7578342  28.0001660  39.5447341  26.4052947
  28.8802640  39.3859460  25.9151964  27.4276666  40.8646923  26.2114071
  26.9079238  41.1932211  27.1002139  28.5832717  41.8421065  25.9172657
  29.2985584  41.8167385  26.7430713  29.1741643  41.4640093  25.1617525
  28.1460535  43.2496460  25.6970615  27.4627879  43.8578968  26.7613758
  27.3639068  43.3456378  27.6983745  27.0445889  45.2030948  26.6306423
  26.5764312  45.7315299  27.4071458  27.4515618  45.9871757  25.5098057
  27.2002575  47.0495036  25.4031343  28.0315416  45.3380419  24.4053897
  28.4498800  45.8211005  23.5258431  28.2969999  43.9424488  24.5109077
  28.7191977  43.3544365  23.7419695  26.3492148  40.8152317  25.1181737
  25.5118393  41.7070323  25.2304677  26.4009749  39.8059480  24.1879029
  27.1025826  39.0615800  24.2140731  25.2949777  39.5959307  23.1509049
  25.0249204  40.5567377  22.7164728  25.7526786  38.6062279  22.0394531
  26.3104535  37.8571571  22.4844380  24.8653112  38.1609364  21.6502236
  26.6624233  39.3006122  21.0508428  25.9629326  39.5760758  20.2765994
  27.0817999  40.2282478  21.4360077  27.7439414  38.3919842  20.4580593
  28.4581543  38.9845206  19.8668443  28.3458544  37.9643069  21.3227028
  27.2185086  37.2307454  19.6198570  26.6929766  36.5694582  20.3391402
  26.6182396  37.5730735  18.7625025  28.3972629  36.4703719  18.9338575
  28.2331179  35.4790549  18.7944475  28.6247078  36.9001639  17.9984088
  29.1668418  36.5314130  19.5409274  24.0704162  39.0462057  23.8629929
  23.0034887  39.5237030  23.5684510  24.1467622  38.1582753  24.8891641
  25.0751074  37.7538573  25.0223942  23.0328663  37.7286984  25.6583249
  22.2387441  37.4873330  24.9215235  23.4839112  36.5104421  26.5322369
  24.1875220  36.9788101  27.2665731  22.6309059  36.1445309  27.0680821
  24.0905246  35.3267412  25.7587124  24.9317256  35.6133749  25.0671627
  24.4494926  34.6846011  26.5429071  23.0546061  34.5981602  24.9138311
  22.0378672  34.0502919  25.5013298  23.2463032  34.4902978  23.6877487
  22.4630001  38.9385983  26.4645908  21.2509326  38.9743102  26.6614653
  23.2719780  39.8731323  26.9392887  24.3130345  39.6664438  26.8897852
  22.8620241  41.1217923  27.5766195  22.1512898  40.7291436  28.2752349
  24.0863081  41.6890688  28.3908140  24.3906460  40.8931562  29.0957114
  24.9379702  41.8539931  27.7230398  23.7696126  42.9852463  29.0324273
  23.3817652  42.9521921  30.3873586  23.4206074  42.0219329  30.9028634
  23.0468949  44.1055309  31.1308992  22.6473372  43.9687582  32.1035959
  23.1720786  45.3598426  30.4664991  23.0354025  46.3067337  30.9966388
  23.5360765  45.4023464  29.1057416  23.5545153  46.4073583  28.5380715
  23.9316609  44.2402628  28.4493905  24.2249220  44.4285238  27.4132127
  22.1676531  42.1090477  26.5025614  21.0237398  42.4900106  26.7761495
  22.8188939  42.4256909  25.4070562  23.8751185  42.3120086  25.3806027
  22.1978218  43.2277843  24.3278978  21.9462742  44.2545586  24.7659967
  23.3173636  43.4369587  23.2765205  23.5124645  42.6350267  22.6471737
  23.0426639  44.2594811  22.6555431  24.2791726  43.6292334  23.7563688
  20.8779147  42.6719767  23.8453138  20.0134194  43.4721412  23.5332698
  20.7607859  41.3644109  23.7019213  21.4873593  40.7848373  24.0141870
  19.5213932  40.7446446  23.2017756  19.2651582  41.2044611  22.2215127
  19.8277511  39.2499286  22.9312520  19.9124968  38.7333069  23.8815941
  19.0964543  38.7491614  22.2685346  20.7745572  39.2436558  22.4034580
  18.3436253  40.9146355  24.2546214  17.2056318  40.6123544  23.9864763
  18.6634981  41.1835905  25.6107753  19.6058908  41.4065942  25.7624306
  17.6835297  41.1396921  26.7613711  18.1328205  41.7683991  27.5859597
  16.7187190  41.4143660  26.2977442  17.5162444  39.7715364  27.4595132
  16.5132136  39.4380574  28.0260385  18.5024557  38.8729236  27.2622550
  19.4288991  39.0805901  26.8685137  18.4559133  37.5794121  28.0036540
  17.4279189  37.3154146  28.1115865  19.0408122  36.3600205  27.1657078
  20.0851158  36.4591842  27.2536164  18.8182371  35.4640023  27.8129238
  18.6127979  36.1772549  25.7251781  17.5176337  35.8798125  25.7792002
  18.7625684  37.1779899  25.1352539  19.3859158  35.0219429  25.1042136
  20.4084470  35.4195166  24.7690082  19.6009197  34.2883327  25.9183332
  18.6346204  34.3895804  23.9611693  17.7741478  34.7901386  23.7680101
  19.0910967  33.3352339  23.3085260  18.2362569  32.7601693  22.4697507
  17.3737283  33.2516721  22.4042091  18.3334893  31.8329777  22.0483082
  20.3243932  32.8775475  23.5108829  20.9615990  33.3376057  24.1257672
  20.7171192  32.1704699  22.8805249  18.9756988  37.5771684  29.4457095
  18.2308124  37.1665758  30.3137317  20.1853869  38.1309298  29.6973152
  20.7074649  38.5503189  28.9113097  20.7167352  38.3942694  31.0995239
  20.5369681  37.5139448  31.7371139  22.2560104  38.6311327  31.0515041
  22.4194681  38.9877297  30.0135802  22.5516928  39.4177959  31.6731711
  23.1287330  37.3324537  31.2445053  22.7169820  36.6502392  32.0052256
  23.2642389  36.8749397  30.2744954  24.5515150  37.6988757  31.7607376
  24.4904324  38.1883695  32.7448395  25.0308562  36.7711727  31.9367726
  25.3398334  38.4286293  30.7511431  25.2808080  37.9330055  29.7629365
  24.9507965  39.4691427  30.6362031  26.7301508  38.5248191  31.1686895
  27.2723770  39.1738679  30.5969209  26.8144340  38.8025964  32.1595724
  27.2346865  37.6728285  31.1463205  19.9138027  39.4574371  31.8693065
  19.6266575  40.5042771  31.2802832  19.5752032  39.2583094  33.0588237
  50.2872012  34.2127714  51.8044801  53.7783926  33.8098303  49.2746422
  53.2409906  34.7347476  50.3614094  51.7465817  34.6468129  50.4193811
  53.9273114  36.0365537  50.6495159  53.8567859  33.8132802  51.7473326
  53.3366414  33.6431000  53.2660495  51.8438658  33.7627546  53.3818644
  54.1395951  34.5109677  54.2182999  53.7391489  32.1037736  53.4521785
  52.9470966  30.8230338  53.8851305  52.1692455  30.9969041  55.1807420
  52.3000020  30.3068589  52.5869638  54.2130401  29.8225226  53.9895640
  54.9335117  29.6674806  55.2295679  54.3239809  29.6552959  56.1412210
  55.6024797  30.5274282  55.3307362  55.8309705  28.4496087  55.2787892
  56.3674431  28.3342338  56.2513621  55.0291198  27.3255796  55.2038585
  55.4828673  26.4709753  54.1768489  56.0952129  25.7948041  54.7487042
  54.4858816  25.7115437  53.5177804  53.4910501  26.2108134  52.6288206
  53.3730219  27.2243972  52.4168419  52.8663234  25.2386653  52.0463189
  53.3650003  24.0377944  52.5234258  53.0074184  22.7084054  52.3780561
  51.9096992  22.3236162  51.6404261  51.6672087  21.3481885  51.5589336
  51.4282437  23.0319719  51.1351284  53.6819852  21.7422719  53.0871557
  54.7196570  22.1516078  53.8425785  55.2765574  21.3185885  54.2463945
  55.0885071  23.3985272  54.1135270  54.3594769  24.3297870  53.4506830
  56.8389774  28.4237794  54.1546904  56.7561065  29.3719896  53.5889682
  58.0811336  28.2305965  54.7493214  58.7403976  28.2711715  53.9929129
  56.3562080  27.2885795  53.2496995  55.7126437  27.7710586  52.5125296
  57.3815952  26.6307229  52.5319014  57.9383595  26.2219853  53.1981851
  27.5711473  56.1319830   7.6094905  28.3357869  56.1664899   8.2332937
  29.5175961  55.3412654   8.0362678  29.2867564  54.4280514   7.5955680
  29.8855360  55.1811322   8.9960849  30.6236372  56.1010117   7.2670666
  30.2106675  56.2651826   6.2968878  30.9245176  57.2665563   7.9517155
  32.1973768  57.7517952   7.5593413  32.2264100  58.5306098   6.7806813
  32.9154860  58.3844782   8.7371591  32.3326793  59.1283926   9.7489758
  31.2622101  59.2580530   9.7863800  33.1634871  59.5912667  10.6062274
  34.4105162  59.1996317  10.0848436  35.7233964  59.2517067  10.5662953
  36.1532678  60.0145341  11.5551510  37.1189208  60.0515790  11.7830364
  35.5520237  60.7727701  11.9027998  36.7267059  58.7149403   9.8551640
  36.4901489  58.0585480   8.7104564  37.3644747  57.6777616   8.1913312
  35.3211274  57.8873373   8.2302912  34.2954141  58.4894333   8.9516196
  31.9625120  55.3343696   7.1087320  32.2764664  54.7658497   8.0081427
  32.9293627  56.5020980   6.9392719  33.8453918  56.1314779   7.4427720
  33.0024246  56.8696304   5.5839262  32.8751156  56.0233195   5.1133672
  32.1141734  54.4748466   5.9378574  32.7525960  53.0532732   6.1834342
  33.0090427  52.5032897   4.8166940  31.7391081  52.3421111   6.9528018
  34.1264988  53.2214914   7.0414865  34.3880662  52.3108927   8.1332207
  34.8555022  51.4043333   7.8047809  33.4013937  52.0508749   8.6418892
  35.2594736  53.0497425   9.1781107  36.2491613  53.2238879   8.7977400
  34.9316211  54.3901500   9.3143188  35.2488025  54.8092482  10.6573072
  35.8910879  55.6536254  10.6850656  33.9382442  55.1442515  11.1464612
  32.6326823  54.7593251  10.7916709  32.5203061  53.9557373  10.0733953
  31.6827895  55.5087527  11.1550810  32.3044335  56.4607375  11.9600504
  31.8468957  57.5161244  12.8154401  30.5750510  57.7966308  13.0568663
  30.3576267  58.5671795  13.6754144  29.9072858  57.3524034  12.4595063
  32.7810623  58.1166267  13.5830988  34.0135997  57.8049038  13.5185058
  34.7011921  58.3086636  14.1725128  34.5077229  56.7397419  12.8308105
  33.6544650  56.1823988  11.9895420  35.3442578  52.4550880  10.5447283
  34.3818765  52.2451541  10.9728069  35.9064090  53.5690544  11.4060909
  35.5706385  53.4048542  12.3971657  37.3188951  53.8216806  11.4082728
  37.5455713  54.3940902  12.1205472  36.0194955  51.1961032  10.6457633
  35.5746950  49.8826298  11.5179086  36.7605145  49.0043899  11.5393377
  34.2790831  49.3810261  11.0728450  35.3014569  50.3567369  12.9438906
  34.8951538  49.2906898  13.8897166  34.2311885  48.4452155  13.4319037
  34.3948742  49.6807013  14.7125607  36.1478261  48.6774901  14.5536558
  36.8370986  48.1820138  13.8574208  36.8353457  49.6787196  15.2363596
  36.6560448  49.5983448  16.6158183  37.5542324  49.1865098  17.1056396
  36.3743544  50.9167739  17.2783451  35.2084937  51.4662244  17.7344401
  34.2733527  50.9836078  17.8365134  35.3485671  52.7372226  17.9112966
  36.7180067  53.0689566  17.6976447  37.6529227  54.1773555  17.9129015
  37.3316495  55.4290180  18.2890919  38.1384373  56.0395811  18.4018524
  36.3453628  55.5302937  18.6530836  38.9420200  54.0961767  17.6782150
  39.4230551  52.9514228  17.2903181  40.5037238  52.8959217  17.1680580
  38.7230450  51.8088670  17.1189995  37.3423072  51.9364431  17.3059967
  35.7712645  47.6595216  15.6810953  34.8913416  47.1567180  15.2507592
  35.5224121  48.5979156  16.8569077  34.5500844  49.1050712  16.7568334
  35.6398877  47.9040755  18.1079236  35.5145520  46.9540772  17.7869245
  36.8996181  46.8771409  15.7936154  36.6912494  45.3674235  16.1718785
  36.4162882  44.7402037  14.8887536  35.6628445  45.2346069  17.1699930
  38.0133083  44.6888787  16.7620728  38.5138934  45.1472674  18.0212721
  38.0192495  44.4913271  18.7480470  38.1696904  46.2053348  18.1210337
  40.0500186  45.0191982  17.9280196  40.2469152  44.6395540  16.9792273
  40.6645806  46.2781161  18.0979266  41.5201089  46.3799833  19.2462240
  42.4644321  47.0349247  19.1054939  40.7855687  47.0122912  20.4233521
  40.4836018  46.4680215  21.6762679  40.6543002  45.3711187  21.9337751
  39.7094930  47.1758509  22.4758933  39.6304380  48.4043855  21.7139161
  39.0929775  49.6904378  22.0064258  38.3273380  49.8630856  23.0489679
  38.2940814  50.8537882  23.2942770  37.8806011  49.1695639  23.5672892
  39.2622819  50.6898182  21.1460569  40.0854455  50.4773660  20.0511412
  40.1002670  51.2966819  19.3034132  40.5756750  49.3278514  19.6768337
  40.4223304  48.3182115  20.5593234  40.6549992  44.0980678  19.0652553
  40.0008883  44.0661051  19.9333422  41.9271402  44.9128775  19.4533184
  42.1894619  44.6914302  20.5050133  43.0094588  44.6061237  18.5907586
  42.7258857  44.5005358  17.6524299  41.0038311  42.8052996  18.5667519
  41.2536937  41.5411606  19.5605596  42.1435650  40.6061491  18.7862245
  39.9281644  41.1007868  20.0704930  42.0511732  42.2077048  20.7855901
  41.8208760  41.8154876  22.1580951  40.9468410  41.1655797  22.2404871
  41.5868589  42.7291399  22.7444982  43.0586029  41.0516464  22.6765400
  43.0612630  39.9967659  22.3058432  44.2749810  41.6031006  22.2045586
  44.7947963  42.4634190  23.1856524  45.8729983  42.5087612  22.9867355
  44.2319884  43.8350507  23.1290626  43.2301319  44.4249743  23.9385017
  42.7969386  43.8964081  24.7440474  43.0189132  45.7028538  23.7148234
  43.8699087  45.9819922  22.6252483  44.1047165  47.0472185  21.8038525
  43.6543439  48.2898073  22.0073398  43.9126846  48.9579020  21.2983732
  43.0501549  48.4776630  22.8003687  44.8492588  46.9262411  20.7314998
  45.4037985  45.7443848  20.4323709  46.1322454  45.7010114  19.5500431
  45.3775474  44.6759924  21.2086821  44.4932834  44.8063131  22.2192371
  43.1333944  40.9927992  24.1726264  42.3512827  41.6824213  24.5536970
  44.4934450  41.7132500  24.4847286  44.4072054  42.3604321  25.3040993
  45.4865482  40.8240779  24.7476358  45.1657636  40.3019110  25.4880047
  42.9753696  39.6598220  24.6614885  42.9382762  39.2784778  26.2493413
  44.1718151  39.8126139  26.7136303  42.5589324  37.8595436  26.3236394
  41.8285349  40.2432276  26.8569002  42.0167777  41.3394989  27.7321874
  41.0678439  41.8014284  28.0025708  42.5736835  42.1477442  27.1862126
  42.8178225  41.1245820  29.0011928  43.8549009  40.8267671  28.7709967
  42.7998709  42.3537523  29.6425925  43.0731541  42.1372093  31.0109399
  44.0629589  42.5208653  31.3698618  42.0060166  42.8793331  31.6958447
  40.6419878  42.6749519  31.6006518  40.2126222  42.1255434  30.8496376
  39.9073011  43.2866251  32.4757976  40.8933572  43.8308118  33.3529186
  40.8524658  44.6077768  34.5480125  39.8343260  45.0684262  35.2757891
  40.0573715  45.4227186  36.2243282  38.9107898  44.7297184  35.0704460
  41.9570399  45.0245208  35.1103424  43.1438845  44.7596484  34.5151745
  44.0762009  45.0456417  34.9678296  43.3181742  43.9774925  33.4631910
  42.1495630  43.5929542  32.8628793  42.2120924  40.1937079  29.9971480
  41.1634965  40.4087450  30.0279807  42.9942615  40.6267172  31.2094340
  42.4050704  40.4311166  32.0952332  44.3875671  40.2122729  31.1525071
  44.3239516  39.2605106  31.0637287  42.5463493  38.8869761  29.7700597
  41.6636169  37.7589534  30.4478519  42.1610030  36.4801519  29.9538851
  40.2413687  38.0850662  30.2355412  41.9545431  37.9469337  31.9926095
  43.2083493  37.4839033  32.5539747  43.9709024  37.8742171  31.9815632
  43.2523565  36.4053164  32.4604874  43.4674899  37.9822230  34.0114023
  44.5062150  37.7459891  34.3595150  43.2592797  39.3845198  34.2129058
  43.0241820  39.5372049  35.6223413  44.0565370  39.8270394  36.0270956
  41.9540064  40.5434929  35.8296698  40.7135780  40.6118301  35.2690369
  40.3926078  39.9697880  34.3657099  39.8770570  41.3898206  35.9499039
  40.6669263  41.9647628  36.9532476  40.4265943  42.8239504  38.0508280
  39.2537633  43.3627136  38.3301604  39.2107869  44.1420807  39.0143371
  38.4842427  43.0847871  37.7418811  41.4064939  43.1527060  38.9220984
  42.5581312  42.5020991  38.7995429  43.2617437  42.5806283  39.6019902
  42.9768099  41.6955745  37.7799701  41.9664343  41.5664719  36.8511210
  42.3427035  37.4346577  34.9552660  41.4363086  37.7335913  34.4958136
  42.5889754  38.1953845  36.2438414  41.6847115  38.2780637  36.8336636
  43.7043626  37.7200474  36.9607632  43.3103091  36.9544812  37.3722842
  42.3800907  36.0154466  35.0728809  41.2573281  35.1966808  35.8391616
  41.4049645  33.7749125  35.4897090  39.9662756  35.8843942  35.6664483
  41.7602101  35.4837861  37.3623508  40.8959841  35.3184154  38.4779816
  41.2086544  34.4602316  39.1152098  39.8079402  35.2530844  38.1862680
  41.1147614  36.4464074  39.5203215  42.0790084  36.3436253  40.1150937
  41.2076600  37.7287455  39.0636472  40.4117233  38.5866600  39.8894027
  40.8804324  39.5231246  40.1226397  39.1931582  38.9300223  39.1501650
  38.6788099  38.3231759  38.0152784  39.0306751  37.4370413  37.6353671
  37.6052269  38.9332331  37.5359085  37.3939575  39.9665912  38.4981431
  36.5533795  41.0625494  38.5724757  35.8080215  41.4662043  37.5835013
  35.3329880  42.3651803  37.6425963  35.9039431  40.9285098  36.7440178
  36.6912478  41.9677227  39.5162259  37.5755749  41.7738036  40.4849871
  37.7044637  42.6179757  41.1588867  38.4694723  40.7806475  40.4830461
  38.3232880  39.9222402  39.4738676  39.9987895  36.4007039  40.5413449
  38.9717361  36.3772256  40.0599525  40.0577896  37.7793649  41.0753166
  39.1069212  38.0868953  41.4938719  41.1798264  37.8939649  41.9893599
  40.9881996  37.1934604  42.7191167  40.1452923  35.3875717  41.5611039
  39.0471678  34.3009249  41.7700777  39.6268522  33.2941151  42.6658823
  38.6127104  33.8700435  40.4542746  37.7457665  34.9824265  42.5049852
  37.9500519  35.8516647  43.5890521  38.8516078  36.4378881  43.5219941
  38.0040228  35.2399429  44.4894090  36.7448022  36.8176816  43.7715530
  36.8836346  37.4307839  44.6934087  36.6572308  37.5880822  42.6132487
  35.4461562  38.1829402  42.6344716  35.5914725  39.1284294  43.1738246
  34.8659805  38.3431348  41.3054965  34.9186331  37.3928003  40.3006393
  35.4803758  36.4500675  40.3756427  34.3099110  37.9016041  39.2169621
  33.8219039  39.1852949  39.5587292  33.0391864  40.2305720  38.9621176
  32.6076347  40.1517215  37.7535433  32.1277472  40.9341288  37.4388580
  32.7117898  39.2868744  37.2388674  32.7138305  41.3707272  39.5753390
  33.1417386  41.4962188  40.8234640  32.9822661  42.4980757  41.2956261
  33.8323747  40.6161003  41.5901961  34.1601632  39.5078975  40.8547483
  35.4395236  36.0815015  43.8423502  35.3570830  35.3771613  42.9638032
  34.5609010  37.3046799  43.5620292  33.6675946  37.0805345  43.0055459
  34.2161614  37.9842629  44.7002938  34.3611650  37.4265345  45.5395435
  35.1623180  35.5168845  45.0759220  34.1645107  34.4058309  45.0536652
  34.5525850  33.4432855  44.0641896  34.1336310  33.9470364  46.4625134
  32.7309696  34.9605273  44.7540889  31.6748197  35.1848516  45.7523476
  31.7391140  36.3153292  46.0027606  31.8685500  34.6529114  46.6677021
  30.3124938  34.7781860  45.1922622  29.5845216  35.0628917  45.9518243
  30.0870932  35.3024836  43.9045028  30.1733265  34.2037369  42.9795018
  29.1442428  33.8665739  42.6957481  30.9511904  34.5832776  41.7839893
  32.2533366  34.8514580  41.6693609  32.9991019  34.7084745  42.4375298
  32.5805133  35.3303936  40.5054553  31.3534922  35.4446340  39.8124512
  31.0022921  35.8938767  38.5588313  31.8384115  36.5737611  37.8094864
  31.4137754  37.0823263  37.0387281  32.7914268  36.8469428  38.0764246
  29.7310030  35.8998184  38.1198216  28.9245676  35.3517322  39.0284115
  27.8913000  35.1356680  38.6922717  29.0874187  34.8057901  40.2773776
  30.3614649  34.9197908  40.5938009  30.2883736  33.2301858  45.1272053
  31.0040388  32.8223114  45.8859841  30.7243669  32.9304885  43.6371924
  31.7409265  33.0466278  43.6877944  30.4118154  31.6997177  43.0611174
  31.1089327  31.4946733  42.4136755  28.9739084  32.7183214  45.2794232
  28.6481821  31.7176105  46.4973421  29.8197198  30.8568385  46.8518751
  27.2699661  31.1357164  46.3245458  28.4401649  32.6332363  47.7705936
  29.5647191  33.2548359  48.4848133  30.3114671  33.3453245  47.7117060
  29.9749575  32.4429258  49.1189766  29.2620677  34.5766626  49.1608718
  30.1477412  34.7352903  49.7135130  28.9686261  35.6199819  48.2985744
  28.3331624  36.6295927  49.0664206  29.0415051  37.3651820  49.3735959
  27.2686239  37.3356770  48.2647791  26.4423701  38.3050661  48.8054187
  26.4369032  38.5498466  49.8897813  25.8166059  39.0100233  47.9198859
  26.1154404  38.3300447  46.7347009  25.6325946  38.5236249  45.3746236
  24.6932610  39.4359073  45.0282094  24.2778277  39.3257519  44.1491477
  24.3673026  40.0501500  45.7627094  26.0296758  37.7902159  44.3978378
  26.9154104  36.8778398  44.7074729  27.2608637  36.2695313  43.8601989
  27.4594799  36.5375698  45.8455913  27.0588487  37.3590309  46.8839933
  28.0050260  34.4787195  50.0329391  27.0815719  34.1568825  49.4414717
  27.8261797  35.9689262  50.3661296  26.7884155  36.2121785  50.6061575
  28.7535816  36.3924995  51.3579941  28.7874786  35.6710033  51.9856482
  28.1562289  33.7924877  51.2511586  27.1322669  32.6569491  51.6226480
  27.3893641  32.1107014  52.9821248  27.1481229  31.6879942  50.4945912
  25.7237201  33.3786887  51.6019469  25.4075831  34.3552215  52.5351807
  26.1797099  35.0465805  52.6444800  25.3256322  33.9025431  53.5392242
  24.1105318  35.0289170  52.1643911  23.8664044  35.6720446  53.0276178
  24.1550525  35.7943032  50.9373938  23.1173597  35.4383701  49.9700013
  22.7939812  36.3333160  49.3686207  23.5744782  34.3782140  48.8885715
  24.2078719  33.1267007  48.9439235  24.1006613  32.5179031  49.8037256
  24.7630562  32.7024426  47.8656661  24.4777991  33.7452828  46.9765412
  24.7902417  33.9858435  45.5987718  25.5354599  33.1823248  44.8271162
  25.3579201  33.1875497  43.8439330  26.0335227  32.3689646  45.2206265
  24.2704203  35.0565528  44.9056116  23.4582000  35.8244521  45.6527903
  22.9734784  36.6058418  45.1754705  23.1514949  35.7588001  46.9119428
  23.6918773  34.6957511  47.5307987  22.8992690  34.1427128  51.9003915
  23.2306783  33.2270247  51.3067406  21.9867559  34.8633579  50.8804275
  21.2838391  34.1364709  50.3982231  21.2870079  35.9294813  51.4189309
  20.9301378  35.5354015  52.2622922  22.1089076  33.5932888  52.9277857
  21.4258781  34.3246712  54.1924274  21.2559361  33.2756440  55.2541336
  20.1454190  34.9823133  53.7178233  22.4828455  35.4087570  54.7073844
  22.1891786  36.3618040  55.7267610  21.4375690  35.7571108  56.3069371
  21.8069534  37.2484297  55.2731612  23.3747322  36.6582371  56.6733182
  24.1650894  35.9083141  56.4525769  23.9077673  37.9025214  56.3718756
  24.2905989  38.5400910  57.6066883  25.2648904  39.0016682  57.7098334
  23.2462054  39.6204569  57.8115074  22.0299287  39.8081835  57.0320011
  21.8325678  39.1085545  56.2057048  21.3893891  40.9150218  57.3396959
  22.0641198  41.3811784  58.4142854  21.7429297  42.4295065  59.3039727
  20.6830653  43.1737787  59.2561524  20.4401386  43.8646344  60.0277189
  20.0336998  42.9478424  58.5759269  22.6199606  42.7241562  60.2798750
  23.7417403  42.0284223  60.4252645  24.4208200  42.3259140  61.2758718
  24.1426652  40.9685358  59.7279219  23.2006512  40.6547050  58.6995942
  23.0596076  36.5791472  58.1592005  22.0190954  37.0249587  58.3442145
  24.1253506  37.5736212  58.7745572  23.7468641  38.1076863  59.6316526
  25.3483200  36.8876498  58.8664561  25.2680688  36.2162164  59.5712691
  23.2318785  35.2459989  58.5677069  22.0240477  34.3879063  59.0762681
  22.2837652  32.9393678  58.7655871  20.7923640  35.0012602  58.6383400
  22.1489012  34.5740862  60.6497379  23.3582628  34.1932616  61.3006540
  24.1267371  33.9405704  60.6211479  23.1810999  33.2822396  61.8498391
  23.9264655  35.2781118  62.2279421  24.8955706  34.9578747  62.5481095
  24.0144359  36.5237580  61.6134161  23.9005176  37.5331952  62.6405749
  24.7861265  38.2308922  62.5824840  22.6505779  38.3069035  62.3068879
  21.6870905  38.1194342  61.3687027  21.6239979  37.2661970  60.7394473
  20.7965189  39.0882027  61.2162310  21.0643066  39.9411921  62.2405508
  20.6155541  41.2021209  62.7171970  19.5788650  41.8153581  62.1748383
  19.2137963  42.6639716  62.5600268  19.1160493  41.3623307  61.4193504
  21.2274342  41.9024467  63.6256068  22.3564926  41.3939512  64.0959757
  22.9305490  42.0275831  64.7354758  22.9085031  40.2492647  63.8134380
  22.2699371  39.5458580  62.7977177  23.0870450  35.5243112  63.4764433
  22.0114665  35.7298947  63.2362286  23.7332770  36.8557946  63.9038973
  23.0984806  37.4121378  64.5961189  24.9676498  36.6675783  64.5519686
  25.0949321  35.7188378  64.6610649  23.3061469  34.4464821  64.3556513
  22.2807245  34.2731534  65.5186247  22.8142495  33.2258766  66.4667993
  20.9525172  34.1759601  64.9496904  22.3947163  35.6156625  66.3234437
  23.4166811  35.7787296  67.2870168  24.2935584  35.5884975  66.7184425
  23.2512521  35.0124379  68.0813004  23.3505129  37.1256889  68.0146249
  24.2468066  37.0785902  68.6745335  23.4290328  38.3105804  67.2043254
  22.5099318  39.2838649  67.6428560  23.1114525  40.2114189  67.7065335
  21.2948320  39.5376523  66.8385981  20.4353960  38.6529536  66.2706784
  20.5943391  37.6191665  66.1841329  19.4516549  39.3399093  65.7756443
  19.6151584  40.6694167  66.1669311  18.8118536  41.8508685  66.0179850
  17.7576924  41.9774292  65.2525442  17.2496395  42.8014846  65.2871664
  17.3658949  41.1924922  64.7975670  19.1786380  42.9450121  66.7318851
  20.4063015  42.9681191  67.3455521  20.7419936  43.9386694  67.7156339
  21.2497137  41.9559929  67.4947143  20.7154623  40.7997874  66.9472936
  22.0776782  37.2984153  68.9510486  21.1001257  37.0071693  68.5373952
  22.1269139  38.8217873  69.0287250  21.1458406  39.1629799  69.2872478
  23.0326635  39.3439951  70.0240883  22.9244174  38.7811032  70.8124467
  22.3088814  36.6964808  70.2347124  21.2595124  35.6038355  70.7753297
  21.5711449  35.3380611  72.1929267  21.1382811  34.5156818  69.8224760
  19.9055921  36.3772949  70.6743042  19.6270285  37.5845413  71.4015625
  20.2206386  38.3480825  70.9614671  19.8990852  37.5130784  72.4637937
  18.1344938  38.0012282  71.4658377  17.9176737  38.4464549  72.4104491
  17.7791519  39.0126052  70.4621767  16.4148447  38.6629924  69.9965949
  15.6990202  38.9681518  70.8369634  16.1819257  39.4537959  68.7886898
  16.2151346  38.9965225  67.5004907  16.4870143  37.9843868  67.2756329
  15.9170781  39.9687906  66.6546752  15.5128932  41.0425013  67.4638094
  14.9440320  42.3245132  67.2751134  14.7225098  42.8761315  66.1304246
  14.3880806  43.7838282  66.2340638  14.8288284  42.3564646  65.2355414
  14.6918794  43.1610749  68.2024295  14.8532739  42.7287912  69.4027089
  14.4246652  43.4277229  70.1365384  15.2663833  41.4871756  69.8271589
  15.6636681  40.7367465  68.7832179  17.0765290  36.8722491  71.3142667
  17.5195331  35.8503668  71.2243645  16.4160436  37.1747193  69.9679840
  17.0763435  36.8954883  69.2554907  15.1347408  36.6491723  69.6372973
  14.5240663  36.7569892  70.4294150  16.1381749  36.9238816  72.3734895
  15.2820780  36.5822124  72.0749018  35.3445889  -6.8454265  24.6868157
  26.3925596  71.5578944  12.3622450  21.2174722   6.6580607  57.3733671
  66.4220964  70.5623469  43.5483727  53.4295795   2.3669445  24.7846701
  55.6216761  49.7665500  75.3756543  34.1386010   1.2623553  46.5443778
  75.2202738  16.7069914  50.2751642  44.1095579  43.4225551  -4.2973988
  13.2557624  58.0283169  18.9915968  69.6387573  78.8563902  55.7451026
  64.8083427  50.1514730   5.4078656  74.1399523   6.2856227  30.2383012
   6.1928867  71.7740344  62.5381173  74.8138163  77.0942954  26.0262542
  -4.2274938  31.4624945  12.3015556   1.8824666  31.9265793  61.8258906
  49.0484712   9.2955642  37.7620144  88.5836590  40.1344513  40.8656502
  -1.5438906  53.2405802  31.7781359  18.2840799  -3.7571252  40.3590650
  30.7446219  78.5805775  70.2212246  59.1149639   6.3213180  59.4511001
  -0.9331525  51.5560828  59.2238366  78.8678346  39.6931248  75.6149496
  63.7347776  88.7008156  43.4379517  48.0841071  36.1557065  82.6490708
  51.5890466  75.3505852  20.3593991  64.9385952  20.2549783  80.3680346
   1.1195358  33.8740744  42.2010055  89.4946412  24.8808959  10.7321195
   3.5453701  45.7365025  78.4782894  39.6040371  19.3846079  77.4803222
  39.7112344  20.9671783   2.8845842  38.1091339  45.0497322  13.4040794
  32.6961912  49.1028435   9.4653441  69.5790145  41.8934543  28.9873904
  73.5148844  23.9554952  43.8477169  25.0820725  37.0803870  35.3389971
  37.6434542  41.4191098  19.7300843  41.2647194  66.1133733  46.6651508
  26.4235165  31.1762037  48.4324399  51.8805099  57.8501760  52.9845136
  65.6682511  42.8876210  47.2885291  71.8543448  29.9617787  33.6405073
  33.2159356  25.4216176  57.9153094  64.8161098  50.7687054  30.3333843
  39.1390027  50.5962046  14.8238533  58.5132874  45.9421649  57.6356334
  -2.9998954  49.3530514  50.1036181  45.0485032  18.5293777   8.7699509
  47.5974093  40.2532971  21.0004104   8.2742315  39.4356661  18.5320706
  34.4938346  61.4683885  34.4756533  66.3403319  19.1357263  23.9650287
  81.7705736  38.8850624  72.0669507  69.5657780  79.5730621  48.9089014
  42.8322705  45.8225317  -4.1113137  56.7493529  16.0584806  36.2276019
  10.5111161  16.6961769  48.7006769   6.6155528  74.0900790  61.0861632
  62.4547544  84.0470394  44.5230015  20.7981111  -0.9527311  45.7559652
  66.7719541  12.6522168  52.0166323  51.7397939  55.7193763  55.6594317
  64.3764931  50.8768674   8.1771883  -9.4005956  35.6658103  42.9085447
  34.3942688  84.9601707  70.6286948  60.7381106   7.6603697  61.2459016
  -0.8459903  24.4931875  16.3574602  88.6063094  42.7258852  41.4041100
  41.4206399  36.8740907  17.6095241  75.4861760  82.5720930  18.4845880
  85.7993229  32.3312887   3.9124743  66.2867284  21.8786540  73.1920606
   3.9324317  61.2376681   6.4832604  -0.4277893  47.7940473  71.1947905
  49.6343985   5.1825846  48.8575126  63.7660171  31.6289630  22.4432848
  21.7469224  32.3664028  70.7091156  57.5958610   6.5838508  16.2895736
  -3.5644182  36.7098728  63.2921083  14.3252388  70.6138773  12.4823472
  54.0261753  31.4740146  69.8034138  54.0230293  32.3097588  70.2145950
  54.7195406  31.5644834  69.1578635  57.3781885  30.3223552  59.1227656
  57.8592992  30.5336086  58.2932888  56.7588590  29.6336977  58.7864156
  45.7811999  22.4377176  61.6909403  45.4333285  23.3481092  61.5238848
  46.2024685  22.3152250  60.7797903  61.5163375  24.4100548  57.9657837
  62.4056186  24.3070173  58.3784715  61.1357844  23.5325328  58.1628811
  53.8874221  20.1308803  56.4741499  52.9157958  20.2960529  56.1619885
  53.9337108  19.1966341  56.1234632  61.5823144  19.4105941  68.6445865
  60.9822763  18.7279823  68.3197541  61.6563858  19.9710126  67.9043666
  64.8841673  22.7099262  64.1564664  65.5359415  22.4453200  64.7941176
  64.1921011  21.9874680  64.2323937  47.5446622  28.9805431  68.4328425
  47.5844415  29.9321183  68.5102712  48.5461629  28.8266304  68.2434222
  65.9179075  34.8866545  66.6907871  66.8943392  35.1057153  66.4947017
  65.6630198  35.6958567  67.1531408  59.7926938  35.9909208  60.7387300
  60.5961719  36.4581674  60.9181057  59.9999358  35.5043886  59.9217169
  52.4901817  30.7669689  65.2153401  52.6111845  30.5209055  66.1957245
  52.3620341  31.6822269  65.2271952  53.3764551  30.8696540  77.2318926
  53.0553183  31.7727569  77.1165868  52.5639010  30.3749645  77.0760266
  48.9103605  32.0741356  72.5917053  49.2676822  31.6361377  73.3944476
  49.3809442  31.7594712  71.8339886  51.3405843  26.5098040  72.4818184
  50.9049909  27.0766516  73.0530681  51.1925869  26.8972593  71.5901429
  45.9639040  36.5823540  75.0046577  46.0575612  37.5493719  74.8758062
  45.2252951  36.3929090  74.3919645  70.9359953  37.1265326  59.8799454
  70.4209220  37.0636378  60.7726953  70.1993590  36.9270678  59.3038271
  52.8680515  35.9734944  71.3348768  52.9985664  36.8366434  70.9241053
  52.5927884  36.2481210  72.2675556  29.9327180  41.2380623  71.0689735
  30.5314432  41.5508896  71.7767303  30.3631934  40.4431916  70.7802689
  40.9009281  47.3637889  74.6537202  41.6580955  47.8367585  74.9896627
  40.1527623  47.6653468  75.2071422  46.1373564  55.5625497  66.8994118
  47.0160352  55.6956255  67.3106860  45.5830286  56.2719776  67.3066645
  46.1082820  56.3334895  64.1718391  46.5932194  56.1097338  65.0123167
  45.2763002  55.8550309  64.3333547  46.2634418  45.9133003  64.2487348
  45.6751140  46.1418514  63.5503976  45.6582747  45.8606169  65.0165467
  51.9770637  48.0615105  69.0213665  51.0317953  48.1915477  69.3819447
  52.1205779  47.1768843  69.4629248  49.9481268  53.4162941  59.1437767
  50.6581284  52.7590876  59.2452622  49.7641814  53.2922395  58.1598107
  56.2743368  42.8482021  59.3313471  57.0097811  42.3556686  58.9078649
  56.3206233  43.6861139  58.8625309  55.1139014  49.7032886  58.1296005
  54.9654922  48.7261808  58.1140871  56.1017435  49.6910003  57.9653281
  59.0768563  43.1507970  58.0598538  58.3270611  43.0190438  57.4131530
  59.8100938  42.8107951  57.4587117  69.7249686  57.7129608  50.4210523
  69.4232089  57.7352697  51.3610507  69.2548757  56.9495323  50.0603059
  59.5193900  41.3809973  54.0358845  59.7151900  41.4824445  53.0908341
  59.2332425  42.2103079  54.3017139  61.8344729  26.7682090  59.8418592
  62.4452482  27.3432629  59.3347567  61.5459342  26.1412051  59.1527226
  60.9460534  32.4203685  50.6785029  60.7497183  32.3101302  49.7437526
  60.1639715  32.9492492  50.9303787  52.0202422  38.5681440  65.4679449
  51.1080157  38.8022505  65.4570750  52.4719295  39.3808296  65.4250821
  45.1622221  25.8018960  62.7794256  45.4250907  25.9067651  61.7629476
  46.0268823  25.7225619  63.1626093  52.2265295  36.1757611  66.6611789
  53.0784746  36.0215535  67.0109816  52.3349840  37.0268031  66.1850640
  47.7555312  31.7816444  69.0656007  47.1480648  32.3258024  68.5345298
  48.4659421  32.4449705  69.1993438  45.7097862  27.1436699  70.1964940
  46.3261739  27.6090425  69.6764711  45.7275284  26.2359481  69.9977825
  42.1761514  43.4906828  78.6275305  42.7783322  43.9589884  78.0376614
  41.3174908  43.5359915  78.1702918  45.0634396  36.3710950  77.5571674
  44.3232654  36.9183325  77.2232535  45.6737762  36.3954249  76.8267163
  31.7691407  33.4968998  70.9956001  30.9055724  33.6595497  71.4615590
  32.3071802  33.3483076  71.8315655  35.6048462  45.0120447  76.0392634
  35.7570792  45.8924527  75.6477363  34.7117563  44.8184317  75.6612702
  38.6422137  21.2943230  70.5719439  39.0131300  21.3372796  69.6191053
  37.8359914  21.8418954  70.4247304  38.7761464  39.2447490  45.6156681
  39.5633223  38.6256309  45.5877993  38.8233444  39.6340723  44.6934331
  61.0584826  36.4957660  73.9926179  61.8916218  37.0674935  73.7320710
  60.6983737  36.3232821  73.1239375  42.7137522  23.6168430  51.2414736
  43.4284501  24.2745061  51.5120502  42.2495660  23.5324169  52.1473359
  35.9895838  43.2588460  72.7337774  35.3683849  42.4964304  72.8455720
  35.3682715  43.9167193  72.2736534  61.7485008  47.4423793  53.4490652
  60.9709623  46.8587670  53.3432193  62.4667367  46.7760271  53.4548132
  55.5749014  40.4952600  64.7834428  56.1389995  40.0453571  65.5110382
  55.8598970  40.0050332  64.0018258  47.3558895  11.6187673  50.3350853
  46.8125091  11.0840092  49.6973152  46.6925401  11.7359145  51.0585470
  65.3472708  36.1649436  61.7871725  66.0852856  36.1849140  61.1716837
  64.8840804  36.9661717  61.4227469  39.3622618  25.6874860  58.0816165
  39.1368829  24.7363486  57.9353444  39.9185126  25.6188299  58.8529791
  28.9955798  30.0837688  53.4344183  28.4406059  30.8646129  53.1138617
  29.4348670  29.8051173  52.6135728  23.5492673  32.4676825  56.5727518
  22.8017507  32.8327126  56.0676523  23.1527384  32.6091142  57.4389261
  25.2829246  29.8159907  50.8324689  25.9065029  30.5755137  50.8460502
  24.5384125  30.1518112  51.3809729  31.2310086  26.8785260  51.1619004
  32.1365506  26.5076455  50.8703589  31.5430806  27.6044458  51.6563689
  41.0356800  22.9974338  46.0388584  40.7230340  23.2842582  46.8609878
  41.0583034  22.0016681  46.2716941  35.7671838  24.8131769  58.3772985
  36.0767149  24.0113062  57.9106864  36.5998678  25.2193363  58.5909291
  34.3179015  10.8907471  57.0198805  34.9926636  10.2002780  56.8705477
  33.7712155  10.5505256  57.7594224  14.3378244  20.3304390  51.2300048
  14.5952199  21.2515061  51.0578829  14.9480759  19.8347866  50.6274463
  21.0056450  30.4243254  57.5716542  20.3062991  30.6762677  58.1527064
  21.7685411  30.9063934  57.7850507  27.2536540  36.0296105  56.8221043
  27.4381488  35.0917420  57.0071588  26.8430658  36.2379163  57.7059584
  31.1339958  24.1165967  65.8658995  30.8424683  23.1662496  66.0098847
  31.8806617  24.1393094  66.5191171  27.1863560  34.9202087  60.4253266
  28.1007852  34.5624926  60.2086817  26.6863880  34.0563602  60.4143916
  33.0530671  30.0354875  64.6771884  33.6842120  29.5027931  64.0762511
  32.4993575  29.3161711  65.0037899  29.2144815  33.5974907  59.4859706
  29.7660723  32.8993828  59.9280822  29.8921467  33.9150733  58.8440869
  20.1162392  39.5004242  53.7312796  19.2416404  39.5944838  53.3372932
  19.9576666  38.9311587  54.4991115  65.6952189  35.6412360  46.7567238
  65.3371322  34.8322773  47.1776560  65.9828672  36.2085820  47.5006433
  34.3515814  35.2052486  48.6202769  33.6305111  34.7682527  49.1041995
  34.2692468  34.7420962  47.7310359  54.6736115   9.5225758  50.8341890
  55.4056968   8.8588541  50.8432717  55.1486175  10.3009200  50.5154247
  26.2241384  46.0917429  56.9661858  25.4550423  46.4740500  57.5298032
  26.8660419  45.9914406  57.7090498  22.2787420  48.4045034  53.7557482
  22.9427323  47.9940242  53.1132063  21.4459209  48.0297172  53.3026106
  24.9547747  46.0911478  52.5919173  24.4269305  46.0022590  51.7565459
  25.7441111  45.5496518  52.2557777  23.4064885  40.5302005  47.5263245
  23.0870804  39.6502856  47.1508628  24.3041088  40.2697518  47.8529777
  40.1991835  47.4748669  71.9209896  40.5220429  47.3942326  72.8393421
  39.9044700  48.4393505  71.9394680  38.2848101  70.6801278  52.8708092
  38.2265557  70.7630952  51.9012475  38.2401997  71.5792724  53.1459996
  10.8975906  36.4520956  53.1951240  11.1483366  35.7848086  52.5835477
  11.7651049  36.7514332  53.5671083  23.1232053  44.7394015  62.1006317
  22.9625261  45.5830852  61.5422235  22.8618759  44.0888462  61.3585388
  30.5523612  45.5728410  59.8627259  30.3293190  44.6168406  60.0124926
  29.6893172  45.8556229  59.4721906  26.4070353  68.6908254  22.7396483
  26.6118362  68.1904371  21.9382861  26.2739279  69.5958534  22.3435621
  63.0665234  42.0729855  50.5813334  62.9556783  42.2953173  51.5141049
  62.9960745  43.0182316  50.1958786  34.0851886  44.7316245  71.3317459
  33.2528138  44.3775999  71.6265159  34.0382289  45.6291295  71.7309791
  63.3762058  39.3935905  57.0928841  63.4029918  39.7811460  56.1851558
  64.2837910  39.0483925  57.1696663  66.0334181  32.6472743  58.7204737
  65.4534414  31.9053179  58.5937978  66.1295778  32.7238962  59.6995898
  71.5154218  37.4470561  44.4013942  70.5747866  37.5266590  44.6811611
  71.5577300  38.1203942  43.7114924  64.9865565  40.6509272  23.3655149
  64.8385911  41.5936639  23.6948590  64.2301805  40.2330801  23.8671574
  46.7118798  40.0058867  27.4361309  45.7450057  39.9888877  27.1848581
  46.5985630  39.4800507  28.2931309  44.1980518  67.3384140  58.4899114
  43.9568546  67.8205105  57.6624703  43.7707271  68.0147891  59.1247001
  52.4398017  38.4031464  50.1502781  52.7353133  37.4586319  50.1188518
  51.5945780  38.3319789  49.6891784  51.8963559  36.2368014  48.2458478
  52.4701131  36.9953278  48.0458393  51.1390534  36.4676937  48.7652501
  63.6540747  42.8308352  18.3401030  63.1241303  43.3546738  17.6952681
  63.0170840  42.6470459  19.0486714  58.8737255  22.0001927  15.5560351
  59.0652224  22.6140016  16.2799833  59.0630299  21.1623693  16.0308603
  47.5974951  41.6430511  40.6604694  46.7971347  41.5596350  40.0718756
  48.2397454  41.1364318  40.1055806  59.7050168  14.2002130  30.4061631
  59.1400929  13.7520599  31.0654195  59.5302842  13.6446747  29.6182271
  38.9167824  40.3993056  43.2118124  39.0354064  41.3864756  43.4069524
  38.7867667  40.4400696  42.2627602  35.4502839  36.8472482  29.9372493
  34.8635953  37.6429447  29.7744661  35.4893887  36.5579627  29.0365559
  55.6786375  19.7759651  10.1374121  56.6197866  19.6471438   9.9256323
  55.7452206  20.4073801  10.9051101  30.9356327  47.9463329  61.2195101
  30.7400941  47.1330203  60.7029711  31.5742407  47.6500154  61.8660796
  43.0875768  55.6060392  64.3553773  42.8670372  55.8815434  63.4595418
  42.9883932  54.6360514  64.3061066  44.1660854  57.0237541  67.7553259
  44.1642372  57.4177820  68.6755682  43.6043961  57.6556667  67.2879376
  32.7737611  47.1934206  62.9205682  33.0826200  46.2524390  62.9018162
  33.1131822  47.3939085  63.8540175  44.8111926   6.6782979  46.9425196
  45.2425496   5.9082267  46.4496422  44.1881687   6.9591536  46.2476340
  52.5268997  61.6703356  65.0534362  53.2320487  61.3817102  64.4607608
  52.0012588  62.2898059  64.5391750  36.7636616  57.5865429  70.7512523
  36.7430760  56.6166880  70.7272019  35.8435329  57.7857116  70.4402186
  33.2431909  46.2106690  67.1186354  32.3326341  46.5391642  67.0006426
  33.5508547  46.1608056  66.1721680  58.0992354  44.4545411  50.9866761
  58.1592303  44.0333605  50.0704217  57.6519594  43.7728449  51.4881778
  50.7070851  46.4656488  41.6097903  50.2359363  46.6051645  40.7117506
  50.2696604  45.6353659  41.8834219  60.0869939  41.3762462  51.0494982
  60.8624272  41.8317306  50.7343545  59.4138137  41.7312758  50.4963128
  52.0934280  47.6039331  43.7074765  51.3813585  48.1140041  44.0851579
  51.6520268  47.0373586  43.0928891  32.6826031  72.4038503  29.6857436
  32.3585460  72.1536636  30.5484209  32.5114430  73.4009463  29.7032289
  68.3351740  49.7077258  50.3740116  68.7150371  49.8838298  51.2668379
  67.4235326  49.5935656  50.6132199  66.3189939  44.8420377  48.2256873
  66.7003758  45.2690452  49.0620498  66.7366204  45.4494270  47.5856749
  62.4053320  46.7701612  49.8021698  62.9859443  46.8894130  50.5392642
  62.4858398  45.8136559  49.6162394  57.7742729  44.6244673  44.7988479
  58.7688123  44.5103662  44.6497779  57.4483618  44.1642555  43.9913381
  60.6564526  40.0163594  39.8429430  60.8595550  40.4281645  40.6798372
  60.2092505  39.2050196  40.1173799  62.6327611  43.0127539  52.9213495
  62.9560294  43.9005357  53.1003187  62.6858183  42.5793253  53.8152150
  61.9978356  39.2111969  60.9728746  62.2641619  40.1489270  61.1413344
  61.2770176  39.2635350  60.3851701  61.2956717  35.8527833  47.5528289
  61.3670672  36.0276910  48.4983030  61.0456355  34.9082920  47.5903240
  66.8723437  29.3886827  66.9177038  66.4835443  28.7076987  66.4539929
  67.2292536  29.9816534  66.2124207  66.9513350  35.8608700  50.0275332
  67.2912702  35.1961677  50.6378082  67.7728154  36.0739415  49.5278325
  60.0808988  25.2831392  61.5036625  60.6307826  25.6030389  60.7718490
  59.3699213  24.9144832  60.9082626  66.8491633  39.2284387  46.4748582
  66.0769429  38.8884990  46.9600293  66.4916350  39.9741815  45.9779848
  60.8139477  35.3162916  58.3099970  61.3455280  35.7797353  57.6208779
  60.8010869  34.4028151  57.8581518  63.3352937  29.0416639  59.0306629
  62.4552507  29.4814108  59.1779689  63.6116796  29.6804570  58.2841911
  59.7612321  16.7973800  58.4632222  60.4689212  16.7641739  57.7602093
  60.1604990  16.5521539  59.2507716  68.2935117  38.8739648  52.4414087
  69.1975787  39.1123374  52.1886087  68.4414346  38.0077168  52.8904957
  67.7055709  39.7569652  41.3534270  67.7156613  38.8060568  41.4262689
  66.8508635  39.9162938  40.9414756  70.5068947  36.4672178  39.2089931
  69.9650431  35.9718457  38.5875673  71.2638702  35.8800553  39.3930688
  72.7904575  28.0530676  34.8854690  73.5309279  27.5268469  34.5883849
  72.0610914  27.3933402  34.8817801  72.4164425  26.8842374  42.5552627
  72.2687819  26.6885851  41.5752741  71.6317972  26.4199224  42.8604223
  76.2722216  33.0467008  33.6731019  76.4067124  33.9236818  34.0620836
  75.3570459  33.1550603  33.3986018  50.0164469  43.0714285  37.5926343
  50.5778608  42.8466676  38.3441412  49.5753594  42.2638141  37.3816667
  59.4008606  41.3029558  24.7556540  58.5902778  40.7948448  25.1283704
  58.9102515  41.7912598  24.0566456  65.1226106  40.8104896  28.6508638
  66.0146732  40.6013435  28.3095705  64.6189063  40.6151015  27.8336997
  77.5493495  30.6106748  34.0900438  76.8876675  31.2548779  33.6916221
  78.3976945  30.8759071  33.6995457  74.7467335  23.6262899  37.1499049
  75.1157595  22.7410522  37.1472227  75.2954993  24.0585478  36.4411241
  64.2190919  31.3150585  24.7586705  63.5088640  31.8061277  25.1691506
  64.9749784  31.5758618  25.3185820  59.7383055  44.5003534  25.8070696
  59.7453035  43.6692116  26.2897081  59.1243879  44.4101277  25.0866252
  65.6255128  38.1606345  25.9616540  64.9847056  38.9370064  25.8323823
  65.0359344  37.7125854  26.6806406  63.9128350  31.5161255  20.0370647
  63.9939305  32.4426496  19.7185260  63.5864071  31.0730025  19.2601586
  61.1073543  37.0468502  20.4511961  60.8662856  36.4182111  21.1832329
  62.0785051  36.8487607  20.4471110  60.5319373  33.2411221  20.2665341
  60.6938741  33.8470375  21.0283750  61.4557417  33.0026801  20.1293829
  54.5794575  33.9963518  28.6074738  54.8375190  34.8531084  28.2664737
  54.5948946  33.4344402  27.8928450  47.3494546  37.6852609  25.7810131
  48.2400424  37.4138665  25.4009255  47.6924659  38.3557539  26.4209664
  36.4032066  60.1076923  55.9341994  35.8573156  60.5647196  55.2536621
  36.3877993  59.2341357  55.5089187  56.7127057  38.6890821  15.9449681
  57.5183518  39.1830889  15.6682906  57.1444958  38.2174796  16.7123078
  54.3885319  58.5233413  52.9616014  55.0489748  59.1409726  53.3259465
  55.0031231  57.8005228  52.6624790  54.1510271  27.1416452   9.9410233
  54.1263035  26.3723384  10.4575143  53.9490878  27.8604472  10.5608977
  60.4839077  23.3331531  23.7134023  60.6381595  22.6618057  24.4020545
  61.0454486  24.0646938  24.1170355  50.1928107  50.0570220  41.9897041
  50.2887284  51.0550090  41.8889161  49.5886434  49.8648586  41.3175132
  54.5932545  21.9248952  15.5035406  55.5798338  21.8816444  15.5531654
  54.4255877  22.8209131  15.9247389  64.4485118  28.1050721   5.7016030
  65.2413291  27.8559479   6.2276250  63.8217703  28.4227200   6.3894420
  66.6498634  27.6325867  23.6281251  66.1057541  28.0969622  22.9635801
  66.8426091  26.7898901  23.1150008  62.6045860  24.2985617  20.7806669
  61.6810625  24.0486743  20.7289281  62.9716148  23.5074072  21.2861665
  68.7077027  24.7694360  24.0682666  67.9243137  24.8441131  23.4319829
  68.2390692  24.0633890  24.7004609  59.4807125  20.0388465  31.7146356
  60.4516486  19.9966211  31.8767346  59.1950924  20.6319078  32.4250938
  62.2904827  15.2248145  43.2802117  62.0476700  15.8790708  43.9933202
  62.6000716  15.8689275  42.6104621  63.6732789   8.9710729  30.6590124
  63.1171132   8.1779185  30.4598564  64.4259395   8.7763271  30.0844502
  53.8415706  12.4727266  29.6798369  54.1744456  13.0059438  30.4568599
  53.8003263  13.2647937  29.0233891  58.4631193  22.1408171  33.9614727
  57.5460009  21.9252312  34.1333442  58.9911140  21.6088272  34.5817233
  64.4299912  23.7908913  41.0732965  64.1480797  23.9365179  42.0094941
  64.0060952  24.5765463  40.6812883  60.1336129  17.0584208  38.8485883
  61.0004430  16.5952775  38.7537873  60.3865477  17.7711061  39.4752830
  16.7689323  47.0418054  21.9472070  16.0874897  47.2021808  22.6218324
  17.1694614  46.2063873  22.2470561  49.1120728  38.9751733  34.0343123
  48.5544924  39.7734099  34.1803855  48.6605499  38.4313561  34.8220438
  46.8083098  41.8176542  31.7432039  46.7294772  41.5632284  32.6847457
  46.0623520  41.2287360  31.3867654  24.1988330  59.8016594  13.2119131
  25.0978985  60.1965435  13.2870318  24.1497003  59.4196348  14.1333967
  40.8445915  18.5599818  29.8885320  40.7376594  18.8579527  28.9874095
  40.8611777  17.5851123  29.7624765  38.9237028  26.8557666  29.6379349
  39.0307258  26.0507733  29.2026277  37.9536234  26.8169910  29.9133744
  39.7960921  25.2072078  24.6313971  40.1854400  24.3103001  24.4572962
  39.9957952  25.2629708  25.5705029  14.1631068  41.8823237   2.3623762
  13.2189216  41.9770636   2.5623012  14.4534853  41.5214169   3.2362794
  21.5441794  51.4850159  13.5326362  21.4278791  51.2016900  14.5010005
  21.3005954  52.4315666  13.6040535  40.7759831  52.8045325   4.9283909
  40.2713647  53.3021467   5.6567436  41.6110267  53.2875142   5.0453817
  26.1801807  46.0200888   5.3723410  26.8116756  45.3701528   5.0743621
  25.3427051  45.5473203   5.1702586  45.3354030  31.8025133  21.6920227
  44.4723687  31.3978932  21.9679764  45.7508263  31.7195090  22.5608517
  20.4536089  63.3251423  18.0350288  20.6302296  64.2352791  18.4492849
  19.8876980  63.6980388  17.3014977  28.3777362  57.7697975  23.4198223
  29.0876199  57.6435671  24.0792704  28.7128974  58.6445124  23.0056052
  45.1580181  22.1002004  26.0433505  44.7982595  22.9421954  25.6876580
  44.6587934  21.4834079  25.4480456  55.8618691   4.7405452  28.7459729
  56.6072771   5.1588274  28.2905632  56.3143297   4.1218784  29.3329378
  43.1973103  18.7434090  34.7447894  42.9390936  19.5953175  35.1174649
  43.1607505  18.7919201  33.8097000  43.0203785  22.5554887  34.1104904
  42.7684959  22.0405859  34.8970011  42.7197241  23.4646623  34.3641893
  46.0385173  28.4730426  31.0997823  45.7027757  29.2506375  31.6812941
  46.7413683  28.2268723  31.7396846  44.9354299  30.2298111  32.5692318
  44.4168047  29.9281495  33.3511899  44.5707800  31.1574138  32.4661873
  42.2325547  28.0446778  32.5101074  42.2120438  27.7036493  31.6490283
  41.7354479  27.3607784  33.0355106  34.3441578  34.3604181  32.5040800
  34.1282637  33.5450314  33.0633864  33.5013340  34.6806829  32.2707486
  36.9778893  44.4037220  35.3437341  36.7989238  44.9324205  36.1362212
  36.1427109  43.8687814  35.3365489  40.6055468  22.0287576  43.1394942
  39.9236737  22.6342285  42.7664570  40.8702166  22.5175887  43.9146513
  36.2597079  23.8144334  45.6099296  35.4806403  23.1992725  45.3643716
  35.7909408  24.6680335  45.6786459  37.2974277  29.4921931  38.2313417
  37.0622453  28.5453711  38.0448240  38.1445101  29.5701588  37.7822234
  35.5310252  16.2401263  50.3307309  35.0590818  17.0698185  50.6406579
  36.3677224  16.3835317  50.8542730  51.5630403  21.6853266  46.6992032
  52.2909252  22.2488147  47.0335185  51.0761410  21.5693989  47.5130638
  45.1697559   8.1313830  43.4595682  45.9023397   8.2720553  42.8685340
  44.9771289   7.1825134  43.2462428  43.6927075  46.8329033  38.2900713
  44.0292050  47.7434534  38.2171196  43.6061022  46.7374577  39.3064847
  49.3803619  35.3754081  35.2290049  49.1118615  35.4833825  34.2305269
  48.8250616  36.0901321  35.5878571  46.6600841  35.4452416  43.3115813
  46.2448914  35.8642394  42.5549746  46.1672576  34.5734330  43.2874476
  50.0243803  41.2989910  42.9362277  49.1537642  41.3277730  43.2990622
  49.8910501  40.6111812  42.2083341  55.6550701  26.4785016  45.1870354
  55.9165752  26.3350712  46.1332533  56.0015630  27.3838076  45.0084338
  53.8308714  17.4379394  41.3176836  52.9695875  17.1347728  41.1449955
  54.4108875  16.9156810  40.7402473  59.1059702  23.1286154  47.1937864
  58.9030529  22.5995825  47.9878753  59.4362538  22.4264151  46.5636400
  59.6148504  14.5567419  44.6706134  59.2610056  14.1505694  43.8239652
  60.5486468  14.6832320  44.3928602  64.4145640  43.3845965  36.2930809
  64.2159509  44.3633500  36.5566120  65.1292100  43.6043650  35.6585615
  51.4291145  38.4028569  32.8941722  50.4734140  38.4086093  33.0301922
  51.5752647  39.2608781  32.4219298  59.8200263  48.4613358  28.7556832
  59.0731501  49.0541305  29.0910406  59.4484265  48.3629669  27.8586961
  47.1517367  45.7151686  34.5227424  47.0134216  45.5182337  33.6148058
  46.5180619  45.1276724  34.9838833  43.8424574  58.1409769  33.5911679
  44.5560254  57.4422453  33.6080356  44.3467061  58.8081013  33.0844506
  42.2711365  61.2003910  27.5146877  43.0211211  61.3118943  28.1624648
  42.8776838  61.2518448  26.6983964  51.0568191  62.7977420  27.1278253
  50.6837895  62.2414967  27.8477970  51.7822740  62.2314486  26.7915313
  38.0533728  77.1717180  36.2313375  37.3925046  76.8078535  35.6287127
  37.9227586  76.6063611  37.0224424  38.7633567  60.2960662  24.5069850
  38.0286702  60.2773951  25.1229996  38.7436752  61.2573753  24.2447366
  40.5278261  57.3379373  20.7728948  41.4937824  57.5445506  21.1026464
  40.1156431  57.8963505  21.5139889  41.8301233  70.3596452  32.7674306
  41.2812264  69.5855232  33.0458548  41.0521521  70.9763746  32.5312141
  30.4803564  58.1305247  25.2251937  30.8001069  58.6345789  25.9054759
  31.1498261  58.0938890  24.5163083  33.0021350  55.0535566  24.2728913
  32.3298336  55.6962509  23.9077839  33.4838772  54.9910955  23.4002911
  31.6460579  61.6310692  26.1740699  31.8952231  60.8375189  26.6704644
  32.0379980  62.3339061  26.7512600  34.8268379  59.0822968  35.1362434
  34.3697195  58.4964489  34.5320736  35.6718728  59.2113666  34.7261665
  37.0671271  52.4341250  24.3009285  36.2080282  52.6628871  24.6808498
  37.4763546  52.0720100  25.1548872  50.0715457  48.0504349  21.3973515
  50.4163261  48.9233964  21.3559679  49.7540684  47.9406020  22.3139903
  47.7668921  43.6512758  42.3766977  48.7795571  43.7561852  42.2209689
  47.6507164  42.8321202  41.7452982  49.1248614  46.7443118  39.4992186
  49.1475220  46.3593278  38.5889373  48.1855767  46.4993290  39.7075122
  55.6739627  48.6743423  41.6617234  54.9342245  49.2324921  41.9695589
  55.9495115  48.3238208  42.5665308  50.5657286  43.7238866  41.9522829
  50.9398124  43.4356192  41.0844302  50.4583019  42.8749635  42.3298487
  60.2869286  37.0963382  45.3808629  60.5776130  36.4905145  46.0993899
  59.3797541  36.8666100  45.3159526  59.4214759  26.0331103  48.1365382
  59.5500911  25.0691869  48.0976132  59.6457655  26.2193717  47.1559582
  60.2904052  33.3547024  47.7070784  60.2461906  32.5414243  47.1194999
  59.3484903  33.4339430  47.9347824  70.0054839  26.0353143  53.9553230
  70.6024165  25.4613853  54.4863600  70.6543450  26.4045688  53.3204418
  65.5174145  29.4819404  45.8948934  66.4696917  29.6747658  45.9007270
  65.5377458  28.5191122  45.8848312  56.7434748  24.6264821  50.6234006
  56.6808931  25.2679657  51.3944303  57.0376153  23.8237856  51.1064001
  56.5025638  25.5241104  48.0710146  56.6466216  25.1873314  48.9967136
  57.3603359  25.9342748  47.9381390  64.4467778   8.8316143  40.8158896
  64.4949214   8.2924124  41.6564100  65.4280503   9.0136521  40.8309288
  69.4800486  22.1009347  50.2987388  68.9562575  22.5557209  49.5750961
  70.2731087  22.7178714  50.2478160  68.9877617  22.1537002  39.4839607
  69.7753306  22.7200505  39.6331846  68.2762284  22.8183080  39.6005481
  67.1421094  22.7775758  45.5368574  67.0211149  22.1243694  46.2683134
  66.1553075  22.9750725  45.3769828  59.7786118  26.1521349  45.6661899
  60.6977944  26.3095207  45.3026688  59.4608163  25.6091102  44.9696281
  70.3767187  29.7273516  44.3164442  70.3558458  28.7861677  44.1040986
  69.5956429  29.8540081  44.8499204  65.2356790  25.6464725  33.5312529
  65.9993881  25.2315668  33.0495678  65.6895560  25.7154959  34.4251807
  60.6268378  39.4795981  19.2111600  60.7840838  38.5630667  19.6000353
  61.0056665  39.3545340  18.3382535  61.6984615  46.6000696  25.9189900
  60.8868763  46.0747583  25.8671087  61.4488765  47.3524142  26.4884451
  65.5061569  45.4242847  30.9736611  65.7279854  46.1658823  31.5281510
  65.4165800  45.7528288  30.0645241  58.4704481  41.1916317  28.7140217
  59.1364965  40.9759732  29.3883262  57.8095190  40.5104209  28.8033495
  61.2247915  51.7993601  40.4988030  60.9881072  52.5984028  41.0023883
  60.5289728  51.7123977  39.8308480  61.8812659  49.3861709  35.5773482
  62.4131685  49.1289306  34.7676993  61.0919029  48.8047534  35.4631379
  53.5242532  49.7070180  34.8466097  53.8048573  48.8984457  34.5842266
  53.8562167  49.8150682  35.7534818  53.0295989  49.6409807  42.1772658
  52.1805313  49.5561559  41.6737612  52.7722686  48.9265432  42.8567920
  61.8949320  51.6886705  37.0192293  61.7438471  50.8580972  36.5292306
  61.0826548  51.7294883  37.5960316  53.5689965  55.2032185  41.5104654
  52.8987633  54.6528711  40.9868436  53.7068217  55.8997537  40.7921446
  61.4722800  54.3778054  36.7278819  61.7768010  53.4421648  36.6648113
  60.6061481  54.2541057  37.2250553  48.8636513  49.5817053  36.8300081
  49.4573266  49.0511381  36.2180703  48.0823814  49.5597003  36.2301401
  55.3860839  56.1072114  38.5436431  55.0819729  55.1788173  38.5667770
  54.5176280  56.5461345  38.8661739  51.8379482  50.8717447  32.9481022
  51.3541232  50.0184879  32.8661230  52.4906717  50.5745019  33.6429882
  49.0710239  45.5840209  36.9499038  48.1512263  45.2194234  36.7994978
  49.5154582  44.7916988  37.3102756  48.8239629  49.5194156  39.8283724
  48.9278171  49.7985873  38.9256731  48.9801361  48.5791307  39.8211192
  49.2631995  47.4730403  35.0109319  49.5539263  46.7998838  35.6771288
  48.4679867  46.9775217  34.6538707  42.3023674  56.3349317  34.6783052
  42.7695007  56.8913343  34.0050136  42.9273119  56.4346674  35.4168210
  52.4258619  55.5265436  23.5865333  51.7324184  56.1192528  23.2208131
  53.1556315  56.1383366  23.7827529  43.3776379  56.7834322  37.1295424
  44.2412582  56.8528709  37.5762229  43.2892920  55.8069378  37.1720409
  37.4505583  60.2090615  41.7468884  38.2567460  60.4019967  42.1999230
  36.8585925  59.9034572  42.4442960  40.2774416  48.4032590  36.4898936
  40.4191584  47.4587186  36.7415079  39.4244647  48.5998356  36.9259839
  23.9289276  54.8436925  56.6729789  24.1450974  54.8883840  57.6326587
  24.3436996  53.9706943  56.4543643  20.5753787  55.3882410  46.5253173
  20.1665644  55.1621679  45.6495667  19.8458463  55.0803149  47.1013858
  28.7751296  49.8707612  56.6283183  28.8234517  50.5443493  55.9198204
  27.8302254  49.5794708  56.5351418  28.3627566  51.6727094  63.3893850
  28.5077765  51.6238138  64.3730432  28.5555977  52.6393146  63.2877576
  22.9094866  58.0489497  50.1094273  22.4865392  57.6031844  49.3553216
  22.1550575  58.0593811  50.7745580  45.4643504  61.4907942  54.0388599
  45.5671024  62.4507957  54.2241189  45.6740723  61.5202722  53.0521833
  33.9964564  63.1976152  52.5223236  34.1195158  63.3864782  51.5528670
  33.8933349  64.0865282  52.8984433  39.9132074  59.0442418  49.2772431
  40.0461733  59.8312891  49.8290618  38.9663324  59.1572178  49.0437036
  43.4237013  55.1527767  55.8536549  43.6796497  55.9796576  56.2848591
  42.5436419  55.2249022  55.5891319  50.2066072  49.1399849  44.7575477
  49.9744020  49.6099742  43.9072900  49.3434683  48.8310433  45.1112034
  42.1615462  51.8339937  49.4206736  42.9536059  51.5268169  48.9922203
  41.4675031  51.1575892  49.1627019  47.6756949  48.4759658  45.4624353
  47.5141233  47.4783831  45.4926806  47.1802779  48.7242384  46.2733437
  43.4710413  57.2467944  45.4930523  43.9412540  56.6518065  46.1273355
  43.1482056  57.9563678  46.0803465  42.1927089  58.7124220  47.7780933
  41.3100055  58.7600492  48.2112528  42.5307549  59.5899908  48.0518878
  43.4106463  63.6760434  47.0835277  43.4776237  64.4682027  46.5486162
  44.3143265  63.5472442  47.4608082  45.1177187  64.3921771  33.3210287
  44.5297360  64.5881668  34.0792506  44.5263214  63.8936041  32.7388644
  39.5511898  63.4304730  40.5250501  39.6761509  64.4009539  40.7174333
  40.5337244  63.2167117  40.4035630  34.8736921  60.2393225  43.6304032
  35.2466315  60.8581670  44.3314331  34.2321987  59.7130677  44.1609217
  33.4442046  67.1534518  41.2110189  32.9588180  66.5964187  41.8528605
  34.2410025  66.5808459  41.1258180  16.3352652  62.8434720  34.3532690
  16.2676744  63.2917598  33.4579041  15.4315992  62.8600331  34.6023523
  18.4090746  59.2766184  40.7564948  18.9125395  58.6922203  41.3831400
  17.8260397  59.7351280  41.4172436  28.1100958  63.5166482  36.1135656
  29.0890379  63.6743220  36.2708064  27.9394162  63.0017112  36.9439982
  15.0593649  55.8701914  36.1722422  14.2312375  55.4276468  36.4845981
  15.3419593  56.2383331  37.0011197  11.8827935  50.1125864  50.5310978
  11.9105318  49.2280752  50.0515445  12.8862344  50.3385759  50.5257854
  14.0937715  51.0167226  54.3193020  14.7244507  51.2834114  55.0354406
  13.7425371  50.2011508  54.7644106  16.8071259  48.9318865  40.6180219
  16.9897683  49.8038460  40.2838175  16.8392075  48.3654460  39.8437031
  18.3933416  36.4594100  32.9292671  18.4107217  36.8821957  32.0321493
  19.0115490  37.0638128  33.3552766  28.5430194  40.3826729  30.5093189
  28.5538920  41.0782960  31.1844082  29.2683774  40.7214621  29.9039693
  28.6829487  38.7047117  37.9158645  27.9557953  38.6090493  37.2424636
  29.0200713  37.7608265  37.8602462  24.6039725  36.7428638  37.6674221
  25.1786315  37.3328315  38.1605362  25.1676615  35.9831515  37.4752848
  31.3706411  42.7732840  36.9169856  30.5110371  42.7106087  37.3767713
  31.1532064  43.5935868  36.3899507  36.9339768  45.8498169  37.6158791
  37.3738976  46.7010101  37.7629658  36.9867517  45.4223129  38.4769121
  24.1556221  68.0454134  35.3191007  23.5924968  68.3759767  36.0509888
  24.9242345  68.6233102  35.3463492  32.2342926  62.0683723  34.6875564
  32.0077396  62.8457270  34.1584181  32.0455959  62.4181956  35.6070000
  19.2111153  55.3895981  37.4884147  19.8802896  55.4667709  36.7720687
  19.0925100  56.2927993  37.7923375  22.1033687  59.2327406  40.2524558
  21.9660142  58.8129564  39.4067046  21.9272144  60.1718923  40.0651936
  28.6367849  74.9350810  37.9845840  27.7364728  74.6524002  38.2381727
  28.8013574  74.3986918  37.1275767  20.5359861  63.5138289  28.1449680
  20.3136436  62.6204811  28.5010896  20.4217290  64.0302066  28.9567366
  18.4977825  59.5541948  30.5366213  18.9992385  60.2759193  30.1197090
  19.0717509  59.3340964  31.2402000  20.1656708  61.7494671  30.0418484
  20.0393956  62.4763782  30.6341665  21.0703619  61.4977078  30.1157869
  13.9073946  36.8898364  35.2724258  13.0342745  37.3003619  35.5198265
  13.7244881  36.7577920  34.3025518  17.3510831  48.6392311  37.2294741
  18.0597609  49.0500485  37.7331454  17.1743575  47.8250047  37.6720154
  20.8067050  48.2598951  30.4705258  20.1004468  48.7181672  29.8849698
  20.5699669  48.6653738  31.3066001  20.4967286  54.9211823  24.7622755
  20.1746913  54.7397714  23.8496717  19.7816513  54.6012802  25.3058356
  15.8991403  53.3756505  31.4083612  15.8050058  52.8435120  30.5837613
  16.0921682  54.2433697  31.0021653  15.9202340  42.5544592  28.7994839
  16.5970214  42.0345111  29.2924127  15.1178948  42.0947161  29.2241779
  12.2646397  61.8850786  23.2940415  12.0983767  60.9469210  23.6020241
  12.2827500  61.7151605  22.3296888  18.9161826  51.9970796  26.5969665
  18.6254054  52.9223711  26.7531698  18.1085636  51.5551554  26.9983243
  21.1684139  50.8649437  16.0003950  21.5070327  50.0098092  15.8177982
  21.8355301  51.3697834  16.4764656  16.8983877  61.5021105  21.2474443
  16.8270034  60.6215916  21.6433898  17.7400031  61.4704888  20.7829102
  27.0486259  57.1725775  20.9465376  27.7918640  56.7481202  20.4345005
  27.4741507  57.1880529  21.8017565  24.4251094  56.4603060   7.9682539
  23.8787633  55.7093374   8.2807332  23.7283067  57.0368448   7.6200366
  32.7992836  60.0016657  16.0673344  32.7487314  60.9718443  16.1306263
  32.7305786  59.9646815  15.0788022  43.0969635  60.5922374  13.2841105
  44.0033014  60.5314353  13.6769628  42.8727808  61.5223663  13.5239620
  31.9634441  50.5839868  11.0885559  31.4520613  50.9463136  11.8507465
  32.7120989  50.2168773  11.5368309  25.7310277  56.0112870  10.7198937
  25.6345841  55.8589430   9.7788959  25.0721625  56.7823064  10.8426211
  34.4301978  55.1938525  19.0753612  34.9140682  54.4487889  18.6114912
  33.5407771  54.7452000  19.1309605  34.9088135  34.1781351  17.3510735
  35.4478649  34.9529409  17.3461079  34.0333195  34.5427392  17.1659087
  28.5051294  37.6128195  16.3913631  29.1218978  37.6818416  15.6114797
  27.6694054  37.6790677  15.9653737  35.1223810  40.3603536  -7.8147076
  35.9052119  40.7409817  -7.3162779  34.3882544  40.7920658  -7.2926024
  37.5647549  42.9731366  12.2702981  37.9954086  42.6943348  11.4173811
  37.4558491  42.1050452  12.7404012  26.1053656  49.6354833  11.8386501
  25.8530637  49.5760206  10.9060316  26.3503486  48.7050794  12.0410665
  26.4935540  48.7090418   5.3347381  25.5092293  48.8790426   5.3676860
  26.5272181  47.7486862   5.4117122  30.1482218  44.8306928   5.9469004
  30.5489597  45.7496433   5.8001372  29.9557611  44.9832121   6.9341937
  27.5242022  34.4265825  12.3877951  28.3075088  34.6739132  12.9469677
  26.8204989  34.4831822  13.1111765  26.0003972  38.2613283  11.3981932
  26.1379523  39.2416087  11.2961523  25.1080197  38.1516120  11.0326828
  21.6785317  43.1479519   9.0875431  21.6761524  42.9795890   8.1093418
  22.1096846  42.2907553   9.3902130  21.4361728  35.8296892  21.8593640
  22.0911339  35.4462492  22.5002684  22.0198016  35.9465223  21.1046117
   8.9594014  45.3430828  32.4463916   9.9034309  45.2749698  32.5387601
   8.7245838  44.3621123  32.3902947   6.0204613  39.9140326  17.9318364
   5.4663097  39.9322409  17.0985135   5.5895023  39.0936393  18.2910318
  14.3516785  48.5467613  13.5518130  15.2489437  48.6868431  13.8976377
  13.8823211  49.2378108  14.0158625  20.0462672  52.1392819  10.9590489
  19.1199912  51.8878850  11.1756833  20.4724315  51.7455018  11.7378340
  15.3200976  47.3121301  26.0070437  14.3900982  47.3236226  25.7254263
  15.5458318  46.4055739  25.9588309  22.3090042  54.8751769   5.6583187
  23.0369090  54.9687396   4.9808027  22.1313917  55.8238849   5.7673301
  22.2847652  48.5442293  15.4413515  22.9882641  47.9617942  15.8016680
  21.9546880  48.0153309  14.6582623  19.4373445  34.3169354  13.6644328
  19.6917359  35.2100973  13.3587589  18.5191343  34.2784345  13.1700013
  28.8295585  61.9540025  17.0143434  29.2357973  61.2992701  17.5988031
  29.0763474  62.7998739  17.4337645  25.4395383  63.9060789  26.7162617
  25.1284891  63.6610628  25.7745612  24.5465385  63.7354502  27.1357578
  32.6116416  59.5363055  20.2796496  33.2849411  59.8241880  19.6723839
  33.1988832  59.1241600  20.9732489  31.3969720  48.4199892  24.9296342
  30.5868060  47.8865871  25.0224909  31.0871235  49.2819011  25.3089747
  25.5869495  60.7136786  29.7552001  24.9091722  61.1051831  29.2101611
  25.1183459  60.6849273  30.6467638  36.4480066  34.5444769  27.8254372
  36.2682004  34.7841235  26.9314141  37.4276070  34.3356995  27.8069728
  30.6604236  40.7226838  28.7281345  30.3961529  40.6167505  27.8442868
  31.5733116  40.4293227  28.6617858  37.3288787  25.1936985  23.7120862
  38.2068922  25.1460544  24.1664197  37.1068770  24.2858985  23.6032284
  29.7200132  31.9006142  18.0760722  30.1124256  32.3726924  17.2794167
  29.8083538  30.9863617  17.7233482  28.0892946  30.2396487  29.4993480
  27.7642986  29.7695414  30.2827617  27.8845588  29.6120088  28.7587395
  35.7631657  40.7426959  32.4825229  36.2298817  40.1316732  33.0628822
  36.3549418  41.5733384  32.6377131  25.1174111  35.5261325  22.3453626
  24.5062455  34.9382292  22.8346001  25.5952241  35.9001110  23.1413022
   9.4170966  51.4331024  28.4508004   9.6070719  51.8100469  29.3314453
   8.6655704  51.9404369  28.1753159  57.1830584  17.2623017  59.7795116
  57.0358488  16.3484085  60.1185460  57.8572393  17.0358627  59.0785470
  58.9170156  30.1459415  56.6800788  58.5066216  30.8380854  56.1250584
  58.5281216  29.3591958  56.2791534  48.7075658  34.6449303  50.5955653
  48.8416913  35.4446125  49.9058752  48.0396778  34.8997540  51.2309536
  50.4580420  36.3887601  52.1871092  49.5510033  36.7330625  52.4303355
  50.5232023  36.6101322  51.2112671  50.5413268  32.0620579  51.3743929
  51.3236714  31.6565736  51.9038344  50.7098575  31.7751810  50.4624165
  44.0189642  17.8417415  66.2451225  43.3497349  17.4977512  65.7126160
  44.6092376  18.3012020  65.6004042  47.2146663  41.0110738  34.4949291
  47.3837274  41.7166185  35.1576192  46.8784962  40.2624303  35.0505952
  39.5057535  39.4593301  28.0046552  40.3984784  39.5784735  27.6302141
  39.7000630  38.9617859  28.8470923  41.0016876  46.1102558  37.8312118
  41.2853595  45.1895154  37.9509067  41.8417133  46.5687455  37.9008815
  37.4378769  40.6057724  27.1771404  37.2254113  41.0818389  28.0010793
  38.1703068  40.0214443  27.4700856  45.7610095  41.2511765  38.5065204
  44.8145474  41.1095529  38.3982961  46.1139935  40.6007112  37.8867760
  37.3853777  42.7105031  32.9379618  37.3759093  43.0746829  33.8040472
  38.3592534  42.8308958  32.6519262  36.9946554  44.8022681  40.1637927
  36.6317662  43.9241588  40.0345305  37.3969898  44.7374271  41.0736220
  41.1045512  35.9304882  27.7096839  41.2342232  36.1961764  28.6424365
  41.5512493  36.7327666  27.2960047  37.3521144  39.8493073  34.7252021
  37.3507283  39.3273675  35.5349059  38.0849660  40.4138889  34.9205551
  34.0193398  42.8011560  35.9394693  34.1048206  41.8305530  35.9796637
  33.1634100  42.9549718  36.3938578  34.4605625  40.0245632  35.2134695
  33.6915166  40.0914619  34.5907005  35.1406614  40.1834694  34.4853020
  32.1329759  39.8582209  33.5197255  31.5112345  40.4427944  33.8394995
  31.6366331  39.3555527  32.8512676  32.1433235  39.3897391  43.4592055
  32.5724886  40.0337292  42.8331813  32.9626015  38.9817982  43.8485174
  35.1231275  37.6905014  36.1784095  34.8956787  38.5987000  35.9538994
  35.6551573  37.8210717  37.0154815  36.3366102  33.9280869  38.9660673
  35.9140320  33.4912905  39.7266278  37.2519840  34.0366930  39.2401680
  25.8177539  34.0695370  39.2300564  25.3397396  33.3220935  39.5935132
  25.4755661  34.0225446  38.3171199  46.0226882  45.5854470  37.7498710
  45.2083720  46.0680588  37.5186894  46.0490741  45.6764498  38.7136842
  65.6893893  31.1823279  82.3564286  65.6240131  31.6831089  83.2149945
  64.7896315  30.7598327  82.3267156  41.7736925  34.6428121  80.4467404
  42.2666791  33.7869714  80.5152471  41.0843217  34.4879747  79.7954172
  51.3021650  32.5458026  84.2803225  50.5019667  32.1383109  83.9746246
  51.5236796  32.0183755  85.0109491  54.4113119  32.5275049  86.7652461
  54.9828734  32.6886754  87.5253086  54.4290279  33.4445496  86.3341032
  35.5021035  23.3607893  88.7134627  36.4590376  23.0213103  88.6193426
  35.2581605  23.3400480  87.7778317  61.0889268  30.5112226  84.5985376
  60.3099467  30.3810356  84.0533210  60.8411019  29.9634918  85.3903612
  51.8598941  33.0052688  93.2255384  52.7617099  33.2399378  93.0480459
  51.8701957  32.6308539  94.1275413  49.1525739  30.5847602  84.9108455
  49.3966818  29.7230083  84.5968915  49.7609184  30.7994074  85.6534098
  46.0909099  30.6042761  71.1058648  46.7004850  31.0823318  70.4565957
  46.4371188  30.9613351  71.9349647  48.2503163  32.1928741  93.8533428
  48.3240328  32.5836563  94.7658294  48.0001940  31.2930257  94.1033609
  47.9247622  36.8988795  72.9048888  47.1255400  36.4983950  73.3771830
  47.8490524  37.8161480  73.2930330  34.5060005  32.6329960  79.7376578
  33.6396327  32.4488937  79.3943229  34.3727565  33.5152337  80.1297882
  36.6484780  43.2811644  78.0140926  37.5168452  43.6371828  78.2018898
  36.3800377  43.8589183  77.2347174  51.5598938  41.0415926  92.9526169
  50.7617424  40.8392278  92.3505470  52.0860407  40.2307144  92.7652398
  60.8283630  38.8299948  89.6402839  61.1772548  39.6986431  89.8659056
  60.7351716  38.4348155  90.5336755  56.9101999  32.6293948  84.6140000
  56.1411307  33.0148547  85.0894123  56.5345111  32.6425255  83.6905760
  57.0318763  35.9541658  84.2103256  57.7865090  35.5276953  84.6275366
  57.4126706  36.6545635  83.6691799  51.7126944  39.8768615  84.5383437
  52.4097446  39.2629938  84.3396404  51.1318883  39.8126523  83.7707973
  55.4443086  41.7974693  82.7389204  56.0615337  42.2681945  82.1187831
  55.9394738  41.8401193  83.5532481  55.3655683  44.6896002  77.8578751
  54.3814152  44.7038563  77.6556199  55.5420457  45.5194644  77.3057849
  47.3595239  34.0072172  73.6436006  47.6368466  33.3342745  72.9769060
  46.4722825  34.2667189  73.3118406  42.0063625  30.2729883  83.0906692
  41.0576146  30.4259090  83.3484834  42.2558009  29.6787150  83.8334400
  40.7617796  23.6796905  83.0082716  40.2066982  24.4621358  82.8770141
  40.0353896  23.0549489  83.2645264  53.1678591  24.4111746  69.9540882
  52.8330826  24.8348167  69.1335291  52.4239449  24.6511841  70.5415316
  49.5530008   7.7982016  87.2440053  49.6933019   8.5429056  87.8796775
  50.4564855   7.4762583  87.0639275  50.2380749  17.0725456  90.8152622
  50.0528133  17.7050241  91.5130746  51.2197744  17.2530831  90.6472696
  49.4913525  41.8426618  88.3847735  49.3776235  41.5768279  89.3155818
  49.5094794  40.9641911  87.9378406  41.3019502  56.7261893  74.9838425
  40.4327816  56.5300832  74.5915725  41.2734348  56.0380334  75.6702273
  64.8796841  54.6485858  85.8346173  63.9592669  54.8569671  85.5480821
  65.1031445  53.9184176  85.2804957  63.8149983  48.7175868  81.3050842
  63.6465874  49.0828201  82.1934322  64.5683896  49.2124742  81.0151649
  41.1294747  47.4299495  89.4161172  41.7219926  48.1822819  89.1694218
  41.5578957  47.2075493  90.2913357  53.8970651  30.5602691  94.7569627
  54.2287598  30.7973249  93.8683792  54.6760790  30.4549107  95.2581610
  60.5959187  47.3609520  78.2508422  60.3400956  48.1789336  77.8259264
  61.5647864  47.5546650  78.4261590  41.4146695  58.8987230  89.2189176
  40.5379068  59.2923433  89.3618620  41.5456059  59.0755090  88.2695357
  54.5824113  52.7716112  64.9954833  54.4048857  53.1584330  65.8444102
  53.7057620  52.4833264  64.7436554  50.0892980  50.1390500  86.2188551
  50.1260680  50.7661265  86.9174448  50.5648446  49.3290132  86.5693816
  52.0742546  40.0647069 102.5389791  52.7603943  40.0048342 103.2590278
  51.3747558  40.5394403 103.0404404  55.4981834  31.9963620  82.3730079
  54.6361515  31.8607604  81.8766325  55.9104061  31.1762748  82.0263919
  54.8749441  34.6144365  85.3553287  55.5205103  35.3427518  85.0068350
  54.2915840  34.6417921  84.5367927  43.7558431  41.4826198  79.9802321
  43.0971819  41.7899302  79.3765615  43.9638056  42.2387288  80.5606746
  52.2108150  37.7255516  80.3184299  51.6858559  38.5549171  80.2458896
  52.9930049  38.0767026  80.6922571  30.5263850  37.7687561  84.4207041
  30.1215314  37.2598227  85.1991937  31.4723646  37.6009581  84.6049776
  49.7936823  29.6772649  95.1021961  50.3152510  29.4201539  94.2595439
  49.6211007  28.7783100  95.4415845  55.7949126  23.9937200  94.8116636
  55.4606478  23.9880935  93.9135523  55.6745603  23.0344146  95.0191428
  58.4398553  31.6788511  99.2379784  57.8194843  30.9540352  99.4847655
  58.1630720  31.8657782  98.3225055  52.4222204  44.7057937  88.6056301
  53.0648034  44.6644979  89.3321601  51.6059272  44.8157508  89.1836042
  52.3214923  44.8113181  77.2669210  52.5346149  44.4070156  76.3767215
  51.7155987  44.0319070  77.5381598  52.9219982  27.5384586  75.6122965
  52.0828103  27.7917787  76.0643310  53.4468927  27.2207368  76.3754228
  52.7986465  36.1279535  87.7566215  53.5035300  36.6855784  87.3405500
  52.3017934  35.8376694  86.9646249  54.3368825  33.6447973  79.6124408
  54.1811727  32.9720965  80.3409591  55.2489523  33.9236281  79.8283723
  56.9458200  15.4662781  79.0438176  56.4814062  14.7128985  79.3984682
  56.5531396  16.2641937  79.5149289  46.6183644  10.6048801  70.2885004
  46.9847057  10.2686033  69.4581208  46.6904333  11.5948717  70.1956160
  47.1277440   8.7093449  72.3075169  46.8397694   9.4547306  71.7327204
  46.2919933   8.1919350  72.3291097  41.8868162  13.9881442  73.3819320
  41.2346246  14.1094989  72.6235112  42.0814437  13.0225775  73.1952040
  37.9475586   6.0489748  62.2045552  37.9150971   5.6663669  61.3004714
  37.0421062   6.4603135  62.2310188  44.4635594  -0.7259393  88.4257426
  43.8116992  -0.6974970  89.2425403  43.9192323  -1.2696340  87.8221883
  56.4990244  10.9349250  76.7670949  55.6055760  11.3735765  76.6459850
  56.6802205  11.2923681  77.6599101  46.4585351   3.6738775  64.2976194
  46.9816806   2.7669353  64.2258892  45.6397775   3.2762470  64.6469142
  51.9735188   7.3717376  81.8787718  51.2716154   7.3686948  81.1971906
  52.7717298   7.2680371  81.3110526  39.7639869   2.7147968  67.1560628
  40.7320892   2.7467259  67.3433814  39.4816256   2.2696395  68.0042600
  38.0172060   6.9400285  72.7344259  38.6701405   6.4077103  73.1392626
  37.5049826   6.2291057  72.2069011  46.9912175  12.4724152  76.5615953
  46.7582720  13.4386743  76.7208151  47.3259412  12.3167799  77.4654890
  48.9222040  11.7970535  67.2845171  49.4242030  12.0249883  68.0753055
  48.3728180  11.0720232  67.6386704  40.3521208  -0.7723240  69.1923652
  41.1087716  -1.3161069  69.5005497  39.7306400  -1.4099281  68.8954177
  44.8479265  15.3004803  72.1399734  44.2632329  16.0910108  72.1400969
  45.2829989  15.4567197  71.2324940  34.1627551  -0.1164693  80.8786376
  34.7209513  -0.9581593  80.8856327  34.8366698   0.4235047  80.3822224
  46.9174450  15.4237857  56.1431557  47.2065212  15.0454826  55.2690034
  47.7715193  15.6560074  56.5222966  52.2417392  21.5310848  68.7354134
  53.0272679  21.5355792  69.3266808  51.4862176  21.7228925  69.3202774
  54.1095808  20.0675721  72.7270056  54.8668418  19.5378492  72.5766873
  54.3026427  20.9330387  72.3279751  55.6925902   5.7555520  71.0145046
  55.0981766   6.5509272  70.8444888  56.1274551   5.6756827  70.1307812
  35.1775232   9.7927768  61.3010344  34.2354251   9.5365049  61.3108570
  35.1328866  10.6265182  61.7666633  46.7730520  13.2043624  69.9467423
  46.7319599  13.4578494  68.9869349  47.5243560  13.7905589  70.1926307
  46.6458006  20.9860056  63.6974799  46.3955374  21.6881490  63.0233365
  46.7097196  21.5680899  64.5181535  46.3957479   5.9866550  70.3296106
  46.1393808   5.9429798  69.4176536  46.5848487   5.0394560  70.5326968
  48.0105621  -1.9845743  71.4186496  47.2186889  -1.5514559  71.7682217
  47.9120728  -1.9114519  70.4547566  58.7779600  21.4660339  65.5236044
  59.3707984  22.2336894  65.2611694  58.1364295  21.4202039  64.8192458
  48.5411496  14.8821941  71.0659853  48.0757702  15.6881464  70.6947462
  49.3233358  15.3707249  71.4758810  55.7679390  -9.2286016  71.4623927
  54.8490298  -9.1211002  71.3541998  55.9380791 -10.1718955  71.6053661
  51.6052003  25.5789368  89.6700647  50.7517628  25.7411769  89.1447695
  51.7850419  26.4552560  90.0579085  59.1222341  30.1624677  72.2757125
  59.2590488  29.2053020  72.0309852  58.6578452  30.4856322  71.4842768
  44.4694805  19.8885267  74.6260478  43.6245400  20.4837350  74.6934457
  44.3286244  19.3310129  75.4150955  57.9151318  14.0927569  74.0342226
  57.6221223  14.2924410  74.9921251  58.0573567  13.1043480  74.1639512
  46.3931970  14.2257594  86.6547425  45.4027179  14.3128968  86.4518940
  46.7264551  14.1640696  85.7214965  51.8110307  26.0010724  83.7655896
  52.0020679  26.4322185  84.6544639  50.8884753  25.6397558  83.9393779
  58.6990161  17.1572900  90.5792768  58.8189743  17.1838267  91.5849526
  59.5734067  17.5715610  90.3272255  50.2701204  15.8971792  68.0598189
  49.6462868  16.2413322  68.7363397  49.7029163  15.2842970  67.5877122
  60.5763136  10.9590901  82.2157118  60.2164660  11.7495635  81.7731346
  60.4909211  11.1750394  83.1667585  57.5224674  16.4324813  72.7692040
  57.3136897  17.1553036  73.3799610  57.6441592  15.7167815  73.3794226
  52.9327045  21.4940619  81.3785807  53.5293201  21.4101486  80.6655006
  52.9349524  22.4660343  81.5300430  61.9751706  23.1859317  67.7958533
  62.1464592  23.5990565  66.9140732  62.4599738  22.3801106  67.7523042
  60.1074357  18.1577462  81.6479770  60.2524005  18.0718979  80.6874833
  60.3615920  17.2722200  81.9678909  63.6256349  33.5865136  95.8970631
  62.9690907  34.2810463  96.1938154  63.4169299  33.5973607  94.9333772
  54.2050510  25.4123975  79.5313880  53.3704443  25.7134648  79.9251682
  54.5706889  24.8384415  80.1711889  47.4587606  17.5103085  73.7080500
  47.4578462  16.5755476  73.7630294  48.3896244  17.7357307  73.9210274
  57.5863172  20.6230085  72.4373648  57.2867010  19.8381378  72.9238136
  58.0546756  20.2444962  71.6943710  58.6794710  28.0336197  68.1783639
  59.4500878  27.6485486  67.7676881  57.9437072  27.4093140  67.8704327
  60.0194500  14.1060186  54.6006381  59.1665107  14.0337133  54.1490979
  60.5918788  14.1579889  53.7912791  58.8927820  29.8103108  64.1215879
  58.3679435  29.1062090  63.6008082  59.4303753  29.2616009  64.6778654
  61.1489028  15.6377085  82.2020230  60.6551620  14.7758617  82.2600958
  61.0400484  15.9097553  83.1792823  45.9050149  16.0167426  82.2540680
  45.5240201  16.5538278  82.9856991  45.0301714  15.7520249  81.8450729
  56.1581506  31.3053222  77.2093704  56.4033114  32.1617796  77.5621458
  55.3906139  31.3933823  76.7010293  46.8502603   3.9713417  77.0051475
  46.1212886   3.3780398  77.3455859  47.1717763   4.3062881  77.8744707
  58.5408246  22.1716617  89.5101232  58.8065734  22.6533881  90.3274143
  59.0046532  22.6431015  88.8391742  54.2597666  22.1973539  71.2135437
  54.7802235  21.8962121  70.4299850  53.6407288  22.8297083  70.8294888
  58.4648338  27.3141404  80.5471236  58.3520248  26.4336142  80.0822825
  57.7371429  27.7919194  80.1682137  45.0176041  11.4429235  79.7156516
  45.5309266  11.0365053  80.4795605  44.3296430  11.9061070  80.2548998
  46.0914555  22.2975869  74.1138088  46.9998989  22.0110060  74.3549359
  45.5702034  21.5014799  74.3704402  48.4411974  30.7568876  76.7143411
  48.6137453  31.7159878  76.5740609  47.8693544  30.7742252  77.4795092
  48.3016391  33.3884311  76.0006364  47.8034715  33.6187712  75.2041078
  49.2420678  33.7660473  75.8221853  37.8423931  28.9839789  81.7871170
  37.3274244  29.7491841  81.4440048  37.0595014  28.6214261  82.2713675
  56.8524838  10.8715825  63.7339491  57.5214455  11.6121121  63.7277303
  56.5612873  10.9609372  64.6429057  55.8097186  10.3174506  71.5941717
  55.8053232  10.8634982  72.3784402  56.4936704   9.6663815  71.8436195
  59.0488910  22.8292322  68.5186760  58.5808258  22.4695733  67.7889646
  59.7363138  23.3896924  68.1639082  62.4974033  18.0958161  74.5443365
  61.7700322  18.2216659  73.8824722  62.3624288  17.1215719  74.6655038
  55.4539784  23.1024583  58.8668507  55.6123123  22.1271794  58.8766355
  54.9982306  23.2013233  59.7861041  45.6207394  11.0586454  86.0458824
  46.0759692  11.4309080  86.8341482  45.1542237  10.2774310  86.5149058
  53.7754520  24.0850713  82.4786629  53.0906867  24.5641888  82.9519718
  54.3776789  23.8138017  83.1342564  41.8965687  10.6526716  76.4219830
  42.8675763  10.7548769  76.5785762  41.5654142  11.4388670  76.8598223
  58.9342262   4.2499113  81.5333872  58.8889544   3.2709071  81.7057978
  59.6181039   4.5084629  82.2161020  58.1246327  12.3542843  69.0133996
  58.4172652  12.2195602  69.9677574  57.1776533  12.6175291  69.2376885
  63.7470967  32.5092611  80.3304159  63.6890092  33.4356164  80.1162941
  64.4949798  32.2508762  79.7302156  63.6149298  20.9529770  74.2834207
  62.8093697  20.4599666  73.9856194  64.1752707  20.1440832  74.3462350
  64.4189877  23.4430997  77.7888878  64.3589960  24.4046632  77.8108454
  64.0091743  23.2543177  76.9077141  63.9230587  15.0003087  66.9222594
  64.3781087  14.5047660  66.2138065  62.9911025  14.7775839  66.6907935
  65.8218429  11.1152479  79.6951937  65.5164265  11.0989647  78.7979315
  65.8558884  10.1174622  79.8850757  62.4075090  26.4994801  82.6043410
  62.1997501  27.3156362  82.1920421  61.6022684  25.9696609  82.5761005
  54.5166238  20.0719832  83.1586939  54.0494662  20.6555336  82.5499670
  55.2250853  20.6297095  83.4935501  49.2305538  28.0160676  74.0052667
  48.4869910  28.0801477  73.3978131  49.5209043  28.9840617  74.1307245
  53.7573046  16.2339999  65.6111379  53.6857174  16.0761227  64.6882501
  52.8239639  16.5798009  65.8143834  60.7644061  15.5608301  77.9435245
  60.9939018  14.7729081  78.4280568  61.2565214  16.2368603  78.4943501
  56.7667835  12.9409649  91.0955124  55.8877479  12.9489150  91.5400491
  56.4659731  13.2149852  90.2056687  62.5657869  34.6009585  75.2301853
  61.9446335  35.2497591  74.7880075  63.3825390  35.1581958  75.1207844
  47.1294849  22.6676700  79.9746615  47.0106409  22.7680644  79.0129160
  46.1861905  22.6054497  80.2961827  58.8144999  20.2920422  84.9343211
  59.4047695  20.3022964  85.7477939  58.6451265  19.2915781  84.9566515
  41.9933963  11.8547570  89.0106287  41.9275570  12.3023306  89.8748794
  41.1002617  11.7738942  88.7904515  40.4127695  18.4245175  88.2006041
  39.6145589  17.8349122  88.1364293  41.0199046  17.8641711  88.7871065
  58.1393857  21.8110637  78.1387127  58.1410705  21.0094480  78.8093726
  59.1234472  21.9633880  78.2338074  59.1740711  24.9616553  74.6565280
  58.5694187  25.5619039  75.1272901  59.6305563  25.5895826  74.0159540
  51.9403666  18.4710895  76.4788946  51.4660946  19.1640009  76.9591685
  51.8687071  18.8780655  75.5725211  66.0934418  19.5728747  69.1906725
  66.3052497  18.5819373  69.2177143  66.2250838  19.6648245  68.1871961
  60.8543637   6.5530160  80.7050978  61.6564117   7.0364945  80.4024047
  60.4937114   7.3682006  81.2806238  36.4915757  20.4744639  77.4310523
  37.3878579  20.5245870  77.7196800  36.6152214  19.9893132  76.5782290
  58.3439011  27.5404889  70.8232050  58.5548057  27.7734279  69.8643473
  57.4437214  27.1987293  70.7505752  40.9687686  14.7991450  79.3424652
  40.5206250  15.4430410  78.7778739  41.8946302  14.8610093  78.9679816
  57.2732192  25.4975427  78.8810059  56.7445366  24.7907668  79.1630984
  56.6119853  26.0582043  78.4334398  55.2439456  33.0922688  67.7416149
  56.2077559  33.1445505  67.9422640  55.0253875  34.0622412  67.9033925
  56.8033465  14.6941180  76.4772252  56.2246417  15.3636502  76.0748718
  56.6188025  14.7869982  77.4340219  54.4899536  36.1040653  81.9937929
  53.9869442  35.4548465  82.5164432  54.3020841  35.8403113  81.0942389
  83.2551095  28.9713716  82.3891775  82.5922224  29.5787343  82.0030431
  82.6385587  28.2640282  82.7501915  52.9347707  15.3639838  73.2208124
  52.6682573  15.4490184  74.1638218  52.0968288  15.5059578  72.7635296
  50.1178331  20.6437034  62.6105528  49.6604308  19.7819243  62.4649515
  50.2326440  20.9155810  61.6923735  48.1346045  13.9910757  94.0223435
  47.5581279  13.3277674  94.5286018  48.1290501  13.5399013  93.1322058
  54.3731323  39.8878119  81.1940161  54.7201398  40.6036008  81.7489213
  55.2337853  39.4297037  80.9400803  57.5703322  40.1017071  78.5205657
  56.8645491  40.7679999  78.3562131  58.3295453  40.6920782  78.4238679
  46.4859344  17.5951372  70.3051357  46.0306761  17.8713652  71.1499460
  45.7737953  17.8091744  69.6884617  58.9259499  34.7539284  64.2340025
  59.6079454  34.0808416  64.0130125  59.4040105  35.4699864  64.6833847
  51.9721072  26.4364061  81.1621311  52.2597831  27.3588404  81.1475403
  51.9241360  26.2791819  82.1519554  65.9340717  27.9759806  82.9332160
  65.0915223  28.5522575  83.0237301  65.5316038  27.1135370  83.0475849
  45.0788163  20.8883116  77.6976150  44.2432496  20.8341739  78.1127251
  45.3705607  21.7764001  78.0247417  60.1920364  32.2637611  64.3856766
  60.6069549  32.4361442  63.5170414  59.5752686  31.5159656  64.1407398
  46.7699828  11.3899822  74.1357638  46.7191112  11.6262144  75.1249506
  45.9287754  10.9078834  74.0432497  57.2947517  34.4817339  81.6728577
  56.7873787  35.0071447  82.2903194  57.9254173  34.0405109  82.2519129
  47.8034392  14.9603857  80.1523313  48.4864436  15.6157961  80.4956637
  47.0296460  15.3262784  80.5887743  57.2104978  16.0239344  83.8037183
  56.8607938  15.2727380  84.3262187  57.1068350  15.6056254  82.8782214
  49.7745497  17.1467609  78.1705645  50.6635104  17.2656964  77.7419437
  50.0290663  17.3292245  79.1170143  47.4454580  19.7540734  76.8088293
  46.6302256  20.2694746  76.9503778  47.0403735  18.8376306  76.9858879
  55.8112066  19.2375008  77.3310436  55.5263922  19.9372699  76.7077136
  56.7936040  19.2753572  77.3020357  51.2637009  18.1488003  84.7504638
  52.1543497  17.9495526  84.4352096  51.0584591  17.2720070  85.1717387
  63.5471867  17.1039739  68.8673873  63.0949497  17.8107333  68.5352954
  63.6069821  16.4554828  68.1395267  61.9781717  22.7931311  82.6696864
  62.2869427  22.9558532  81.7338922  62.8954412  22.7097910  83.0768085
  65.6874038  34.2090252  81.9866789  65.9008786  33.6603879  82.7488071
  64.9983968  33.6184750  81.5713804  50.0527302  25.4436757  79.7031968
  50.6517895  25.8911123  80.3633050  49.3597144  25.2347133  80.3864293
  50.4547089  28.7003147  70.8405877  49.4709943  28.6874976  71.0942510
  50.5376461  29.6939120  70.6281266  61.2829311  31.5162334  80.4612689
  62.2146211  31.6768679  80.3560159  61.3441242  30.6185434  80.9507701
  48.6892809  22.0392374  92.4536620  49.7188777  22.1101670  92.5333847
  48.4865018  22.0081948  93.3967797  58.3466642  19.5026180  76.3444144
  58.7521829  18.5979617  76.2615215  59.0809473  19.9856164  76.7600430
  53.7572601  13.5941197  86.5662493  53.2620487  13.8498104  87.4023656
  53.6172427  14.3634777  86.0238992  50.0669830  20.2588870  77.3541320
  49.7555937  20.4444346  78.2612805  49.2714413  19.8246643  77.0646976
  60.3813621  18.3444009  78.9294102  61.3584605  18.4523364  78.9691724
  60.2541799  18.5965106  78.0114947  71.3048428  26.3804631  63.6487485
  72.0202268  25.7827968  63.3368250  70.6971634  25.7167696  64.0692606
  67.7859373  34.3542030  79.2027941  67.6696876  35.1605538  78.7006199
  67.4150082  34.5576106  80.0654120  59.0976089  17.9724918  64.5777205
  58.7047339  17.0909693  64.3649162  58.3337659  18.3724760  65.0283745
  55.6606751   9.8670138  67.5148880  56.3428995   9.2479680  67.9741532
  55.3672796   9.2886188  66.8199677  44.6578204  19.7323440  88.4812929
  44.1419326  19.2842492  89.2274630  45.5429863  19.4953166  88.8004249
  48.8559488   1.0179481  90.2014735  49.0793292   0.3917224  89.4831018
  48.2059625   0.4196913  90.6749201  47.5187928  12.4805731  79.2007193
  47.6584067  13.4655541  79.3935749  46.5551074  12.4696020  79.2470020
  44.8157118  15.8998112  64.4106574  45.1062529  15.9450092  65.3745315
  45.0877786  16.7941586  64.1463609  41.9239674  31.9380098  78.6758672
  42.6258751  32.6082851  78.4328662  42.2318017  31.8837848  79.6714863
  51.4765717  31.0249672  86.6616194  51.2623188  31.4457462  87.5162333
  51.8568163  30.1610860  86.9298134  67.1220207  24.3531748  86.9613569
  67.9973611  24.5277647  86.4749925  66.8279766  25.2839230  87.0714800
  45.3536429  35.5784430  86.4965803  45.8981969  36.0182999  85.7809800
  44.4931371  35.6813822  86.0961242  49.0846415  27.8826480  78.3418745
  49.4680909  27.0635828  78.7211154  49.6908119  28.5385719  78.7505526
  51.2288507  20.8142671  83.5246710  51.9576584  20.8585168  82.8444042
  51.7854695  20.4376202  84.2607141  51.9010552  24.1948839  63.7482057
  51.3118145  24.0832076  64.5600370  52.6542029  23.6114138  64.0703731
  61.1306601  16.1209767  84.8565952  61.8559260  16.7816544  84.9447890
  61.5215290  15.4275977  85.4588303  59.4554994  17.3429733  68.1405150
  59.3265963  16.8981062  69.0564525  59.0560700  16.5681509  67.6084445
  51.1749844   8.4202051  63.1338155  52.0446028   8.1934189  62.8148320
  50.5688190   7.9643147  62.5003115  51.3353925  26.6273534  69.2703612
  51.0961921  27.4625459  69.7022810  50.6777918  26.0150869  69.7095247
  44.1192588  17.8433959  69.1103433  43.6923195  18.6644410  69.2494940
  44.2045493  17.8173664  68.1476224  61.5332299  26.5700166  76.0811532
  62.1738109  26.4682000  75.3386258  60.7793980  27.0033658  75.6177643
  59.1723365  35.6721685  79.2885772  59.6948394  34.9803239  78.7158378
  58.6136193  35.0085264  79.7208692  49.9284923  26.2880099  61.1891002
  49.9211161  26.8718820  60.3949088  50.8701826  26.2744015  61.4451804
  63.7390508  52.1399918  80.7375414  62.8865545  51.9846088  80.3095028
  64.1913225  52.6516052  80.0707474  66.7140054  39.6737062  68.8423771
  67.1395637  40.0795338  69.5889797  66.6963338  38.7419686  69.1107419
  58.9459698  30.9153274  76.7629811  59.1355500  30.1296659  76.1965051
  57.9190409  30.8951075  76.6489330  55.6097217  39.4058512  76.0640051
  55.1784528  39.2452733  76.9164739  55.5719225  38.4881547  75.7190999
  62.8656350  27.4438219  79.5359774  62.4505255  27.8802402  78.7843880
  62.8468485  26.4934958  79.2869549  62.4657019  40.6466055  72.0372496
  63.1715348  41.2617542  71.9635028  62.2558186  40.4437660  71.0825943
  61.5667143  37.1739157  79.3941181  60.7486697  36.6969949  79.5120755
  61.6579679  37.1257229  78.4088950  60.9740320  35.0941627  71.5580947
  60.3005225  35.3752846  70.8930246  60.6605442  34.1788299  71.7294716
  54.6819918  41.3481290  74.3269932  54.9157477  40.8558927  73.5295990
  55.1087039  40.7930577  75.0211309  68.0304349  27.4507436  84.5340566
  67.5255961  27.3651950  85.4069183  67.3514158  27.7854255  83.9725649
  86.9306064  31.8512821  92.2935867  87.4091952  31.2392269  91.6952954
  87.3664626  31.6294036  93.1578879  58.8406858  19.6402435  70.4951929
  58.2031282  19.2286779  69.8470532  59.3843658  20.1546034  69.8594408
  69.8934234  37.9104848  77.7490705  70.4271533  38.2830943  78.4390771
  70.3314786  38.1754372  76.9171318  66.4515344  32.1643629  73.5094899
  65.5109659  32.3800829  73.4917751  66.6938153  32.1800515  74.4553222
  73.1614900  31.7694617  76.8243940  73.6974182  30.9579886  76.7056941
  73.1593566  31.7532336  77.8497821  76.1387292  38.3153854  75.5346319
  76.3854705  37.5291036  76.0799392  76.9095262  38.8788338  75.6958665
  78.4370657  33.0786786  60.9138758  78.2162592  33.9383995  60.5564948
  78.3497360  32.5360366  60.0891568  58.3929105  33.0154954  87.4558702
  58.2982627  33.2308194  86.5119316  57.6801662  33.6295949  87.8192142
  55.4550285  28.6796877  66.5036117  55.8062883  27.8465499  66.1538826
  55.2233945  28.4182267  67.4431377  57.5897393  30.5353778  86.9562812
  57.3267566  30.8544099  86.0166095  57.9686819  31.4470617  87.2389776
  61.3938584  39.0118755  63.8713491  61.7029621  39.4380921  64.7249408
  62.2694311  38.9079612  63.4283380  48.0108203  25.0381642  72.9816340
  48.6635134  24.2608924  73.0988908  48.0752071  25.2766111  73.9688594
  66.2868081  44.9830144  70.7089197  65.4900711  45.0254432  71.2205460
  66.2417558  45.8396427  70.2605530  59.1024115  43.7828495  79.9524580
  59.2692633  42.9718925  79.4095578  59.7341283  43.6103834  80.6245835
  52.8030704  29.5057394  67.5176175  53.7849737  29.4750462  67.4054782
  52.7497332  29.5116769  68.4621122  75.4903789  23.2764625  63.2608216
  75.2636955  23.5690334  62.3264774  76.4749461  23.4902355  63.1942280
  77.1506503  36.1466013  77.2481705  77.2587696  36.6140583  78.1471947
  76.7153022  35.3242978  77.5774152  70.7095922  30.0658246  68.8554592
  69.9850874  30.4323038  69.3651947  70.7009645  30.6827999  68.0883167
  65.3076579  31.5800670  69.5663486  65.6475771  32.4261105  69.9950038
  65.0780181  31.9725318  68.6680967  66.2606647  22.6306593  75.4336562
  65.9972000  21.9058558  76.0555184  67.0489938  22.9894015  75.8789662
  70.5969819  46.2736024  74.4595398  69.7345242  46.2443663  74.9109559
  70.8008481  45.3087324  74.3875850  66.3395157  16.2604306  74.5066437
  67.1413187  16.7289203  74.3506676  65.7969241  16.8526028  75.0894705
  59.3629904  35.1185080  85.2090237  60.2291883  34.7337442  84.8774355
  59.7683048  35.6948897  85.9286350  59.0245992  37.8599662  77.5212895
  59.0272680  37.2969094  78.3634629  58.5098459  38.6196276  77.8507072
  59.6593309  23.0942338  71.2307711  60.5403587  23.4109612  71.1196476
  59.3804493  23.1268191  70.2569456  70.5846018  29.8537717  64.0767793
  70.5941419  29.9553250  63.0745436  70.4112212  30.7598486  64.3108238
  72.5772261  50.6320805  70.2585553  73.0836997  51.4340796  70.3523991
  71.9028466  50.9142974  69.6454701  67.2292754  29.5958607  76.6268906
  67.8616636  29.6084633  75.9179991  67.2197782  30.4977406  76.9339979
  76.2590733  41.2806227  76.1588000  76.3388378  41.6598323  77.0631520
  77.1624576  40.8899268  76.1086541  56.0724942  42.1713489  77.6986884
  55.2734143  41.6181907  77.8918613  55.6329016  43.0789315  77.8008935
  62.9205471  49.8395397  75.2424381  63.6082718  50.1715460  75.8366790
  62.0906482  50.0054378  75.7516239  71.4624784  43.7639969  74.4713142
  71.4109025  43.7160519  75.4320577  72.3227559  43.9829541  74.2813654
  58.4176127  32.0671384  66.4529351  59.1324698  32.0062741  65.7909520
  57.6526231  31.6530388  65.9578984  61.1602123  44.3234784  90.6661177
  60.2533772  43.9677823  90.8705093  61.1340808  45.1937083  91.1231657
  57.9787277  26.6186928  76.4401593  57.0308699  26.6070215  76.2208377
  58.0403875  25.7840770  76.9897369  63.1871946  37.4170517  85.8049011
  63.3615342  36.7951789  85.0282972  62.4849478  36.8886277  86.2499387
  61.4433853  39.8377401  80.1530314  62.3463417  39.7181694  80.6360103
  61.4462867  38.9182783  79.7159529  70.6189705  32.9900483  78.0080354
  71.2458931  33.7285556  78.2208132  71.2351439  32.3073649  77.8005963
  60.8995100  45.4231184  85.8643346  59.9447406  45.2367097  85.9210403
  61.1845251  44.7074506  86.4454163  60.6923691  41.1136910  82.6100226
  60.9755679  40.6597284  81.7845029  60.3940069  40.2823653  83.0856641
  50.6317680  34.4415151  74.9666556  51.2014340  33.6977276  75.0572652
  50.6246176  34.6824848  74.0217168  69.7260254  26.1593401  76.6328135
  69.0934092  26.6995759  77.1689725  70.3545174  26.8366824  76.4092475
  59.6979910  28.5930147  75.2872723  58.9641115  27.9426907  75.5268857
  59.4165056  28.7532350  74.3723055  66.6977325  31.1091794  79.8316309
  66.2531268  30.2873251  79.6082941  66.4871251  31.1288668  80.8459443
  66.2670111  49.0249073  76.2615300  66.3381097  48.5918171  75.3447330
  66.7328964  48.3331422  76.7891563  52.8132303  33.5963354  77.3594890
  52.2865875  34.2451266  77.9618765  53.2323533  33.0706953  78.0746320
  59.2085689  32.7104622  83.1664918  58.5817974  32.6469197  83.9176603
  59.1239655  31.7936492  82.8246711  65.4902722  36.9110041  68.9166680
  66.3215866  36.8331539  69.4264300  64.8904304  36.5792427  69.6093247
  55.6558021  26.4998094  71.1210154  56.1116032  25.7237330  71.4738075
  55.3093576  26.8919712  71.9903088  58.6967041  37.7288156  83.0610861
  58.9134088  37.9310578  84.0069595  59.4981721  37.4800691  82.6734747
  60.7814580  50.3105265  77.1364740  60.9215843  50.5239137  78.0558094
  59.8426753  50.3576135  76.9901722  71.6497788  35.1540550  75.6583506
  72.1139443  34.4487051  75.1005500  71.4836716  35.8240966  74.9300052
  65.3074537  41.2800979  85.4904928  65.2782745  40.3598967  85.8452137
  64.4918720  41.2097681  84.9191443  67.5132582  36.7057643  77.8022136
  67.3012875  37.5369838  78.3714959  68.3664327  36.9692579  77.4673773
  79.5262990  53.8063706  74.6163363  79.5638410  53.2071317  75.4229947
  80.3187832  54.2606700  74.7102806  75.7676230  41.6924895  81.8390094
  75.4251784  42.6356851  81.9657452  75.9806852  41.4787715  82.7556034
  53.6223628  44.5415035  96.0366823  52.9640697  43.8728835  96.2958497
  52.9915192  45.1163334  95.5546376  61.1636667  36.8394577  82.2796785
  61.1217047  35.8925729  82.3558608  61.3672849  36.9136210  81.3209011
  56.8826488  18.6210552  74.1073917  56.3659979  17.9694256  74.6845362
  57.3599249  19.0782229  74.8326436  61.3749171  34.4732258  77.8337736
  61.9574062  33.6870183  77.7563245  61.8383484  35.0283078  77.1619902
  63.0999132  20.8889548  65.2995721  62.1945927  20.5857402  65.4998969
  63.4800077  20.9284851  66.1859546  63.8710561  39.1155501  80.8563135
  64.1276995  38.5178583  80.1198110  64.1293719  38.5665173  81.6571610
  57.3543687  22.2952705  75.2767585  57.7517505  21.9862846  76.0967501
  56.5236933  21.7750552  75.1704724  74.4113312  18.0181405  78.1048809
  74.2472659  17.1163321  78.5630422  74.4890105  18.5853382  78.8930020
  71.9937468  26.5173256  67.9153863  71.1188533  26.5143384  68.3026793
  72.1337262  27.4536860  67.6970585  77.1676427  32.8893397  75.2390799
  78.0802714  32.9869240  75.5936864  76.6331297  33.2107988  75.9956110
  66.7310868  22.8514104  79.0028831  65.9878465  23.0607165  78.4204687
  66.3242543  22.5841356  79.7939442  69.1755618  37.5596844  81.1209975
  69.8921782  38.1423293  80.7509819  68.4080479  37.9758825  80.7172442
  51.3532823  43.0263887  86.8545655  51.6632027  43.7024839  87.4742197
  50.9583803  42.3539398  87.4796192  65.7848284  28.6516672  79.5083903
  65.2809491  28.4926043  78.6879049  65.3755969  27.9061455  80.0437390
  77.2591815  38.1568874  79.7324833  77.6303648  39.0333473  79.9453421
  76.4267269  38.5328164  79.2551242  60.5425855  38.8055718  85.0105089
  61.4491087  38.6206553  85.1846588  60.2748617  39.2782755  85.8863965
  76.3003327  48.1636021  76.8565341  75.4145025  48.0598950  77.2859647
  76.7592390  47.3795844  77.1020777  67.3208124  40.7197884  83.5121412
  67.1158835  39.7180745  83.6231993  66.6645877  41.0442629  84.2095448
  50.7136116  38.7888752  74.7568259  49.7888196  38.9877283  74.4086241
  50.4166392  38.0759198  75.3816083  64.6837312  41.4278857  79.1765798
  64.2532257  40.5640251  79.4191498  64.6957242  41.8376683  80.0598909
  53.3598682  24.5934737  73.4235757  53.8780637  25.3464294  73.7376221
  52.5712309  25.1253614  73.0748425  72.4777486  47.2426750  76.7906140
  72.1324226  46.9467279  75.9710283  72.3340614  48.2102535  76.8388186
  61.1159963  28.8668211  81.0722089  61.7934813  28.3718126  80.5358375
  60.3314880  28.5772449  80.6113477  79.4540920  30.0050644  76.4949053
  80.3217007  29.5790486  76.6096955  78.8977256  29.3556551  77.0353507
  68.8704417  46.1560184  63.2960621  69.4505718  45.3699132  63.1887693
  68.3680567  45.9101782  64.0878298  64.9479279  35.7253088  74.0209998
  64.9719212  35.4851941  73.1245635  65.7253441  36.2965959  74.1213388
  70.1702021  41.3400683  69.7410669  70.3382314  40.3852652  69.5154464
  70.7174926  41.3594044  70.5336452  70.3127896  36.5225309  68.4093734
  70.1873305  35.6000977  68.4691918  70.1291960  36.6524653  67.4389758
  66.2712220  29.2950891  73.0670510  65.3180211  29.5072609  73.1970025
  66.6155584  30.2071118  73.2500269  46.8708438  16.9943029  78.2240716
  47.8241800  16.8142219  78.3706801  46.7733124  17.7911226  78.7938063
  54.2539468  33.7139670  71.2906718  53.9163508  34.6519500  71.2590557
  55.0822911  33.9628408  71.7792258  69.2413789  47.4284964  84.3869792
  68.5902783  47.3486864  83.6483207  68.7756203  46.8801649  85.0317070
  70.7105202  35.9564089  72.0207836  71.5232871  36.4915704  71.7232251
  71.0711466  35.1026739  71.6850165  54.4395710  29.2269152  79.3453112
  55.4128826  29.3843726  79.4763116  54.3241574  29.8807873  78.5990163
  61.9157527  42.0712528  86.3007576  60.9920440  41.8044134  86.1693683
  61.8371599  42.7257445  87.0414393  56.9657131  29.3785945  78.9562745
  57.5817027  30.1852772  79.1446721  56.6895401  29.5201372  78.1032755
  65.8615690  27.2245801  70.3382440  66.3576630  28.0826749  70.3094505
  64.9902442  27.5649541  70.4184468  65.5262879  22.5868753  82.8227945
  66.4248405  22.9510350  82.6112347  65.5364919  21.8006988  82.1552139
  59.2618639  43.4452972  83.6114357  59.9510472  44.0418155  83.9809557
  59.7874136  42.7727085  83.1887202  67.2538945  39.5294123  79.7049194
  66.2650753  39.5357584  79.8958080  67.2676754  40.0775344  78.9206014
  73.8413984  39.3399591  69.8004745  73.9274179  40.1782041  70.3286548
  74.7795493  38.9779769  69.9482726  61.1551453  51.6131696  79.8130588
  60.7992628  51.8833547  80.6743566  61.1108213  52.4721286  79.3356445
  72.5738338  39.5506363  73.5644178  72.6973919  38.6525094  73.2218609
  73.4761240  39.8890268  73.5594066  62.0255014  34.8411721  68.3319440
  61.7306501  34.0810981  68.9047992  62.3582753  34.4277335  67.5683053
  48.9361198  34.3925785  87.1910973  49.2214067  33.5687451  87.6605633
  48.7354726  34.0122807  86.2808870  68.8989147  24.4783966  69.2782932
  69.1452604  25.4194595  69.2025906  67.9696744  24.5501080  69.5094082
  57.9653770  51.8615838  90.7422206  57.5583730  51.4811183  89.9315819
  57.2534330  52.5226236  91.0388858  81.8003934  46.5460384  53.6831324
  81.5548795  46.7218578  54.6598564  81.7605738  47.5168326  53.4216163
  68.2058606  49.4393988  69.1517767  67.4263417  49.9661043  69.3520561
  68.8368721  49.6916457  69.8391797  67.5298917  41.5913115  71.6925887
  67.5398063  42.3511175  72.3283449  68.1417880  41.9097090  70.9926222
  66.6941347  41.8025487  75.0747021  66.2223644  40.9460738  74.9297633
  66.0414181  42.4232088  74.7217630  71.8772772  42.2123291  63.9663543
  72.8109794  42.2670146  63.8482910  71.5875703  43.1056556  63.6381126
  67.1721507  39.0572708  72.3861612  67.2352438  39.9566332  72.0505752
  67.7975125  38.6510423  71.7319124  71.9170760  49.2944566  58.4886263
  71.9182317  50.1541057  57.9907612  72.9036346  49.2290559  58.6094516
  71.6862851  65.5587752  76.0068485  72.4931035  64.9992155  76.1682611
  71.3868733  65.6860362  76.8850009  80.9705208  54.0460699  67.4966754
  81.0183274  53.8430869  66.5222766  81.5816525  54.8294409  67.6190561
  71.5897912  50.2130598  78.9363131  72.2568241  50.2453044  78.1844317
  70.7766991  50.3202626  78.3440007  67.8298912  27.2264823  78.0432196
  67.2867471  28.0297297  78.0315783  67.4927609  26.8121218  78.8593598
  75.7138821  51.5191252  68.3620276  74.8876735  51.8502050  67.9119172
  75.6920257  50.5839583  67.9187381  79.9205631  51.7164574  68.6209211
  80.2765201  52.6229060  68.7977544  79.0432417  52.0198054  68.2077206
  66.3777873  43.5020576  82.6117852  66.6618093  42.5967294  82.7028767
  66.8162464  43.8659577  83.4601939  65.4581207  48.8776015  85.0283495
  64.6223651  49.2579601  84.9235995  65.4991044  48.7547974  85.9823455
  79.8707892  55.5018240  69.8106514  80.2682346  55.0743561  68.9726079
  79.6660604  54.6965956  70.3316075  78.0487496  40.5814600  88.2516954
  78.6288808  41.2886981  88.5510210  78.3010825  40.5197162  87.2806452
  64.6386020  33.8249552  76.9781542  63.9386520  33.1697144  77.1718624
  64.4090074  34.0455339  76.0543152  75.2443750  50.0472244  71.9112497
  75.3391138  49.5349861  71.0589338  74.9982229  50.9147442  71.5432469
  73.4918479  45.4476074  78.7751685  73.3159693  44.6963177  78.1129363
  73.1623525  46.1616288  78.1394771  74.9834746  36.4047035  66.4181688
  74.9851077  36.0387630  67.3197004  74.8357929  35.6433091  65.8862162
  74.0662569  45.0333068  73.8227061  74.4325759  44.7987043  74.6655828
  74.9067007  44.9598458  73.2663569  64.1458496  42.6427031  81.5349168
  65.0697796  42.9743521  81.7288472  63.8934718  42.3606674  82.4392133
  70.9001799  44.3797227  71.6707649  71.2679286  43.5993057  72.1541101
  69.9587665  44.2646468  71.8658272  77.9004102  48.6522650  68.1489970
  77.1689019  49.1211533  67.7563921  77.4272943  47.8604927  68.5378284
  51.5140837   4.6993712  73.6255321  52.1662951   3.9676537  73.6074947
  51.1200917   4.5777917  72.7217880  69.4708274  12.5382181  69.4660006
  69.1471760  11.7459720  69.0478350  69.5078401  13.1454549  68.6831403
  52.9049721   5.8980876  78.4906490  52.7048419   5.1483174  77.8571552
  53.1577718   6.5812961  77.8115315  56.4865532   5.6100662  61.1693803
  57.3244470   5.7237903  60.6394020  55.9273195   6.2986051  60.7644172
  57.0795609   5.7310416  73.2050827  56.5096204   5.6861044  72.3366686
  56.3499568   6.1224343  73.7604734  49.4022637  11.2716131  64.6916826
  49.0646579  11.6396711  65.5375965  49.5459498  10.3761215  64.9526071
  54.3782451   7.9891733  71.2920561  54.8986581   8.7179178  71.6931644
  53.7650904   7.7873546  72.0725215  49.9945954  12.6189347  69.4178667
  49.8174555  12.3121662  70.3345854  50.8197354  13.1305430  69.5408775
  55.2918116   3.0979176  71.5522582  55.3460859   4.0685482  71.4227865
  56.0900934   2.7831115  71.1077641  61.6238348  -0.7781587  73.3506280
  62.4200935  -0.5650807  72.8086321  60.9421203  -0.2054891  72.8735259
  60.9252721  12.3404809  64.2666799  60.7361748  11.9174563  63.4069122
  61.3387529  11.6107025  64.7799266  58.3143362  13.0351273  63.6929383
  59.1301536  12.8040902  64.1258633  58.6479068  13.4103267  62.8405064
  50.6615577   7.5217336  53.7709889  50.1192681   6.6795596  53.7705078
  51.5198972   7.0921561  53.4587005  57.3226083  -5.0090175  60.7621427
  57.0341733  -4.3451198  60.0962181  57.7238378  -5.7067423  60.2785831
  43.0691431   8.6469140  61.4886231  44.0466975   8.4735766  61.3769730
  42.7249308   7.8165936  61.0944266  52.8127446   5.8807917  67.1796080
  52.6315084   6.6100502  67.8283313  51.9004798   5.8130745  66.7892572
  58.9042544  12.1042011  71.4140345  59.7077294  12.6763049  71.6469970
  58.4988455  12.1240934  72.3284487  59.3551213   2.0115820  64.7635619
  58.9232809   1.6952671  65.5893400  58.5034856   2.1220593  64.2422905
  49.1622144  11.8403038  71.8925939  48.3004489  11.3742784  71.7103097
  48.8604385  12.3589991  72.6698596  47.4869543   2.9914187  61.3483518
  46.5504718   3.2096289  61.0777650  47.3093352   2.2322263  61.9396906
  48.5387708  -1.0694266  56.8453553  47.7505582  -0.6474021  56.4489962
  49.0017143  -1.4370436  56.0010454  53.8471817  -2.6547877  63.6641321
  54.3779604  -3.4215649  63.4815329  53.9285501  -2.1513541  62.8131610
  61.0313691   1.5460866  67.8164646  61.2752941   0.7730793  67.2911290
  60.1511700   1.7615412  67.5420362  45.4600431  10.4597201  52.0263159
  44.6299542  10.8069593  52.4269902  45.7559703   9.9535546  52.8229316
  52.3643757  -0.5238752  59.5914816  51.6040631  -0.0694588  59.0982401
  52.5680458  -1.1145779  58.8005961  47.3555582   8.2699915  76.7143288
  47.6779948   8.7198233  75.8792885  47.9405605   8.7032653  77.3307071
  46.7203779  12.5101913  61.6819223  46.1485563  11.7349260  61.4990166
  46.1035424  12.9826767  62.2900262  61.2551886  20.5293636  72.7282783
  60.6381926  21.2545215  73.0584989  60.6789948  19.7379816  72.8484346
  53.4170268  11.2949021  70.8445316  54.2211105  10.7578478  71.0954194
  53.0693814  11.4404344  71.7506929  65.0266076  13.8847123  64.8619627
  65.8087800  14.3124027  64.5370624  64.3686698  13.9948911  64.0654664
  77.3985782  10.2554442  55.9878668  77.8560896   9.6711317  56.6422976
  76.7222103   9.5581098  55.7002113  51.9458220  10.8088774  46.6298767
  52.0544466   9.8342158  46.5200038  51.6491628  10.7764172  47.5514025
  62.4321176  23.0684201  70.7269781  62.6906541  22.1759557  70.8631650
  62.4092439  23.1477484  69.7213805  65.8318007   2.7900072  69.7609431
  65.5251789   3.5814529  70.2441865  64.9940383   2.3338234  69.6061227
  65.2517013   8.6592265  56.1614837  65.4940186   7.9343565  56.7214200
  66.1613279   8.9488160  55.8267512  58.1747222  -0.8945664  68.8906162
  57.5835312  -0.7690149  68.0939237  57.9371603  -0.0491034  69.3671037
  72.6616618  19.9517792  65.3094357  73.3556646  20.6648443  65.5240214
  73.0260090  19.2464363  65.8308632  71.0192837  15.5156462  54.7419681
  70.8021774  16.0382270  53.9526452  71.3053079  14.6891521  54.3227695
  60.4836254   4.2071711  65.3096991  60.1589040   4.6720621  64.5057557
  59.9391798   3.3965446  65.3165202  59.2877484   1.0671564  59.7261718
  58.9672343   0.6476028  58.8673191  59.9634706   0.3899632  60.0139924
  51.1204211   6.9043405  70.9099218  51.0425189   7.1162884  71.8307857
  50.2483409   7.0661175  70.5494535  67.0026754  15.0296946  63.0013853
  66.7865894  15.8544669  62.5334303  67.9154021  14.8155321  62.5953504
  66.8984806  11.8813749  62.3542813  65.9750057  11.6464722  62.1722771
  66.8257195  12.7778658  62.7233014  51.2908578  13.7153768  64.2916467
  51.7731262  13.9800538  65.0986670  50.8872666  12.8572483  64.5423045
  69.3516080  21.4532990  57.0827142  69.7287574  22.3935192  57.1289736
  69.5107203  21.2480670  58.0051188  61.4522139  13.0025066  48.9521979
  60.6628875  13.1364563  48.3459267  62.0246682  12.5084125  48.3407831
  66.6239429  17.0631153  61.2983119  66.4274117  18.0054779  61.0393481
  67.2299862  16.8486283  60.5140966  68.6555176  18.0242548  64.8640246
  68.6967707  18.1343176  63.8966369  69.4022270  17.3487596  64.9867991
  68.5903492  17.0603526  59.2909382  68.9148391  16.9573509  58.3574951
  69.2435192  16.5532571  59.7911188  65.4295803   8.9649480  69.9954068
  65.3826352   9.0098383  68.9756241  64.8986644   8.1860095  70.1630219
  58.0484540   8.7236643  54.0435090  58.3667742   8.1963503  53.3074492
  57.1448993   8.3656302  54.1349958  57.1731138   9.5780638  81.7144780
  56.3818534   9.1252526  82.0316321  57.2210614  10.2306743  82.4784107
  59.6631940   3.3265498  55.0951487  60.4928204   3.0571190  55.6029016
  59.3804802   4.0853066  55.6663406  63.2530490  20.1332249  70.9247147
  62.7070638  19.7108957  70.2307646  62.5372694  20.4035781  71.5775095
  58.7007084   6.3276897  67.5371164  58.1010279   5.7303837  68.0793028
  58.1232304   6.4500859  66.7794612  61.7765026  19.0821852  59.2042446
  61.9299037  19.0622081  58.2343863  62.5748672  19.5469816  59.5018389
  74.8951798  12.4935842  64.1454756  74.0372385  12.9761073  64.1238705
  75.4654544  12.8851224  63.5055539  50.8431966  19.4401736  51.7306301
  51.1326710  18.6244648  52.2285183  50.0115155  18.9643298  51.3830175
  57.0521172  19.4155630  54.6345539  57.5317572  19.1246087  53.8972293
  56.7581123  18.5999737  55.0074358  57.1563771  20.5694686  51.5560575
  57.8183296  19.9550760  51.9250645  57.2379206  21.3642756  52.1114713
  76.7570728   1.7489082  61.5766492  76.5233937   1.1253968  60.9000486
  77.2280091   2.4627390  61.1521674  80.0277866  28.2900062  53.2025653
  80.7098112  27.8502978  53.7279811  79.6429730  27.5156213  52.7273777
  77.5170864  11.5891083  52.8613560  78.2159711  11.8120426  52.2342200
  77.6719330  12.2098696  53.5695010  73.4557112   2.4216895  48.7549944
  73.7151689   1.4619944  48.8659820  73.6335990   2.5982587  47.8318633
  61.3457904  15.8761913  63.6835667  61.5500648  15.5125771  64.5381638
  61.3513455  16.8383584  63.7690392  69.6167862  18.9516484  60.8571892
  69.2094231  18.3396548  60.2368505  70.0019738  18.2954100  61.5253902
  71.0155421  14.8472957  48.9667438  70.9599862  14.3017290  48.1525305
  71.6415209  15.5805290  48.5868182  70.3347355   8.5109881  44.6662482
  69.8719132   7.6290861  44.8223102  71.0274919   8.4850151  45.2802688
  60.1648858  23.4524214  64.1631962  61.0449402  23.1283569  64.0928258
  60.3201228  24.4167638  64.0759756  62.5912458   6.6728747  62.8089552
  61.9821308   6.0400277  63.1554728  63.4243038   6.3167021  63.0385300
  68.4912393  17.9723858  74.4581538  69.2612173  18.5245266  74.1516998
  68.5642596  18.2087272  75.3970738  75.3671047  10.1377475  52.6910004
  76.1240302  10.7718630  52.8761661  75.1390524  10.3227115  51.7906802
  68.6387112  10.3765438  67.4990587  68.8049735  10.9056516  66.6834444
  68.2052012   9.6054461  67.1000564  69.7462718  18.2572901  69.8389779
  69.1922229  17.4340829  69.6434444  69.7803956  18.5314885  68.8681016
  59.5273703  10.4032849  67.4973746  59.0069047  11.1388102  67.9143463
  59.0068874   9.7029989  67.8493139  70.1458860   6.1196359  55.7463621
  69.9208579   6.6478842  56.5449728  69.5892605   5.3136148  55.9456513
  80.2503561   3.8283600  54.1993084  79.8149707   3.1501519  54.6498893
  80.9286742   3.3168871  53.7090565  71.7106536   1.5663942  68.9055725
  72.5555586   1.6361121  68.4244602  71.1203585   1.1096518  68.2755878
  73.2525029  19.1797294  62.7441727  73.9849528  19.5495328  63.3538312
  72.6411646  19.0183732  63.4602053  64.2770254  16.9215417  57.9232431
  64.5685729  15.9967199  58.0935660  64.5156393  17.3454127  58.7712368
  62.4120993   9.9084197  69.0440818  63.1479345   9.9396640  68.3640697
  61.9216125  10.7372778  68.8122993  67.5328055  21.5632074  65.2296690
  67.9253124  21.2551054  64.3817033  68.3396191  22.0646170  65.5714230
  70.3164573  15.6204300  72.3547768  71.1031327  15.9725482  72.8076449
  69.9315346  16.4073432  71.9541025  62.8801156   3.6907263  48.2281688
  62.2357239   4.0754074  48.8376665  63.5811392   4.3528346  48.2744766
  55.2002986   8.4641359  65.1783125  55.1809992   8.0540062  64.3096417
  54.4761386   9.1767459  65.0477176  51.2203410  11.0088020  73.4586088
  50.5269351  10.6265672  72.8575197  50.6594736  11.6273691  73.9754257
  77.0505429   8.9521584  67.0574637  77.8890484   9.3469845  67.3973214
  76.6045637   9.8434102  66.8618591  58.0451380   9.4347340  59.7489193
  58.1345078   8.4566505  59.7912115  58.5547385   9.6871632  58.9987983
  69.2816935  22.9993353  66.9744414  69.4479404  22.1614957  67.4613020
  69.3575147  23.6454769  67.7322299  58.0972867  19.7376441  79.6525633
  58.1974460  19.5608942  80.5970238  58.6415503  19.0888179  79.2249647
  67.6659026  14.7913428  55.4568854  66.9643034  15.4054752  55.7835094
  68.4377430  15.2706753  55.7899318  64.2795983  26.6149484  67.1110229
  63.6089526  27.1606826  67.5463200  64.1626367  27.0521017  66.1994811
  56.2883144  18.0199586  50.7996270  56.3758188  17.5861119  51.6935225
  56.5401314  18.9310370  51.1127993  60.2783880  10.3033500  46.9286499
  59.3451230  10.4404352  47.2250230  60.7329177  10.7700384  47.6816214
  53.2904870   7.4569340  85.4956032  52.4840690   7.7748013  84.9980561
  52.8928807   6.8856392  86.2017301  63.2340410  18.4828727  78.8582056
  63.7551439  19.2119920  79.2030123  63.8727039  17.7734062  78.7697109
  66.3164554   2.4164993  56.3453295  65.9075831   2.6039842  57.1888607
  66.8203750   1.5751128  56.5407131  69.4705045  24.3747241  64.6148474
  69.4756102  23.5652987  64.1214938  69.2342914  23.9855597  65.5087555
  72.4140395  13.4751118  61.7664302  72.9140427  12.5962772  61.6467278
  72.6672795  13.8924391  60.9277900  66.5748901   6.4982666  57.7240560
  66.2085903   6.2660982  58.6141453  67.5617576   6.5487141  57.9075420
  62.8146330  24.1320364  65.5699492  63.4573886  24.9167137  65.6328683
  63.3090654  23.6752926  64.8451559  66.9673648  19.8674241  57.0549112
  67.4852212  20.6026555  56.7990592  66.1067525  20.2361426  57.3223317
  78.4535784  24.0392490  68.0553397  78.0545540  23.9050460  68.9429651
  77.6562524  23.7645445  67.4919193  73.4419037  17.7853131  60.1115025
  74.3816442  17.9057784  60.2722354  73.0852974  18.2592348  60.8969313
  60.7730686  19.8815590  66.0862512  59.9157302  20.4255444  65.9022169
  60.3940432  18.9787711  65.8523275  69.5396368  25.7529570  72.9874245
  68.6483624  26.0307984  73.3206804  69.8941429  25.2616411  73.7289986
  50.9288597  -2.4496214  71.3767296  49.9651919  -2.3669055  71.3348133
  51.1349323  -2.4154420  70.4091427  69.0674685  20.4794811  63.0141807
  69.8974815  20.9498646  63.3123564  69.4694111  20.0239649  62.2381213
  58.8097023  16.8244534  76.3341821  59.6014789  16.5120646  76.6798086
  58.2079573  16.0797924  76.4952070  61.1535492   9.6085897  59.8963748
  60.8440247   9.8489054  58.9949471  62.1149824   9.6066064  59.6823332
  65.8224684  19.0769196  59.6214317  66.1685890  19.3768296  58.8021981
  65.1085337  19.6729660  59.8254386  77.3234232  13.3992043  76.2512105
  76.4186416  13.4468845  76.5474932  77.4436632  14.2637719  75.8170367
  64.7190011   5.3815899  56.3729224  65.1899891   5.2035672  55.5655971
  65.3538052   5.8397493  56.9456054  74.0669738  18.7507067  55.5467278
  73.9034919  19.6650425  55.1548284  73.5137806  18.7737606  56.3039736
  58.0039675  -2.9937479  53.7418679  57.8190944  -2.7878931  52.7967093
  58.8398565  -2.4300451  53.8032798  65.4503315  14.9072436  72.2071166
  65.1711949  15.7723370  71.8568901  65.9204035  15.1825377  73.0381795
  58.1860621   3.8827652  75.0586948  57.6462392   4.3910440  74.4444790
  57.9209346   4.2667802  75.9391904  61.6971000  25.7938666  68.9561924
  62.0159387  25.0407294  68.4096925  61.1083396  26.2362269  68.3642547
  60.3750847  13.9318515  72.5715206  61.0922595  14.1774012  73.2815841
  59.5864546  14.2545560  73.1148346  72.2590317  10.2349530  56.8376489
  72.6342785  10.0808669  55.9543090  72.0727221  11.1735628  56.8039468
  55.4168933  13.0171622  69.5489472  54.7369981  12.2901617  69.7248347
  55.5015774  13.3307038  70.4874461  81.3855409  23.6433315  59.8766257
  81.3771271  23.9477418  58.9429716  82.2591621  23.1385008  59.8910506
  55.7315682  18.9206605  61.7602689  54.9217795  18.4621743  62.0847025
  56.1709466  18.1982227  61.2727876  64.6050335  21.1584307  57.7022408
  64.0570914  21.2819298  58.4763076  64.9402224  22.0075152  57.4989151
  64.0224739  11.4330449  61.8564806  63.3164273  10.8904271  62.2485013
  63.7670971  12.2715201  62.2397679  59.3493956   9.2522660  71.0319246
  59.3950026  10.2342862  71.2261398  58.7734851   9.0095524  71.8113791
  52.3260235  13.7359301  70.0722844  52.7296885  12.9936147  70.5958113
  52.9299205  14.4545468  70.2866998  61.9141873  15.9837523  60.2150019
  62.7111874  15.9655708  60.8430988  62.2662093  16.8254049  59.7549902
  68.8989955   6.2770069  39.3998701  68.8632782   5.3214235  39.5579530
  67.9464531   6.2946070  38.9624264  64.0385604  12.4248855  55.8043868
  63.5655742  11.5250993  55.5663794  63.7403656  12.3426666  56.7722392
  74.2421122  21.2618133  54.2599581  74.2679270  22.1660712  54.6015526
  75.1905380  20.9543036  54.4790208  63.4381627  23.0641810  55.3891651
  63.3433075  22.9597614  54.4337793  64.3390817  23.3687926  55.5334699
  59.8656443  17.2812953  54.6903391  59.0433657  17.5320298  55.1479203
  60.4032109  16.9882661  55.4697281  45.8031477   8.3412138  61.4708268
  46.5073386   8.8659857  61.0789363  46.3074996   7.7287842  62.0819053
  67.4617143   0.3063846  48.8461658  66.6991549  -0.1195391  49.2248612
  68.1145522  -0.3782286  48.6972062  50.3685890   4.2216528  67.5427977
  51.1970027   3.9852918  67.0418886  49.8171305   4.3921217  66.7474144
  64.0427812  21.4606325  67.8978409  64.7086496  20.7317290  68.1006313
  64.6057461  22.1694543  67.6525909  52.4958708  16.5035576  69.6965243
  51.8099648  16.2576578  68.9903748  52.6593174  17.4360454  69.4469289
  48.6756059   9.6396924  74.8650074  49.4824167  10.1009373  74.6456460
  48.0241286  10.0473541  74.2037849  64.9808582  13.9314230  69.6510582
  65.0856058  14.2928094  70.5209398  64.4595241  14.6545959  69.2036840
  67.7294864   9.7473307  55.5105194  67.8204177  10.0477339  56.4174671
  67.6974754  10.5767148  55.1082098  63.8226494  17.4485008  54.2294591
  63.9091488  16.5557853  54.5911859  64.4727589  17.4046690  53.5314763
  67.7540208  37.5085274  60.5578295  67.5320488  38.4417862  60.4503359
  68.0972966  37.2369433  59.6947400  65.4867374  14.6626962  58.6188143
  65.0760612  13.7722663  58.4786663  66.4295102  14.4286718  58.7009799
  68.2338848  32.4736272  68.5293467  67.8298410  32.7332898  69.4378773
  69.0262723  33.0424176  68.5618041  74.2247029  26.3928010  60.8570408
  73.9540880  25.5868651  60.4508281  75.0199085  26.0921306  61.3406678
  75.6860125   8.4361386  55.4303865  74.8063919   8.0458320  55.6137251
  75.5102514   8.6449669  54.4788028  53.2895538   2.6366420  72.9636433
  53.6728701   1.7044194  73.1680194  54.0770444   3.0059584  72.5255342
  56.1432408  23.7982555  72.5439745  55.8753638  24.1603244  73.4084024
  55.3000070  23.7107488  72.0996920  76.5785879  19.1310555  73.4530034
  75.9782487  18.7709546  74.0399849  76.1699340  19.9766001  73.1710394
  78.9626240  20.8953460  60.3422687  79.2066857  21.7520171  60.7351694
  77.9672609  20.8940416  60.5116537  75.8589702  33.4891177  77.5598535
  76.3054940  33.0830526  78.3575261  74.9194869  33.1973074  77.7605745
  74.4113657  27.9556474  53.9038579  73.5745690  27.7683719  54.3463032
  74.9925034  28.1986473  54.6905320  83.6326428  32.2240591  58.6125625
  82.7272569  32.5748687  58.5059131  83.6278986  32.0145935  59.5612745
  61.9966821  29.6567191  65.6828750  61.8308969  30.4296595  65.0423554
  62.5354720  29.1150872  65.0503058  70.7748917  23.2672279  70.7883308
  69.8280898  23.5969408  70.5471316  70.6772936  23.2637503  71.7823787
  63.0202378  24.6929474  72.6628190  62.7082349  25.5654754  72.2538346
  62.8020073  24.1155640  71.8886807  68.6966108  28.8566815  57.2305766
  68.7063430  28.1590510  56.5958703  69.2121645  28.6116411  58.0035598
  87.1197760  30.9908028  60.9778734  87.8536884  30.3517802  60.9880459
  87.5256203  31.7858413  61.2670358  75.0043159  21.2690536  72.4643766
  74.8247127  21.8990653  71.7175225  75.0213293  21.9206722  73.2082400
  73.2886735  35.3751963  54.5410573  73.2444878  35.8589532  53.6902951
  72.3648888  35.0759944  54.6875571  87.1614882  18.9459860  57.0879932
  87.2154692  18.0175092  57.2185045  86.5062457  19.0911901  56.3966528
  82.1403127   5.8888870  60.8456628  81.7395700   6.4016381  61.6228014
  83.0862664   5.8864293  61.2067905  67.2378957  29.2834768  69.5431633
  67.0385385  29.4272599  68.5575133  67.0794669  30.1976156  69.8371298
  76.7965565  30.3721845  64.8712262  77.1557987  31.0242933  64.2395907
  77.2033536  30.7419884  65.7056320  66.3136270  25.8610837  58.3109650
  66.0799959  26.6156339  57.7386514  65.9860702  26.0514379  59.1487395
  58.4470659  30.4944427  69.3343246  59.3568760  30.5020452  69.0335612
  58.1471961  29.6410144  68.9696755  76.9656507  37.9227822  65.0770277
  76.3857792  37.3856594  65.6891801  76.3843542  38.7197040  65.0214782
  72.0253983  17.8815883  75.5010359  72.0432896  17.7034376  74.5487233
  71.7803907  16.9611795  75.7865138  76.2392087  31.3820375  67.3685148
  76.3813439  31.3700763  68.3430596  75.3928486  30.8204785  67.3695494
  76.6413920  21.0038694  76.0077115  76.5070857  21.6020833  75.2171981
  75.7616300  21.1262568  76.4589609  85.1123055  25.5117662  64.3532283
  85.2701945  25.1374916  63.4582269  84.3559501  26.1012927  64.0660737
  64.2519199  33.5297905  71.8392568  63.5875455  32.8301259  71.6129381
  63.7760712  34.3545086  71.4869512  78.4107241  28.9764397  57.4382867
  78.4026272  28.1046496  57.7120798  79.3850788  29.1184953  57.2272308
  79.6020333  29.0283309  62.2240179  79.7951539  28.0853957  61.9352126
  78.6254343  28.9922267  62.3514954  65.1041955  31.7368214  64.2332947
  65.7276822  31.8394528  65.0016282  65.0515064  32.6858209  63.9483492
  72.1073414  32.1150779  67.0662806  72.9661202  31.7231051  66.8913735
  72.0778871  32.6692052  66.2008651  64.6394336  32.6882254  67.2263448
  63.7771440  32.9360911  66.7859554  65.1475037  33.5412700  67.0784522
  74.3464570  39.0864546  66.7631363  74.4016259  38.1172483  66.5431243
  73.7242838  38.9932737  67.5340086  70.7584959  33.4229193  68.9549524
  71.3432378  33.0653320  68.2276819  71.4513461  33.4530755  69.7045223
  73.1747195  27.3463770  73.2968952  72.8405956  27.8295462  74.1015197
  72.4675556  27.6718563  72.6206427  73.9422265  29.9248083  67.4878761
  73.8655945  29.2738530  68.2665798  73.2622445  29.5689357  66.9355084
  80.8634135  17.9780299  72.6677789  80.1084871  18.0940447  73.3047930
  80.7616581  18.8209220  72.1243072  75.1661614  33.8499279  65.1731502
  75.9281203  33.8606472  65.8146251  74.8835559  32.9708215  65.2652933
  73.1201439  23.4114321  64.2990686  73.3425489  23.8949040  65.1671565
  74.0008079  23.3356624  63.9366298  68.0332478  28.1421659  63.9417404
  67.1374675  28.4702433  63.6005904  68.5869954  28.5950881  63.3201027
  66.0435854  29.8585362  55.0661787  66.5423387  29.0925697  55.3909925
  66.6016481  30.0993175  54.2962350  78.4220384  22.7290463  53.4304496
  78.2374224  22.3667466  54.2947502  78.0148357  22.0287133  52.8568397
  54.7829645  35.8868403  67.5725944  55.2518939  36.4463469  68.1988435
  55.4955620  35.5319414  67.0352419  70.0469201  24.1614690  57.6311122
  70.7712718  24.7817700  57.5509987  69.9809527  24.0812768  58.5990652
  69.2163674  13.7162437  66.4178918  69.3583457  12.9690802  65.7844815
  68.3041062  13.5112136  66.7382671  80.9841871  25.2140161  52.0129112
  80.1061518  25.6232939  51.9278682  81.4995028  25.5753341  51.3157959
  77.1280207  25.4045821  54.2114152  76.7566792  26.0159102  53.5936948
  77.5443319  24.7625123  53.5665487  76.3210547  29.9505650  72.6599908
  77.2574154  30.2592201  72.8991322  76.2011119  29.2879232  73.3297505
  72.6295976  23.1396158  69.0527910  72.1968038  22.2969305  68.9686657
  72.0332199  23.5335831  69.7321739  72.5152803  20.1284681  49.6906230
  72.8615134  19.3055720  49.2922677  71.6833444  19.8048236  50.0876803
  69.0955140  38.4520399  65.8834731  68.5872035  39.1083242  66.4664835
  69.7278294  39.0037175  65.4597975  79.3184241  25.0846679  65.6382568
  78.9258642  24.7309692  66.4368011  78.7486702  25.8184058  65.4220412
  66.0350490  34.3346497  63.9516946  65.8755230  34.7511829  64.8359497
  65.6457586  34.9898683  63.3709112  69.9189991  23.4851259  60.3362310
  70.7299865  23.6874155  60.9320057  70.2254833  22.6743976  59.9048238
  82.4790217  26.3256224  68.1403443  82.6687314  26.2091683  67.2299934
  81.5620963  26.6389831  68.1312533  72.5756657  30.6202100  70.7106702
  71.8026465  30.2833425  70.2029397  73.2959691  29.9857437  70.4526454
  73.7302437  30.3673977  56.7318549  73.4267357  31.1304610  57.2171067
  74.2398695  29.8344065  57.3906563  76.2581694  11.7142110  61.3626223
  76.8583331  11.4121009  60.6231926  76.5107149  10.9928182  61.9861115
  63.5591067  29.1820654  70.2602948  64.0363657  29.9842413  70.6659137
  63.9515828  29.2850336  69.3518219  79.5269749  31.7459817  65.5012486
  79.1555881  31.9906107  64.6206367  79.8681514  30.8686933  65.1759550
  73.3833289  38.3625221  54.8921435  73.0659460  38.0716927  54.0440637
  72.5036822  38.5511841  55.3309538  76.3470517  27.0142550  67.3972747
  76.4943527  26.6484779  68.3081606  75.4619688  27.4100919  67.5519292
  70.9533886  26.9555822  71.1337284  70.2841050  26.4783903  71.7021800
  70.5075089  26.9380451  70.2350648  77.9898838  34.2450725  54.2279420
  78.8364491  34.4295822  53.8044046  77.6462997  35.2006021  54.3511927
  64.6116220  42.4820091  70.9615470  65.5884319  42.2411459  70.8176261
  64.7571957  42.8125244  71.8910031  68.5519438  31.6233093  55.9673163
  68.5355221  30.7509423  56.5067168  69.4226065  31.4532330  55.4958161
  52.5605770  25.7318155  66.6812347  52.2731771  26.3947663  67.3287141
  53.1257930  26.1570589  66.0706814  65.3492451  25.8612969  75.6662121
  64.8891517  25.0767175  75.3002535  66.2734222  25.6337458  75.6627832
  77.1946868  34.0294718  67.0449506  76.8126114  33.0779341  67.1718719
  77.5813955  34.1131511  67.9629754  79.2227759  35.8618853  61.5970157
  78.9454076  35.6020433  60.6851940  79.9434190  35.1759200  61.7543199
  74.7108264  45.8942059  66.3736226  73.7420072  46.0336729  66.5752912
  74.8984253  45.2066434  67.0732052  75.3652021  33.3344091  54.8508195
  74.6913495  34.0823795  54.8340475  76.2129668  33.8550489  54.9582119
  80.5703626  26.2153570  77.4405841  80.8923095  25.8200602  76.5956814
  81.3590062  26.6796744  77.6869519  74.2636739  31.1762759  64.7770940
  73.9698879  30.3720662  65.2612940  75.2229925  30.9595252  64.6860231
  77.5501739  34.2669877  69.8397666  78.3255854  34.7999291  70.0118604
  77.1873021  34.2558909  70.7641020  78.7495023  35.4714635  65.2759420
  79.5993585  34.9885895  65.4119318  78.2111691  35.0133392  65.9526231
  87.6279672  33.0378321  68.4150261  87.1894540  32.3512565  67.8130467
  88.0734469  32.4473036  69.0358767  83.1581881  39.0303013  57.4517270
  82.2750471  38.6772981  57.5243698  83.0302013  39.9334003  57.1578191
  67.1431435  26.8391639  72.9236625  66.8749633  26.9946454  71.9748159
  66.8090054  27.7045780  73.2681911  76.2116467  35.1699158  63.1634382
  75.7040104  34.6929260  63.8399475  75.6340506  35.0013793  62.3940733
  64.0082388  27.9088021  64.5277088  64.6538456  28.4008124  63.9496817
  63.9340148  27.1225577  63.8148393  74.5355253  31.8284221  72.1444478
  73.7794586  31.3262854  71.7781052  75.0662405  31.1059137  72.5818491
  73.0404976  27.1851335  76.5748590  73.6360778  27.3745486  77.3232874
  72.2763712  27.7633323  76.7509210  81.7211474  30.3127958  68.4992692
  82.2263495  30.7590578  67.8299211  80.8105328  30.7035756  68.2718930
  61.2220822  21.8093164  56.4190109  61.8975672  22.5022287  56.2984768
  61.6865910  21.0254281  56.1175627  85.8515111  30.1326215  69.4933139
  86.8640341  30.2591005  69.5790755  85.9239496  29.5418817  68.6837706
  63.5475236  18.8648133  62.9895695  63.7594671  19.0012918  63.9109017
  62.5635320  19.0052947  63.0480645  77.8879854  24.4908335  60.6716600
  78.2022272  25.2428139  60.0309850  77.5233528  25.1636727  61.3368455
  80.9861653  18.8460361  61.4076076  81.0179788  19.3107468  62.2833986
  80.1761270  19.2649224  61.0477341  77.0475328  29.5708684  62.1873598
  76.8926347  30.4529113  61.7535591  76.8344257  29.8858659  63.1214649
  75.5402346  12.4488390  70.0612746  75.3095905  12.6337663  70.9950916
  74.8946747  11.7809394  69.8275578  69.5130144  30.0467323  78.7596910
  69.4609220  29.4288734  79.5987587  68.8484057  29.5651831  78.1998844
  68.6021646  23.7362067  55.2286794  69.1181094  23.7303954  56.0353326
  69.0875790  24.4286494  54.7151714  72.7255824  28.1776383  62.0784796
  73.2094336  27.5312045  61.5400806  72.3323585  27.6026139  62.7761757
  64.6070236  37.7714111  78.5965717  64.8397491  37.2396801  77.8283622
  64.1597092  38.5510836  78.1871870  77.4483984  27.0802849  65.0556083
  77.6019438  28.0357745  65.0996467  77.0843456  26.9915114  66.0375978
  67.8325720  31.5232636  65.8279890  67.7018149  31.6518462  66.7342057
  68.7006810  31.7813120  65.6019988  68.5113331  37.6664361  70.5071324
  69.2722797  38.0024725  71.0028964  68.9794783  37.0415152  69.9047754
  61.4563174  32.8355057  62.2130773  61.7759964  33.3874743  61.4638981
  60.9072294  32.1496956  61.7364918  63.1945532  35.3652077  64.0260942
  63.5817898  36.2453275  64.2537075  63.5471819  35.1620612  63.1808527
  58.2642913  26.4464123  58.7732202  57.8337498  25.9259963  58.0213934
  57.9058542  25.9104977  59.5659643  68.0291233  27.6588409  54.6978270
  67.4741868  27.3556859  53.9155873  68.7847959  27.0276797  54.5721943
  74.9628772  29.6676723  76.7167373  75.7393055  29.5191793  76.1900030
  75.0203762  29.0830447  77.4743353  73.9143702  31.1628671  53.5100760
  74.0156456  30.6092028  54.3150325  74.5276795  31.8907052  53.7038724
  86.7241777  23.3303029  59.1328257  87.0783571  22.3957752  59.0554172
  86.9351190  23.4026745  60.1201615  69.1907928  10.6206231  43.2838635
  69.5641739   9.8284709  43.7925973  68.7833347  10.1755255  42.5440676
  59.3220163  19.2830333  60.7706904  58.5835114  18.7402454  60.5047560
  59.8699561  19.1732279  59.9802001  81.6024300  18.7528972  68.2646721
  82.4422256  19.1901160  68.2942435  81.1235585  19.1125275  69.0774876
  77.0370659  20.7973995  54.7407555  77.5470547  20.0898378  54.3988958
  77.0661536  20.7000956  55.6959283  71.3680999  13.6683686  46.0336914
  70.7174597  13.9316425  45.3461595  72.1508359  14.1436016  45.7916037
  55.7985710  34.9262221  73.1101318  55.7706586  35.8980677  73.0220990
  55.8936815  34.7775704  74.0547795  60.8718759  30.8737130  68.0938914
  61.1890475  30.2253191  67.4743861  60.3034653  31.3370939  67.4176463
  71.2167200  31.6956595  73.4297601  71.9444593  32.2687692  73.7055904
  71.0588946  32.0139291  72.5285357  78.1509311  27.3348737  77.2583117
  79.0340932  26.9060556  77.2635580  77.6490811  26.7803110  77.8692235
  81.6674738  18.4093413  56.3190667  80.7690931  18.8290397  56.2879500
  81.9464475  18.6405478  57.2217967  64.4042416  45.9181226  72.4528321
  63.9257116  46.6483068  71.8768642  64.0630400  46.3229380  73.3180768
  77.5776773  22.7402494  40.3652102  78.0700746  22.3852550  39.6086865
  78.1997234  23.2625590  40.8417003  86.0576428  34.9085143  56.6621540
  85.2629060  35.1308416  57.2836125  86.5600255  35.7547414  56.8371450
  75.6487718  40.5365827  65.0457598  75.0127614  40.1783165  65.6874813
  75.0941200  41.3250666  64.7713464  79.3309038  45.8941253  57.0682573
  78.9181653  46.5039351  57.7335956  78.6270073  45.2010784  57.0584185
  71.3160494  20.0948120  79.3877275  70.3833942  20.4063647  79.5120065
  71.8043801  20.7244354  79.9187612  74.3795627  24.1058488  54.7204502
  74.4864083  24.6269560  53.8698236  74.7722167  24.7640498  55.3620348
  65.5209739  45.9733466  61.9843152  66.2794762  46.2538939  61.3818147
  65.0062527  46.7663703  62.0699455  82.1235145  44.8397420  75.4588274
  82.1451324  44.7493699  74.4539318  83.0611635  44.7395161  75.6659404
  74.4875565  42.6455173  63.7099066  75.1185890  42.3146652  63.0588141
  74.6381218  43.5995113  63.6202086  78.8528446  41.3610630  60.3764800
  78.4385621  40.7076932  59.7535420  79.4224942  41.8056649  59.7458155
  80.7185623  30.8101660  59.8458091  80.0753289  30.5533092  60.5228931
  81.5168169  30.8095205  60.3400861  75.5697440  42.7555335  54.5405622
  75.4490355  42.3234103  53.7071634  76.5826735  42.6377851  54.6762944
  76.2454872  38.3826059  70.2252410  77.0795748  37.9725368  69.8478729
  76.6190287  38.5414847  71.1342267  75.7746932  39.4697549  55.2461562
  75.0888469  38.7628930  55.0247536  76.3080440  39.3812961  54.4230063
  82.8971523  31.4506550  66.1546899  83.8073004  31.1751813  66.1194915
  82.5018090  31.0057685  65.4228942  87.0119450  37.9421972  67.0805416
  87.1186050  37.4512763  66.2587487  86.4592975  37.3582846  67.6249404
  82.1289844  38.1537216  61.7128265  81.5523685  38.8759859  61.9566838
  82.3748208  37.8234903  62.6080480  74.9780034  31.0460124  44.8605832
  73.9671627  30.9575697  44.7084606  75.0063286  30.2211281  45.4287877
  82.7366560  44.4547982  72.8209775  82.3801790  44.1365334  71.9859765
  83.6961097  44.4403607  72.6111449  69.0261150  45.8804305  86.8890116
  69.8324291  45.4503047  86.5167992  69.3175886  46.0139714  87.8145802
  85.4406761  44.2168864  72.4025368  85.8204616  44.2508293  73.3190401
  85.5340131  43.2874379  72.1712183  80.6733755  46.3277208  69.2286925
  81.5828385  46.0757846  68.9837282  80.3515290  46.7354957  68.4248421
  74.4026738  34.5621913  61.2973133  74.1674122  35.4737226  60.8370703
  74.4507957  34.0450638  60.4577222  72.2154733  34.0799847  65.2669686
  72.0216967  35.0248450  65.4716585  73.1594108  34.1527692  64.9254250
  80.6377202  49.1042609  51.4178373  81.3853812  49.3739939  50.8081785
  81.1362186  49.4027573  52.2379265  75.4737833  36.2423586  72.4595404
  75.4184870  35.8954225  73.4223451  76.2619274  36.8158242  72.5412916
  81.7141967  46.7039937  56.4366978  81.8372801  47.3589866  57.1400179
  80.7748260  46.4570831  56.6141884  86.0347529  36.6812947  78.6769167
  85.0544729  36.6745108  78.5236586  86.0514438  37.1074996  79.5921517
  76.1376624  28.8285402  55.8602420  76.8850291  28.6595210  56.5378553
  76.7986652  29.1115514  55.1386380  76.6845326  38.1553803  61.6968285
  76.6776837  37.7393998  60.8256426  75.9948855  38.8619355  61.5654878
  88.1238052  30.8848270  55.8451277  88.3024589  31.1246020  56.8132312
  87.1822982  31.2358998  55.8074825  73.6550171  50.6335275  81.6230435
  73.1896062  50.7993637  80.7967299  74.5607332  51.0136536  81.3883715
  80.1426096  49.2729605  61.5151826  80.2738984  49.9517841  60.8040819
  79.6893258  49.8281688  62.1876317  76.1292936  53.1214505  53.3982661
  76.0274019  54.0070272  53.8964677  75.5277785  53.3411475  52.6427934
  78.1922485  36.4946113  81.6664586  77.6429761  36.9424452  82.3370070
  78.0880394  37.0532840  80.9257898  68.1621777   7.1390316  54.0221956
  68.0053100   7.9572723  54.5851864  68.9192349   6.7399015  54.5935711
  58.2038294   9.8703783  56.5938875  59.0224892  10.2948109  56.9213922
  58.2622200   9.7263047  55.7090656  68.5633681   7.0984990  51.3212980
  69.5249929   7.0912610  51.5547942  68.1912284   6.7969741  52.1704007
  86.1132860  20.3066481  44.7784029  86.3750171  19.6036148  45.4238937
  87.0066158  20.6508984  44.5792369  81.3720945  19.7880081  32.3837005
  81.7288700  19.0792900  32.9256477  82.1711261  20.0231340  31.8711044
  92.9938796  27.0748634  46.5157955  92.9534760  27.1662455  47.4958501
  92.5004636  27.8835619  46.2433248  65.5178187   8.5963190  50.2429278
  66.3039069   9.1556589  50.1926540  65.3589537   8.6270431  51.2262364
  77.1599778  17.8374962  55.3492012  76.4027441  17.8166143  54.7423675
  76.6895933  17.6383377  56.2264476  66.3817849  12.7098309  54.4203922
  66.8215229  13.2141459  55.1343871  65.5190143  12.4765999  54.8750193
  74.8454783   7.2080143  61.1709965  74.6029123   7.5180851  60.2494679
  74.0043003   6.7070117  61.3281519  80.2418010  10.9048433  50.6178328
  80.7012582  10.1924170  50.2266449  79.9721193  11.4460668  49.8754081
  78.8177408  22.9962259  56.3979453  79.4503619  22.5889058  56.9438861
  79.3677315  23.4496291  55.7338928  79.3830681  11.7293056  55.2576883
  78.6268322  11.1635200  55.2719969  79.9903838  11.2378077  54.6282930
  53.7903710  18.5550756  53.0023409  53.6975291  18.2733652  53.9043032
  53.8732365  19.5371861  53.1693104  73.6186180  11.2584785  61.0585937
  73.9731227  10.9818940  60.1786886  74.4458656  11.5758557  61.4830457
  76.1850261  17.9809988  57.9441023  76.6746068  18.8338715  57.8168675
  76.6330910  17.5852898  58.6758150  79.0891430  15.7473148  49.9984142
  78.8906510  15.5919051  50.9003271  78.7155165  14.8652976  49.6188040
  70.3993164  15.4909805  51.6963934  71.2379243  15.9363850  51.8784581
  70.6090988  15.1272215  50.8238439  83.1582764  25.8577591  45.7660111
  83.7374483  26.5127373  46.1394252  83.0566394  25.2410320  46.5224790
  71.8159030  28.4231240  56.0437776  70.9891145  28.9935800  56.0937900
  72.5093994  29.0823940  56.2394499  82.6189126  15.1204400  59.9545116
  83.1028389  15.4367089  60.8136455  83.3204288  15.4150883  59.3420981
  66.8651123  17.1519363  56.7311173  65.9818153  17.2239335  57.1723375
  67.1754804  18.0466693  56.9597812  75.7460712  19.5683931  46.7486637
  75.6346706  19.5185353  47.7533844  76.4275495  20.2627901  46.7648718
  78.3418997  20.3752075  51.0455934  77.8360844  19.6963231  50.5799601
  79.0729800  19.8910507  51.4112229  70.6991344  12.5827836  54.3127971
  69.8395649  12.9936418  53.9472453  70.9658763  12.0667534  53.4992696
  77.1267543  27.9511405  47.5562373  76.7547993  27.1376966  47.9027129
  77.7647234  27.6328860  46.9250270  83.5859731  16.3653819  56.0561336
  83.5425578  16.5914009  57.0039201  82.6282969  16.1418612  55.9005896
  78.0069310  29.7428216  54.2244347  78.7653897  29.2133759  53.9439139
  78.4157927  30.5857593  54.4211806  72.8505700   9.6679747  54.1520841
  73.6368305  10.0466932  53.7354595  72.3172383   9.4290132  53.3466638
  85.0059966   2.5657157  65.8341183  84.9185822   3.5711054  65.8902526
  84.7983491   2.4749066  64.8739021  88.7254111  31.7428024  52.8608001
  88.6765192  31.5620427  53.8182646  89.4095148  31.1128099  52.5986391
  81.1723534  33.4609190  44.8045535  81.6843775  33.5948854  43.9823196
  81.5556516  32.5624441  45.0650325  77.9967257  19.8179601  40.9659867
  77.4541750  20.6236743  40.8459151  77.4474239  19.1198071  40.9638002
  64.1027104  30.5340250  56.9758544  64.8143064  30.1415470  56.3908513
  63.5653680  30.9031724  56.2257404  77.2727635  25.4442202  56.8308040
  77.5438565  25.2989153  55.8910878  76.3334594  25.7127119  56.7341908
  82.6760651  18.4556780  41.0332242  83.1961248  19.1081142  41.4794536
  81.8578467  19.0159774  40.8931544  89.2902580  19.2492059  50.1524200
  88.6310401  18.9269279  50.8424325  89.4525629  20.1540864  50.4612601
  85.4764405  22.5980592  48.0686626  85.5001429  21.7151811  47.6594728
  85.7138569  23.1393126  47.2700530  76.8953546  12.7267237  57.8217302
  76.9673610  12.2321312  56.9326697  77.6672049  12.2653972  58.2196185
  77.6475279  38.5993143  52.6998695  77.4360492  38.0864523  51.8787806
  78.0602503  39.3840663  52.3074009  76.9218392  15.3911102  52.6550279
  76.1051834  15.3968792  53.1740930  76.5585910  15.7172598  51.7716293
  76.7342652  16.8550556  41.7497253  76.4570016  16.2736531  42.4895535
  77.6455957  16.6506045  41.6556295  83.6459587  22.5328626  41.3636542
  83.2262387  22.5314766  40.4787184  83.1923258  23.2550176  41.7996980
  74.4150514  16.1641873  54.5151903  74.2081870  17.0125143  55.0017534
  74.4021153  15.5449498  55.2461299  70.7797921  27.9965711  59.0670981
  71.6774440  28.4117718  59.0825203  70.6856080  27.7522741  59.9913100
  82.1829031  25.8787118  49.6208987  82.5843109  26.7313751  49.3107039
  82.7959394  25.2453847  49.0921932  76.5492203  26.8968763  70.2250939
  76.1056489  26.2946040  70.8488051  77.4163430  27.0415818  70.6275872
  76.9284985  14.9407244  43.9782564  76.8438980  14.5571642  44.8705146
  77.1097749  14.0941527  43.4881132  68.1800760  10.7579961  57.8193244
  68.6713338  10.3439490  58.5910632  67.8379100  11.5343856  58.3014674
  82.1036980  30.4602276  73.0892509  81.7641132  31.3882998  73.2872778
  82.6549691  30.6916490  72.2977208  59.3057342  37.2010023  67.3236069
  59.6025536  38.1671933  67.1990714  59.9533814  36.8281661  66.6152903
  69.8957410  19.5233566  50.2153390  69.5805578  20.4996722  50.4101707
  69.6722882  19.5481491  49.2752687  83.5969156  31.2183025  47.4874703
  82.9678004  31.7177265  48.1408972  82.9056222  30.8835383  46.8695343
  79.4652805  17.3546323  64.5837072  79.9924543  17.8763149  63.9451396
  79.9343162  16.5198849  64.5802274  17.4847816  33.9046385  81.3184354
  17.2982751  34.1137452  80.3786310  16.5876256  34.1124455  81.6973073
  26.7431633  43.5133736  74.3985761  26.0435158  43.5885768  73.7065934
  26.3592552  44.0978820  75.1161684  37.1556541  46.2006560  84.3146703
  36.7217258  46.9467303  83.9092310  37.3957287  45.7576254  83.4150360
  25.5293138  51.3340650  77.9352552  24.8466134  51.3073109  78.6288258
  25.0050350  51.1078915  77.1405402  14.6230759  30.1852410  85.4661827
  14.8144549  31.1213939  85.6451737  15.5185551  29.8385745  85.7267273
  34.3208302  36.3210874  82.5052566  33.5468883  36.5105428  81.8946779
  33.8087342  36.5219268  83.3317768  34.0341408  35.6852205  91.0457510
  34.2655623  35.7172796  90.0907648  33.1834766  36.1920058  91.0267999
  26.7344561  54.1579397  85.4300737  27.0134778  54.2626757  86.3915623
  27.1613625  53.2285462  85.3467569  43.2759468  46.0984438  95.5290047
  43.4353731  45.4200708  96.2093032  42.9523367  45.4753396  94.7997066
  25.2447308  44.9790710  76.3204988  24.4448732  45.5098896  76.0793835
  25.9587050  45.6056864  76.1161086  10.7714285  47.9979562  77.9471254
  10.7147754  47.2027179  78.4847417  11.2008260  48.5684659  78.6052542
  32.6706128  38.3057701  76.5904567  31.9968893  38.3134296  75.8473922
  33.4628978  38.2674211  76.0680957  23.6606573  47.5635422  88.0325621
  24.2088814  47.7955057  88.8295644  22.8341395  47.2474629  88.3612916
  28.6338870  54.4583025  73.3119577  28.9270645  53.6176108  73.7213212
  27.7124530  54.4403164  73.6713968  17.7796562  47.2289453 104.8542594
  17.8579056  46.2597091 105.0734738  17.0810979  47.1635751 104.1589845
  29.2051164  60.3203139  83.0169431  29.5622417  59.5132898  82.6061306
  28.6135191  59.9906117  83.7108814  29.3898905  36.4891228  94.6084360
  28.9291547  37.2029555  95.0539258  28.8551977  35.7180717  94.8611056
  25.2800420  42.4064323  83.3602229  25.9816367  41.6924729  83.2768883
  25.0627277  42.5811348  82.4715990  40.3685554  51.6112433  80.7219267
  39.5056947  52.0576306  80.8045705  40.2065069  50.8071537  81.2414283
  18.7809695  30.8983375  75.4763346  17.8279826  30.8610631  75.1703542
  18.8729598  31.8984299  75.3719619  28.9143590  52.2489726  82.7883507
  29.7331346  52.7797613  82.9578857  28.7078930  52.5670569  81.8865237
  28.0180341  55.7083943  76.9978592  28.7792060  55.1120532  76.8520977
  27.2505550  55.0463504  77.0297354  31.3876246  51.5851195  86.6772301
  30.5297425  51.1838536  86.3809981  32.0131451  51.1671993  86.0314814
  19.2351403  31.6162065  81.9382223  18.4749543  32.1862445  81.6984681
  19.9612718  32.1841065  81.5570641  37.5639062  51.5241433  75.1211683
  37.5408413  52.4088729  74.6835100  37.1471666  51.0079086  74.3945838
  49.2021347  43.2457112  83.0025019  49.1786281  42.5440368  82.3520252
  50.1771102  43.4063599  83.0137000  27.9660375  44.4877297  81.4662905
  27.2618908  43.8956806  81.1672718  27.7340942  44.6638667  82.3830499
  23.3095599  52.5156661  86.9558846  22.5346912  51.9294352  86.9142700
  23.0892028  53.1134942  87.7415528  25.3063327  49.6299892  72.6944044
  24.6098539  49.0215195  72.4622034  25.3034396  50.3139072  72.0255048
  52.8891870  34.5499021  83.5579088  52.4803502  33.7894113  84.0060406
  52.0881397  34.9587029  83.1583744  34.8543588  52.8769782  84.7105925
  35.3700184  52.6010066  85.4791872  34.7773110  53.8074335  84.8215786
  27.0304772  38.3433636  84.4312496  28.0163290  38.3813531  84.5821606
  26.7291278  38.0840759  85.3020082  26.4119931  52.6651435  92.5975365
  27.3409371  52.8239029  92.8445939  26.0552812  52.4156449  93.5044460
  30.9045100  47.4587971  85.4471216  30.5741757  47.6181529  84.5286653
  31.8459989  47.7320065  85.2382384  33.4876697  44.1776359  85.9247479
  33.6898409  44.9083067  86.5678293  32.4680697  44.2630820  85.9720733
  18.6231946  55.1513829  92.1314192  18.0570750  55.9334242  92.1439318
  18.6743020  54.9142874  91.1959772  35.9421283  55.5292053  87.3546406
  36.7994785  56.0257832  87.5196124  36.3271025  54.6224297  87.4987564
  39.4060907  58.6147787  78.0093956  40.3859755  58.5709383  78.0403120
  39.1840481  58.5643704  78.9471989  20.3100541  45.1840259  71.5799720
  19.3503523  45.0499759  71.7580926  20.4089200  44.8130455  70.6917182
  20.9989933  35.6529585  74.9365655  21.1391866  35.5491439  73.9665916
  21.6201774  36.3409077  75.2053205  26.1064713  53.6868639  90.2863768
  26.0763846  54.5655965  90.7559923  26.3183890  53.1583894  91.1746502
  26.0635872  51.5520241  95.0837694  26.6068930  51.1467587  95.7613280
  25.5887429  52.2408980  95.6159780  35.7960272  47.9581147  79.9042701
  35.8066551  47.0243749  80.1895219  34.8794095  48.0049201  79.5463682
  43.5454750  54.2160972  78.6683591  43.2987263  53.8070020  79.5839139
  42.6530700  53.9733000  78.2373420  35.8505179  48.1367937  82.8911520
  36.7042891  48.4856612  82.5446646  35.3840107  47.9838853  82.0081109
  27.8523325  58.3102544  77.8269674  28.0632040  57.3897905  77.5116378
  26.9426966  58.2101411  78.1231214  36.4145380  52.0992989  82.6901891
  36.0141007  52.6300967  81.9144657  35.7989771  52.4157680  83.3610245
  24.8204283  47.7892731  77.8140426  24.5636272  47.4771722  76.9258169
  24.0074054  48.1201330  78.1756903  33.1052505  40.5137018  85.5641829
  34.0000459  40.5358121  85.0944713  32.5721980  40.9524801  84.8697852
  46.6908859  37.5891271  84.9304443  47.1552767  37.1547914  84.1961151
  47.1060169  38.5058255  84.8808203  42.5059071  35.2369432  74.9306987
  43.0057337  35.6667201  74.1609619  43.1610536  34.5248661  75.1020202
  47.5246165  50.9894848  85.5412576  47.5006718  51.9042375  85.9764247
  48.2451265  50.5976996  86.0755284  32.2627202  12.2846458  67.3145793
  31.3942737  12.7445170  67.4267195  32.7183753  12.9892323  66.7532018
  21.7077326  27.3211878  73.8053387  21.1872062  28.1115353  73.5729962
  21.9704029  27.5022231  74.7418824  26.9127746  44.5204449  78.5444166
  26.4596416  44.5844660  77.7270913  27.8552146  44.4247115  78.3706233
  33.7043918   7.9818968  74.1226641  34.6195042   8.3045971  74.0476479
  33.7396275   7.6380670  75.0353957  25.1883531  15.8404616  72.6077617
  24.3449294  15.8362559  73.1225793  25.2282504  14.9364389  72.2773921
  21.9591153  14.6703601  71.6414368  22.1717735  13.8702199  71.1142099
  21.0656571  14.8608918  71.5161212  33.2972976  14.1643629  66.0017204
  32.9924424  14.9023625  65.3818212  33.4065594  14.6652118  66.8176033
  18.1209241  27.9751158  65.0665760  18.0663604  28.1378097  66.0697968
  19.0415096  28.1356603  64.9159269  37.1768883  25.4713684  72.2866869
  37.0136242  24.4966369  72.3765167  36.3113288  25.7765693  71.9427937
  30.5055740  26.1086738  64.0895406  30.5186274  25.3748179  64.7169720
  30.6658920  25.5907303  63.2849749  25.6825020  30.8609550  68.3149350
  26.0211766  29.9825921  68.0817558  26.6059076  31.2546982  68.5807561
  36.1413563   8.8837280  72.7363548  36.7016612   9.6519781  72.6051769
  36.8165176   8.1422751  72.5965674  36.2125048  14.1453064  83.8889805
  36.4723728  13.7532160  83.0205676  36.6215949  13.3885337  84.4392115
  41.9345146   5.6083730  68.0363715  42.1254254   5.5207083  68.9592828
  42.7193449   6.1945133  67.7717098  25.2248591  16.0992725  84.8064059
  25.3726757  15.8666580  85.7151571  24.3951658  16.6129834  84.8512297
  35.8792191  22.0303797  69.8848196  35.5930748  23.0012851  69.7910809
  35.0088973  21.6186057  70.0457662  38.9290479  25.7461523  67.8701532
  39.7223592  26.3296619  67.6918843  38.8612294  25.9192992  68.8499597
  32.1266805  16.5471755  64.6737484  31.2271484  16.9382878  64.8442405
  32.6430137  17.0909577  65.3156148  20.7293366  21.0642664  67.8937934
  20.5798510  21.3170783  68.7988381  20.9701776  22.0044018  67.5744935
  28.9197204  29.2127461  66.3586645  28.1079025  28.9571670  66.8837312
  28.6585546  30.1292315  66.0759550  27.7745441  26.3249676  64.3876577
  27.5972567  26.6321869  63.4572829  28.7976844  26.3154837  64.2427416
  41.4947328  13.6134128  76.0397460  41.3115208  13.7475429  75.1032226
  42.4572525  13.6744845  76.0792631  26.9485692  10.5877672  58.7034060
  26.3888035  10.6575282  59.4927464  26.3832027  10.9887014  58.0408465
  10.5917585  16.9391526  67.5787127  11.2811475  17.0637324  68.3040027
  11.0752836  16.3441990  66.9850247  30.6241887  24.3309926  72.4533692
  30.0643442  24.3332327  73.1798675  31.3623231  23.7756815  72.7913741
  25.2083627  25.4543373  72.3389902  26.0473529  25.1551845  71.9478232
  25.2018830  25.0710379  73.2300607  30.3247046  21.7007020  66.6243731
  30.3743681  21.2804904  67.5563590  29.4540339  21.3560709  66.3801797
  49.4597867  22.3529596  84.9021997  50.0999619  22.0511869  84.1854982
  49.1788957  21.5177619  85.2862503  32.9106452  27.1691455  84.6474650
  31.9501457  27.3121754  84.7746107  33.2309900  28.0606541  85.0299697
  28.3536400  31.7863744  73.9412447  28.0163781  30.8854974  73.5646241
  27.5579040  32.3116526  73.7368927  30.2136918  38.8111573  75.1499679
  29.2698194  38.6818150  74.9886592  30.2209306  39.8115538  75.1949781
  20.4749525  32.6546480  77.6829437  19.9504404  33.0073891  76.9012225
  21.3393984  32.7871475  77.3310658  24.1787919  26.9548922  89.0411444
  24.5098724  26.2850398  89.7086205  24.1580337  27.7483174  89.6314711
  30.6901027  29.2064264  71.8316364  29.9409617  28.5763201  71.8069852
  31.3934410  28.6463580  71.4540582  41.7376106  27.0943934  81.5245981
  41.3361939  27.3647753  82.3914013  41.6676436  27.9370847  81.0302641
  48.2568250  25.8541601  75.4388053  48.9381114  25.4410583  76.0799752
  48.6989229  26.6797386  75.1811994  41.2986322  28.2409641  75.7396874
  40.4447347  28.6891190  75.9445051  41.7214932  28.6267896  76.6086757
  41.3599841  24.3265719  75.8363723  41.3509690  24.8462877  74.9631762
  40.7706210  24.9207005  76.3401005  28.0923005  31.8203184  68.6462922
  28.4132077  32.3624418  67.9293236  28.9376861  31.6102848  69.1082645
  39.0681322  22.1209344  75.9058789  39.3067945  21.3972489  76.4525189
  39.6922927  22.8034708  76.2450770  35.3603716  24.7136437  69.3585112
  34.5598821  24.5579970  68.8544958  34.9744154  25.4071866  69.9867011
  27.7606143  28.9213627  73.6384368  27.8523404  28.5882454  72.7408656
  28.3974603  28.3533366  74.1360870  30.5550822  50.7703066  80.9852449
  31.0300910  51.5988741  81.0815873  29.6144220  51.1047896  80.9991215
  49.3543802  24.8963509  84.1894896  49.0863123  24.5681914  83.3237262
  49.4596780  24.0004324  84.6319290  48.0543855  39.6785194  84.2127449
  48.2506944  40.5477667  84.5343819  48.7158158  39.5270416  83.5082436
  38.1817788  32.0822536  76.3127352  39.1047195  32.4645206  76.4180134
  37.9576278  32.4481085  75.3908580  46.5133900  39.7395848  77.4487408
  47.1213016  39.0064600  77.7893474  46.3716829  39.3273319  76.5380839
  44.2962405  33.7497663  82.8621672  44.6885700  34.6310860  82.5711308
  44.4567203  33.7695220  83.7943716  51.7193333  22.9944758  66.4811540
  52.1014127  23.7771330  66.9222219  51.8258808  22.3280655  67.2046734
  37.8375104  45.8097170  73.8344068  38.4937287  45.7843445  73.1350130
  37.2424822  45.1165620  73.6620934  26.9443411  32.1507062  92.3073893
  26.9475298  33.0777047  91.9573690  26.2011152  32.2142478  92.9860562
  28.6593280  26.5578496  74.7485699  29.1750180  25.8337441  75.1088516
  27.7385053  26.3028567  75.0920823  46.8825829  43.2116302  78.6149840
  46.4119855  42.5436431  79.2172586  47.3027028  43.6917263  79.3278981
  31.0300279  32.4539270  74.7404983  30.2162954  31.9292837  74.8440151
  30.8550322  33.2235879  75.2955126  42.4085847  32.2199428  91.2360084
  42.9044409  32.7643711  90.5816702  42.6786766  31.3071935  90.9341080
  38.7611880  34.5780708  79.7729092  37.9426832  34.6696310  80.3600080
  38.3102883  34.4968194  78.9314391  29.0964014  44.0803950  73.1697647
  29.5129531  44.5936734  73.8972087  28.2063866  43.9389245  73.5406465
  41.2018562  52.6386721  78.2518927  40.7115665  51.9565357  77.7894389
  41.1352074  52.3152276  79.1834335  33.6189846  39.0702177  71.9987415
  33.2578707  38.2536809  72.3382000  33.2605760  39.0627917  71.0889781
  36.6701962  36.6573066  80.6650334  36.2228545  35.8864792  80.9500006
  36.1544115  36.9731035  79.8863737  34.1164901  20.4841751  72.1640744
  33.4217896  19.7894498  72.2686922  34.8019384  20.1074016  72.8159186
  35.5469543  31.1388684  81.7742452  35.3231976  31.4050257  80.8659823
  34.9501709  30.4006713  81.8684689  52.0845026  16.0119577  75.6876091
  51.1487260  15.8463425  75.8552591  52.1000385  16.9921361  76.0085476
  39.1303398  25.8108737  76.6845565  38.4319606  25.3904525  76.1866919
  38.7263739  26.3754951  77.3238577  38.9138692  23.1261860  73.5464349
  38.7925493  22.6770193  74.4467479  37.9601023  23.1041082  73.2278823
  34.9374233  31.8747728  70.7998120  35.7945342  32.2454675  70.4757363
  34.6773742  32.5659829  71.4081183  29.2754296  15.1094859  63.2633085
  29.0253825  15.6995487  62.4873198  29.7038207  15.8145699  63.8031154
  36.2504638  14.0320803  70.3206132  36.5321568  13.3775609  71.0147186
  36.4114500  13.4124390  69.5487249  52.3085727  22.3422741  74.1896029
  52.7557708  23.2227720  73.8080413  52.5072354  22.6033497  75.1669709
  46.4143213  28.1488296  78.0879289  47.3748280  27.9516606  78.1172668
  46.4155085  29.0927544  78.3673278  31.9172008  37.0283743  73.4688962
  31.2110033  37.5220747  73.9694177  31.5987080  36.1274264  73.5303033
  48.8877945  37.1325442  86.7554185  48.8401073  36.1665447  87.0648393
  47.9509094  37.3631028  86.6652190  39.6939493  16.1948613  77.2141056
  40.1559855  15.8372511  76.4202532  39.8712807  17.1339151  77.1252650
  21.0553061  28.7478270  84.3093794  21.6507072  28.4710086  84.9573619
  20.6684809  29.5985171  84.5786383  28.4485231  21.9873078  76.0682147
  27.5799118  21.8696331  76.5284242  28.8734358  21.1889444  76.4064808
  30.3163685  31.3595559  70.2703328  30.8472752  32.1292405  70.5326650
  30.4025406  30.7672849  71.0206829  37.6057904  44.8877556  81.9399747
  36.8224565  44.9858784  81.4261668  38.1522468  44.2315070  81.5922321
  49.7249471  31.8762476  81.4819371  48.8830721  31.2956311  81.4353430
  49.3984625  32.6604982  81.9613085  39.4247536  37.7027621  79.3942367
  39.0389042  38.5585165  79.6398303  38.9886641  37.0806309  80.0348660
  38.5800890  29.5500168  76.4940167  38.7084830  30.4902931  76.6629978
  38.3564941  29.5161648  75.5894270  32.1154972  26.6650223  72.0965633
  31.4662898  25.9250156  72.1921227  32.2017757  26.8870176  73.0625614
  40.8862633  32.1148209  86.3277000  40.2461331  32.5597924  85.7179037
  40.3890398  31.3462888  86.6077224  38.1537936  22.9378630  79.3816275
  38.0108313  23.8579052  79.7538829  37.2349826  22.6589266  79.2386183
  32.0596680  31.9617129  78.1799148  31.8305630  31.3270873  77.5278128
  31.8528947  32.7719784  77.6129793  37.2976745  44.1195734  70.5477743
  36.5012323  44.1407134  71.0888172  37.6940480  43.2734947  70.8491289
  35.1535598  24.8874123  82.7434797  34.2953431  25.3588491  82.5595817
  35.3945718  24.5440659  81.8664587  48.7224205  33.8174928  84.6369959
  48.4220616  34.6073714  84.1392007  48.3173857  33.1146159  84.0774075
  32.2522508  37.3104876  81.1685114  32.4117555  38.2108112  81.5196507
  31.3127053  37.4636439  80.7888933  31.3889526  28.0719364  65.7440875
  31.1518309  27.5394208  64.9886928  30.5065002  28.5070495  65.9815436
  49.4836905  28.4129279  82.5382206  49.3777847  27.8647330  83.3430528
  50.4708266  28.4729616  82.4523611  23.5246496  39.3140371  73.1225370
  23.3115142  40.0729975  72.5082361  24.1417003  39.7786208  73.7134059
  29.0668465  36.4355089  86.3919437  28.2359113  36.4270170  86.8724255
  29.6891773  36.0620842  87.0478624  33.5614322  41.5122744  78.4652759
  33.6380446  41.5890295  79.4339035  34.4945691  41.3231616  78.2576289
  35.0679311  26.7364609  75.0818309  34.3517095  26.1609679  74.7274871
  34.6686376  27.6455042  74.8517699  51.1006519  35.9558249  82.2330226
  50.1277527  35.9875067  82.1561837  51.3627852  36.4908767  81.4680567
  39.2136718  32.6664127  82.5497080  39.2474998  32.9884135  81.6051542
  39.5327209  31.7389708  82.4466974  37.1892782  23.5733992  67.3637599
  37.7909454  24.3438552  67.3747125  36.6419838  23.7995738  68.1646818
  42.8434493  32.1558897  81.3001474  42.5350470  31.4508743  81.9208994
  43.3170714  32.7448449  81.8824563  41.7382982  24.2581669  91.7233119
  41.7542379  24.8127185  90.8954701  42.6661705  24.1543694  91.9141522
  51.6829297  39.3288179  77.2533258  52.2661650  38.5756539  77.3597604
  51.4594694  39.1174587  76.2635511  42.1156947  44.5621397  75.3768081
  41.3492821  44.0299085  75.0681858  41.7106934  45.4567236  75.3905023
  39.1860877  37.2366424  76.4534445  39.1899916  37.2636344  77.4513664
  40.0574365  37.5744754  76.2370658  28.7244533  50.4113773  73.5957743
  28.0591964  50.7204150  74.2028037  29.4045837  51.1213938  73.6874546
  40.6812350  33.4812723  76.4778347  41.3239620  33.3189183  77.2087966
  41.2519840  34.0195414  75.8957685  35.4105050  39.8004355  83.9680636
  36.2941546  40.1212331  84.1263537  35.6582667  38.9494271  83.4730117
  22.7524516  41.7563350  72.3556706  22.7485050  42.1918374  71.5523535
  22.7721589  42.5051087  72.9935082  35.6251185  31.3199087  75.6780770
  35.3508052  32.1065015  75.2002085  36.5480894  31.5232832  75.9131704
  28.4674796  27.4863729  71.3218470  28.1780499  26.5831361  71.5681427
  28.7861034  27.3216266  70.3824587  39.1011384  31.4600999  80.0554405
  39.3471682  32.1648803  79.4180362  38.2801675  31.1692333  79.7294987
  28.4623296  17.4432577  77.3469718  28.9910140  17.0246413  78.0970226
  28.8370277  18.3755263  77.4025254  36.7789963  37.7565624  83.0510276
  36.4675310  36.8948710  83.4668273  36.9560241  37.3853231  82.1518360
  39.9690362  34.4590027  84.2746229  39.7675462  33.7704776  83.6040818
  40.6220790  35.0101639  83.7669737  40.9269135  39.8428565  76.6984116
  40.7439858  40.7804477  76.3353965  40.8808047  40.0656903  77.6489444
  21.2949274  30.6533481  79.1034003  20.8633515  31.2900261  78.4998040
  20.7363400  30.7886255  79.8896597  37.0491918  15.7435306  68.3337611
  36.7222946  14.8584623  68.0384079  36.7726898  15.7440261  69.2990198
  39.2489526  14.3064987  81.8470244  39.3552588  14.5873372  80.9423277
  39.2241138  13.3149346  81.7108166  41.2457718  25.5738248  79.1166088
  41.6421124  26.1820117  79.8015090  41.9417368  25.6486883  78.4046819
  35.2935709  22.3759544  81.4463147  35.6640668  22.1272506  80.6050366
  34.3549814  22.4139688  81.3063850  42.7593766  19.2249438  84.2524903
  42.8245759  20.0554079  83.7200847  41.7895392  19.0926579  84.2135921
  43.6639646  33.9422077  77.4805630  44.4713492  33.4352772  77.2062213
  43.9919609  34.8565093  77.4262669  43.1204442  38.2764868  77.2298004
  42.8560085  37.9441614  78.0825580  42.2765562  38.6439962  76.8364257
  33.6919555  49.6326179  75.8888932  33.7804772  50.6407906  76.1103717
  33.3643122  49.7698346  74.9662776  22.9144891  25.7381855  91.4317001
  23.0992325  25.2404045  92.2406385  22.1554435  26.2675405  91.6868127
  27.9107328  38.8246000  95.6464364  28.6426395  39.4357308  95.8006776
  27.4628628  39.2851999  94.9247854  33.4965513  35.0885840  80.0467658
  33.2834578  35.8090844  80.6599413  33.2457112  35.5931691  79.2464909
  43.2459245  38.1379827  83.6032715  43.5042788  38.1414244  84.5858634
  43.9341134  37.5088560  83.2908283  55.3240822  36.8149383  93.5319760
  55.6964443  35.9944367  93.8650905  56.0483679  37.4470190  93.7892337
  31.7855337  36.2177711  78.0202417  31.1249589  36.4840825  78.6774281
  32.1796638  37.0629212  77.7347761  48.7618184  41.3512738  81.1907325
  47.8609536  41.3763132  80.8162138  49.3019658  41.1056946  80.4009624
  44.9000431  32.8668986  75.1567200  44.8545792  33.3445938  74.2795580
  45.3310803  32.0609256  74.8734754  34.0569603  29.3769951  79.1180518
  33.4144096  28.8472381  78.5678317  34.1184424  30.2267770  78.6135342
  22.4684314  24.4673002  75.3309246  21.7151638  24.5099883  74.7675789
  22.4253322  25.2573263  75.8361375  44.0162865  30.0273684  76.5976692
  43.2858533  29.7441082  77.2347290  43.8780061  30.9980975  76.7252864
  45.5495942  29.5600366  82.9981066  45.7234273  28.5974739  83.1744788
  44.6797172  29.4330712  82.5224853  60.3760109  36.5514427  87.3552672
  60.0447920  36.9167583  88.1725424  60.9796809  35.8501728  87.6944134
  30.4064276   9.3530810  78.9707704  30.9447122   8.6183399  78.6139199
  29.5284127   9.2073914  78.5633300  44.5573624  43.6379121  75.4952014
  43.6636355  44.0284038  75.3958741  44.3248725  42.8614977  76.0418225
  48.6806091  27.3378975  85.0241073  47.7861185  27.4603745  84.5829514
  48.8465296  26.4430675  84.6590958  19.0300329  34.6324845  93.6424578
  18.9397603  35.3630149  94.2519476  18.1041161  34.1633564  93.8040526
  49.3675442  25.0142906  70.2618446  48.6215997  24.9301339  69.6353947
  48.7814445  24.9628181  71.1304224  35.6360843  29.1234249  71.8835376
  35.2355460  29.9743212  71.6704479  35.2945658  29.0429231  72.8279570
  30.3794426  25.5545330  58.7909456  30.6697078  25.8117630  57.8726170
  30.0365315  26.4406863  59.0702082  21.8419928  43.6730350  74.6880815
  21.5927597  44.5788674  74.4263725  21.0276257  43.2029604  74.4336074
  41.0416891  28.1020493  71.2267006  40.4888186  27.3010586  71.1936744
  40.3783929  28.8206285  71.4238902  28.9625765  15.4951679  73.1097155
  29.8679811  15.2117452  73.3404166  28.5624296  15.3036506  74.0491266
  25.8826183  31.2190305  72.3862939  25.0417647  31.5440756  72.0224582
  25.6798078  30.2678531  72.4694296  16.3281362  32.3310856  74.9165154
  15.5817431  32.9957629  74.9610624  16.3819737  32.0813181  75.8904237
  40.5551136  24.5355804  72.0963598  40.8546454  25.1731368  72.8207769
  39.8656009  24.0450349  72.5836575  45.4935620  26.5459885  75.7784604
  45.8013588  27.1425082  76.5210192  46.3997690  26.2138176  75.5449565
  41.8709580  29.3330306  78.0692103  41.3909613  28.8482408  78.7625366
  41.7030147  30.2344450  78.3765653  20.9046589  45.9999195  74.0534387
  20.7925831  45.9266003  73.0722068  20.0268148  46.4493122  74.2556140
  58.9569019  29.8452226  83.0341713  59.2169513  29.1860456  82.3812387
  57.9904559  29.6506076  83.1345139  31.9881786  37.3170695  90.7773420
  31.2866946  37.8606050  90.2986584  32.4174398  38.0594838  91.2066191
  40.4802003  18.0243001  69.3891484  41.1058458  17.5486382  69.9382229
  40.0717446  17.2925427  68.8606383  39.5009619  39.9137209  82.2741337
  40.4405744  39.8037444  82.1327115  39.3948574  39.5879179  83.2440275
  34.9285913  37.9363287  75.1071186  34.8870828  37.4778174  74.2463467
  35.6450666  37.4165816  75.5452503  32.8723178  24.7596954  68.1572260
  32.1738481  24.3929582  68.7695177  32.6771655  25.7339939  68.1911664
  60.3396993  48.5714031  84.7662940  60.2016378  47.6428771  85.0756058
  59.4519005  48.7972352  84.4352416  46.3393560  40.5651118  79.8043546
  46.4797099  40.2146483  78.8616500  45.3277705  40.4642442  79.8868583
  40.2099544  47.2012398  85.0038783  40.4029943  47.9998974  84.4623964
  39.2818829  47.3530594  85.1925371  29.7791547  39.9474110  82.8321264
  30.5954023  40.3861637  82.4888012  30.1230594  39.1674207  83.2280749
  40.4995476  47.7739729  80.4768188  40.2373094  47.4745495  79.5716613
  40.5990732  46.9061025  80.9083313  43.8089614  41.2292693  76.7546998
  43.3091605  40.8268340  77.4565196  44.6965862  40.8088022  76.8585043
  50.8478518  48.1367836  66.5621664  51.3537318  48.0556834  67.3980748
  50.7418675  49.1054370  66.4909621  49.8413420  49.5515883  83.7470973
  49.8131123  49.8994756  84.7043915  50.6817425  49.0404147  83.7999344
  49.6480587  51.3206463  81.5749117  49.9927992  52.0622105  82.1034591
  49.6120307  50.6426614  82.2471905  26.0465542  56.0915959  79.6921194
  25.8200080  55.3357889  79.1103755  25.7624550  56.8334369  79.1410233
  34.7857951  59.5151161  74.4181661  35.6860862  59.4305779  73.9441889
  35.1393853  60.0335837  75.2248369  61.9408254  45.7065880  76.7406673
  62.3677402  45.1559517  77.4737895  61.2679781  46.1983553  77.3360935
  49.9603577  38.7514757  82.5107224  49.6962070  37.8486024  82.7707925
  49.4033512  38.8202334  81.6890762  52.7503076  51.3191503  75.1421883
  53.6405903  51.0084651  75.0593069  52.4032289  50.7297010  75.8412767
  59.4544591  57.3425196  75.3385044  60.4254602  57.5678238  75.4026788
  59.3805371  57.3330103  74.3659815  48.1737228  47.1609952  81.7193985
  48.8479922  47.7673575  81.3723240  47.4244067  47.7203344  81.8751389
  45.3534028  49.1970794  75.5006096  44.7208583  48.5641388  76.0227823
  46.1569432  48.8596629  75.8865970  36.8981928  55.4637778  83.2304425
  37.3694588  55.0939068  84.0601391  37.5579592  55.2163239  82.5418949
  39.4211052  50.0501961  86.8583679  40.3127802  50.1480317  86.5203719
  38.8358690  50.3073005  86.1227595  53.8413892  49.9322661  84.3274161
  53.1578055  49.2397819  84.2444739  54.1814007  49.8649528  83.3803494
  41.4485677  45.3233471  81.2399899  41.2587491  45.0179037  82.1760559
  42.4740545  45.3775641  81.3711114  33.8838741  52.1211592  76.8208938
  33.7796262  52.9922817  76.3354237  33.4084221  52.4489620  77.6747303
  39.3483961  49.9991233  72.2097044  39.1447038  50.7409169  71.5980673
  40.2600329  50.2517876  72.4858937  47.5729674  59.6301810  71.2968113
  47.6212440  58.7120131  70.8502006  48.3659806  60.0235674  70.8822515
  40.8875042  44.8736828  83.6830400  40.6836693  44.1194570  84.2307667
  40.6572851  45.6442755  84.3002662  38.8100099  51.0358562  90.1614299
  39.7688190  51.1231414  89.8221445  38.3598003  50.9729657  89.3106997
  53.9410742  40.6032342  78.4242746  53.8098648  40.6730790  79.3724625
  53.1589344  39.9935934  78.1911644  35.2987489  40.6101329  75.5011272
  35.4025450  39.6968196  75.1109039  35.7273515  40.4576512  76.3917412
  47.6759609  28.5194181  71.7559683  47.4883941  27.6628345  71.3453113
  46.9898563  29.0745589  71.2929181  46.3022435  30.2280800  74.8795709
  47.1313792  30.0203210  75.4364658  45.6222133  29.9763434  75.5617440
  53.0858913  43.1882940  68.8250301  52.6786777  42.4054279  68.4071677
  53.5964606  42.7262509  69.5233333  54.5342419  44.8985791  72.3150143
  55.3089624  44.9132138  71.7486849  54.6239011  45.7034126  72.8370928
  49.1885030  59.8089918  88.9231489  49.3616318  59.0274157  88.3668276
  48.9100180  59.3933483  89.7733079  42.6300432  49.2435945  81.6379120
  41.8051576  48.8280964  81.1969950  43.1123474  49.3479008  80.7922629
  64.6925615  50.6863278  77.4731245  65.2364219  50.2016183  76.8648989
  65.0674462  50.4403682  78.3217672  45.3275186  47.7880297  80.6501719
  45.0441275  48.6247764  80.2117386  46.0301876  47.5164863  80.0006076
  47.2148852  33.6162872  78.4620045  46.7161137  34.4544983  78.2848447
  47.6103165  33.4506958  77.5895429  50.6905593  59.9824875  79.8988590
  51.2730873  60.7525348  79.5751451  51.1421393  59.8703721  80.7711120
  54.6587200  57.8037037  77.5734139  54.2678420  58.1918260  76.7987917
  55.5910848  57.7004228  77.2531391  56.9852392  37.9750299  89.9637960
  56.8891752  37.4076565  89.2269439  57.5348686  37.4293081  90.6001025
  37.9573507  53.0754433  79.2618190  37.6209070  52.3570617  78.6729248
  38.0996732  53.7553566  78.6332703  41.0228079  49.6461886  83.9370398
  41.3579091  50.1446978  84.6609080  41.8236270  49.5219204  83.3654779
  46.7692230  54.0394569  75.5067821  47.4827302  54.4527258  75.0818657
  46.2178202  54.7277193  75.9391365  35.7293715  54.7296968  72.0850571
  34.8214162  54.9244052  71.7229730  35.6923288  55.2307003  72.9264249
  64.8690068  46.2608081  81.1374195  64.8204524  46.2505920  82.1435664
  64.2870977  47.0623817  81.0214366  31.2772090  46.7147081  88.5409302
  32.1297202  47.0807003  88.7793387  31.2519321  46.9830072  87.5892742
  27.0907289  48.6023609  86.0967379  27.1704872  48.0556665  86.8474958
  26.5875393  49.4036145  86.4557408  29.5022953  51.5636778  69.1030047
  29.9139332  51.2818577  69.9048006  30.2786269  51.8734565  68.6190214
  46.7055552  30.6660409  78.9892569  47.0655588  30.5715374  79.8954237
  46.2383972  31.5400339  79.0841584  37.8366975  49.6812732  79.1394864
  37.0135891  49.1965374  79.3143967  37.4284116  50.4874913  78.6782543
  58.3594793  46.6948308  82.3755025  58.9651192  47.2834850  81.7808605
  57.9281567  46.1547016  81.7168691  52.3306490  43.5508075  92.2275241
  51.8767661  42.7429453  92.4921875  53.1655045  43.2175636  91.8378938
  35.7478780  43.8659383  90.5875059  34.9848748  43.7531503  91.2190728
  35.5586070  43.1760781  89.9485634  48.7293599  61.7573822  74.3905599
  49.2192479  62.1722119  73.6669076  49.0587415  62.4073627  75.0824146
  42.0364372  49.1605005  77.1096708  42.4520982  49.8936458  76.5522979
  41.1146142  49.6538693  77.2277017  41.9411151  57.4660988  78.5178510
  42.8664798  57.7431774  78.2092831  42.2357458  56.8096302  79.2297508
  36.5033897  56.8119956  78.6830302  36.0108166  57.5400415  78.1896743
  36.6541910  57.2803610  79.5679583  41.8850951  51.1986330  85.9785523
  42.7433747  51.0357504  86.3786303  41.6879720  52.1001746  85.9724757
  31.3481170  49.0681418  78.7755063  31.4224786  49.5917162  79.6251991
  30.3865879  49.2453745  78.6003571  39.4494677  43.9965471  77.8888230
  39.1490717  44.9256961  77.9563403  39.6693863  43.9193237  78.8646511
  41.8537193  50.4747085  72.9910190  42.8770820  50.4723458  73.1139296
  41.7097957  51.0779904  73.8037353  55.7843397  46.8330212  76.3818763
  56.4322501  46.4421575  75.7895873  55.6442244  47.7531749  75.9745751
  58.2873971  53.3450955  73.5915943  58.8833840  52.5399900  73.6690253
  58.3534604  53.5592204  72.6531571  54.9150423  50.8573745  78.3656830
  55.1456116  50.5091787  77.4607336  55.0938393  50.1474947  78.9553871
  57.2048683  43.4772351  81.8411040  57.8700643  43.5761090  82.5163191
  57.7302254  43.3905672  81.0159936  53.4263198  38.5246585  70.2977848
  54.1500611  38.2139979  69.6848851  53.1217166  39.2924639  69.7784248
  58.3012071  37.4385821  74.9066575  58.6142787  37.4068016  75.8649570
  58.8016918  36.7362228  74.5149127  47.5131327  49.0933008  77.6375385
  47.5149854  49.2145610  78.6579443  47.2922302  50.0453484  77.4686270
  35.7325599  69.5641282  83.4591131  36.1835163  69.2974602  82.6404918
  35.5244560  68.7085159  83.8761309  44.2264136  63.5730770  81.1799029
  43.9436955  64.4599395  80.9629716  44.2635219  63.1134813  80.3531295
  35.1780913  56.4871147  81.3307996  35.5191695  57.4395334  81.1965155
  35.4513238  56.3609098  82.2224745  30.0060952  45.1147654  79.9530169
  29.1981985  45.0866439  80.5520783  29.6216590  44.8834777  79.0893083
  36.5410053  36.2469775  76.2168053  37.4983116  36.6167810  76.3489383
  36.5879614  35.6329162  77.0667834  45.2483951  37.5430438  80.1716746
  44.2564913  37.5210634  79.9518789  45.6113302  37.1316773  79.4304824
  39.8191790  43.2786875  80.3915907  40.7196001  43.7102826  80.4859976
  39.6746746  42.8956642  81.2685838  44.5924172  43.9388950  81.2271005
  45.5907949  44.0288137  81.1486135  44.4490602  44.6258367  81.9663104
  37.8039734  42.4530900  74.6757034  37.1072078  42.5644392  73.9611499
  37.2382896  42.4222351  75.4580365  33.6179234  47.7544712  77.8261914
  32.7922480  48.2466732  78.0354207  34.0039586  48.4832114  77.2049615
  52.1715144  41.3414289  80.7586429  52.8586959  40.9092721  81.2862922
  52.2611750  42.2688108  80.9996841  48.5049375  42.3296056  76.6913194
  47.8348802  42.9984343  76.9862545  48.3810038  41.6322640  77.3473286
  51.4632848  46.2125745  82.0365464  51.6334817  46.6733793  81.1837367
  52.0394150  45.3917308  81.7849020  36.8774781  48.0606909  90.0425545
  36.0726627  47.5381545  90.0964923  37.3815276  47.7447136  89.2994354
  60.6993147  47.0755393  92.0637300  59.7517767  47.1829749  91.8968268
  61.1488544  47.8294681  91.6585515  65.9258527  57.0905982  76.2654343
  66.4147521  57.8139086  75.8106053  65.5593914  57.6336202  77.0016302
  38.7849710  54.8674828  85.3417273  38.5532833  55.4400921  86.1180697
  39.5177892  54.3845279  85.7785071  44.0520324  49.4704737  79.1259936
  43.4490786  49.2054825  78.4412335  44.3229531  50.3588706  78.7336556
  49.7854719  24.7532024  77.1740919  50.4359241  24.0325179  77.1878230
  49.7897446  24.9049050  78.1892868  64.0795957  59.4003631  80.5169361
  64.9722314  59.0354370  80.7073053  63.7386062  58.8253854  79.8107447
  54.4552159  53.8294556  73.0702066  55.1370802  53.8159300  73.6747656
  53.6331831  53.7753366  73.6422166  32.8794353  36.4307283  84.9218886
  32.8938334  35.4463265  84.9607408  32.6875998  36.6609945  85.8475045
  58.9164056  57.4961373  72.4716054  59.3087598  56.6809025  72.0386220
  59.2364838  58.1311220  71.7607681  48.1685797  58.7898130  80.2341247
  48.9774118  59.2361036  79.9946150  48.5160528  57.8659592  80.3063409
  25.0909591  52.7452267  82.8988296  25.0423870  53.4961088  83.4937883
  24.1299837  52.3934350  83.0318727  39.8780545  66.6727375  78.1280751
  39.9428041  65.9604062  78.8452968  39.0274875  66.3222847  77.7210010
  35.7780234  41.8681312  88.8816153  34.8254817  41.4946897  88.6676669
  35.9724659  42.1379485  87.9669414  51.4521194  35.4068022  78.7669034
  52.0606911  36.0414990  79.2909688  50.6237271  35.5965509  79.2528666
  64.3309477  53.3434811  78.2146742  63.9749885  53.7656461  77.4158178
  64.1989856  52.3766661  77.9852790  40.3145223  59.3544578  73.3449286
  39.5438821  59.2941767  73.9980905  40.9877674  58.9724032  73.9431955
  45.3073373  42.7887019  89.4452824  45.7596684  42.6409535  88.6024029
  44.4550810  43.1649049  89.1790031  50.4882250  29.0898475  64.4514306
  51.1610833  29.7917534  64.6674729  50.3574869  29.2866949  63.5360559
  43.5276453  53.8019615  71.0112734  43.2424796  52.7944520  70.9703986
  43.9588281  53.8087339  70.1286485  47.3733231  44.5574224  81.1372516
  47.8023365  45.4777064  81.2351947  47.9396565  44.1468415  81.8308337
  54.6508067  43.9560099  85.7269916  55.2175309  43.2042241  85.5053943
  55.3244887  44.6076428  86.0034610  46.9831997  53.6727598  79.6115423
  47.6293953  52.9688674  79.3512848  47.5805604  54.3764922  79.9287763
  40.0010105  54.2128940  75.6553554  39.3449000  53.6006237  75.2093110
  39.5537244  54.2097517  76.5131766  50.6567629  36.7462802  76.3964206
  50.6884226  35.8488761  75.9729188  51.1635926  36.5316033  77.1810704
  62.9123959  38.2496617  73.3286821  62.6951841  39.1264653  73.0007428
  63.7728694  38.2850027  73.6192179  52.6302755  31.8377853  73.2388867
  51.8854661  32.1646501  72.6569240  53.3812720  32.1130259  72.6827954
  45.5055373  56.0162180  87.5888323  45.7747928  56.6846161  86.9072875
  45.6584143  56.5389823  88.4127803  51.5962926  54.1948897  85.3599172
  52.2699210  53.5346767  85.6289934  51.2210044  54.4312252  86.2487920
  36.8936924  52.8217768  86.9284931  36.7310616  51.9768846  87.3111257
  37.8400495  52.7259490  86.7347901  35.4435851  53.7091630  80.8412212
  35.0149416  54.5764836  80.8451265  35.9794978  53.6906690  80.0677553
  32.4435131  52.7597461  79.0357892  32.5033707  52.8344490  80.0509746
  31.9112674  53.6552806  78.9653907  52.1732711  36.7244540  73.6729461
  51.7038704  37.5338401  74.0243562  52.5794532  36.4227865  74.5476406
  50.5773094  44.4139136  73.9941359  51.4747267  44.1318786  74.1720804
  50.7515585  45.3394765  73.7296435  29.4798975  57.6237622  83.4953864
  29.3047250  57.8847025  84.4365025  28.7596825  57.0202416  83.3686614
  58.0885273  40.1534555  74.4804540  58.3107439  39.1737978  74.6411318
  57.4801418  40.3421274  75.2215702  60.4452175  43.6852553  71.8338988
  60.2260492  43.3883931  70.9604245  60.2073329  42.8565815  72.3446856
  38.8119967  46.6685689  78.3132755  38.8573731  46.9930819  77.3850560
  38.2106178  47.3561930  78.6566136  35.3332966  47.8637423  74.7564022
  35.8092879  48.4259829  74.1421452  34.7468378  48.5423961  75.2067201
  39.7979168  50.2710253  77.1590360  39.2369368  50.0557402  77.9511583
  39.1168696  50.3321692  76.4873389  38.7151544  59.0466561  75.4317286
  38.9937268  58.6857066  76.3352318  37.9030737  59.5274707  75.7143179
  46.7886951  45.8383058  85.7341294  45.7974292  46.1469729  85.8813039
  47.2452432  46.5311978  86.1628462  46.6561742  58.9259639  61.3451110
  45.8962874  58.8618300  61.9277916  47.0561365  58.0551199  61.4850419
  53.7557338  57.8355432  71.0992273  53.1512782  57.4439711  71.7421935
  54.5085043  58.1336135  71.7141968  46.6210637  65.9261860  75.3861390
  47.5773616  66.0258267  75.1169509  46.6561224  65.8080286  76.3468969
  55.7040821  53.9965319  68.2547437  55.5538300  54.7776589  68.8541760
  56.5909639  54.2558787  67.8829878  61.1987928  46.8612718  68.3239860
  60.3426959  47.1385347  67.9738409  60.9918063  46.0309735  68.7183955
  65.1689320  68.5840605  84.4598696  64.9787880  69.4751980  84.7927361
  64.9679895  68.7649301  83.4509866  56.0806945  76.5860141  63.8619321
  56.8262204  76.1801386  64.3917108  56.0027480  75.8730923  63.1876308
  54.7425875  58.6922793  68.2922549  55.5205367  58.9497199  68.8168648
  54.1472312  58.3688524  69.0769450  59.0573324  57.1308672  67.9596970
  59.9051539  57.0439350  68.4046765  59.1549097  58.0548593  67.5690326
  43.5141130  68.9912899  56.7345653  44.1128681  69.7695209  56.5190023
  42.6207640  69.4817939  56.6847210  52.0828354  64.7779375  74.0142184
  52.8679709  65.1853954  73.5828259  52.5348040  64.0510320  74.5114499
  57.6722724  71.7377551  78.0559859  57.7728183  71.7351850  77.0642563
  57.4654052  72.6669668  78.2037148  53.9085909  45.6934820  66.8466074
  54.0856609  44.9427003  67.4382942  53.3407228  45.2651222  66.1814121
  49.8669682  63.3810665  76.1469981  50.6421282  62.6927423  76.3214445
  49.6610502  63.5393365  77.1577371  49.8982134  57.0796235  78.5678776
  49.9267297  57.8827195  77.9981088  50.8804612  56.8654830  78.4496529
  41.8573146  52.3808384  74.8394130  42.7650227  52.7607651  74.8399105
  41.3111276  53.2057010  75.0599167  44.6371957  50.6196291  73.2039302
  44.9890606  50.1293614  74.0127973  44.6559574  51.5291074  73.5577942
  54.2668723  64.9729703  66.9272356  54.7166728  64.8374372  66.0927219
  53.3893184  64.5931095  66.6648628  56.7336476  54.5462437  88.6432945
  56.1810578  54.1977094  87.8973282  57.6427072  54.3647030  88.3360152
  56.7862951  49.7828323  86.2103695  55.9583420  50.0908098  85.7670614
  57.3246774  49.6083267  85.3797092  41.5217240  71.5619404  58.8032562
  41.3606722  71.8478855  59.7294922  42.3664945  72.0823389  58.6391044
  52.6029554  63.8162056  60.5251673  51.9534149  63.2305113  60.0761279
  51.9655046  64.1877517  61.2054354  57.8574200  51.2789194  79.0814368
  57.7885366  52.2263001  78.8225628  57.4387107  50.8499240  78.3174574
  49.4592822  45.4113688  77.3598848  49.7547809  44.5518825  77.6221224
  50.2775900  45.8785123  77.1191413  33.0489855  54.5932647  75.6811924
  33.3046403  55.0535036  76.5442035  33.6972055  55.1011500  75.1075396
  59.8229142  65.3657037  77.0440621  60.0476847  64.6748998  76.3656585
  59.1926842  65.8680272  76.5109057  35.3240333  -0.1467743  54.3391434
  34.3184636  -0.2484975  54.3662577  35.4942495  -0.0319713  55.3247359
  28.1344908  -4.2810592  65.2415730  28.8643289  -4.2029056  64.5894190
  28.5858920  -3.8104327  66.0373151  25.7504037  15.6153825  68.1868650
  25.6663049  14.8033776  68.6836179  25.8145302  16.3022316  68.9270968
  21.3721981   0.1077923  75.0468324  21.6198732   0.6857271  74.2596540
  21.9834356   0.5022577  75.6841088  22.7615273  12.0309049  76.7684617
  22.4333016  11.9166364  77.6720079  22.1680732  11.5692049  76.2208950
  26.8653263 -11.6912430  54.9217637  25.9626500 -11.7256749  54.5366730
  27.2241674 -12.4912145  54.4131033  43.5834667  -3.2203291  72.8300087
  43.5235309  -3.8136361  73.6216234  44.4158201  -3.5376459  72.4601349
  10.9686699   2.2083108  58.5721892  10.5395752   2.5488547  59.2886458
  11.5312582   1.4649291  58.9825218  23.8438118  11.0146335  58.9479993
  23.7007035  10.2399996  59.4997777  22.8766219  11.0979272  58.6744465
  29.3993201  12.5863095  64.7783619  29.0698604  13.4989856  64.6376352
  29.9690133  12.4679767  63.9839382  28.0108811   5.4298032  66.2225089
  28.0071201   4.7874614  65.5553678  27.0520526   5.4220207  66.4998784
  22.1134440  21.3781245  51.9065230  21.9585085  21.0935283  50.9628122
  21.7086712  22.2384498  51.8774047  37.9693508  -0.6098374  47.4481075
  37.3409048  -0.0009339  47.9370056  37.7953801  -0.2011349  46.5397030
  18.8157992   6.5088909  66.0269977  18.1684784   5.7722335  65.7872392
  19.3024354   6.0187955  66.7309502  20.6124661   7.3337106  53.9778272
  20.1206800   7.9317991  54.5788731  20.2863504   6.4988405  54.2341807
  20.9991651  21.1538677  58.0708187  21.4277336  21.5957934  57.2974409
  20.0947552  20.9868621  57.7053141  25.5258163  11.3264173  56.0527688
  25.6611748  11.4348963  55.0955173  24.6757287  10.8313432  56.0838559
  50.1713389 -14.3911076  53.4063654  50.8128771 -14.2775521  54.1653904
  50.1566522 -15.3469317  53.2865177  27.8286358   6.4550150  70.7059429
  28.8012993   6.4703396  70.6624708  27.6076822   6.7764187  71.6015941
  33.7069679   1.2880612  72.8086474  34.5019057   1.2134768  73.4144819
  34.1671179   1.4948123  71.9634122  23.2891172   0.8725615  43.5194273
  23.1433973   1.4502769  44.2992878  22.7626900   0.0954662  43.7469783
  22.5686873  12.2044439  70.5044129  22.6547660  11.9018472  69.5413431
  23.5226551  12.0462716  70.7451312  36.7790466   3.0525386  50.0853253
  36.5866803   2.1944505  49.5648959  37.3497121   2.5983962  50.7597007
  21.3793598  -3.4120805  57.8210528  20.6460166  -2.7502308  57.8380343
  22.1569592  -2.8299264  57.8350369  30.4310547  12.4694879  50.5263333
  29.5029280  12.5552699  50.8991755  30.9440670  12.1836326  51.3281485
  32.5868483  -0.5296428  53.8994361  31.8787967  -1.1865711  53.7896487
  32.3654187   0.1043357  53.2384347  41.9086175  -3.7348307  64.1297700
  42.5511503  -3.9259304  64.8641314  42.2389651  -4.3213390  63.4194816
  41.9024814   6.4383505  60.5446727  41.3288465   6.1284979  59.7992114
  41.9521218   5.6479598  61.0693773  40.7332064  10.1004590  60.7001743
  40.0599130   9.6613566  61.2473958  41.4703004   9.5208939  60.7833094
  33.4492398  18.1843367  66.6137213  33.1347262  18.8623818  67.2409196
  33.5309824  17.4120592  67.2828737  25.8074295  13.3246789  69.7977631
  25.8603507  12.5372955  69.2166796  26.5376719  13.2691284  70.3900282
  34.2035432  22.8180566  55.8922891  33.6083125  23.6435823  55.6978272
  34.5524737  22.6963889  55.0104247  34.9450846  22.8696017  61.5437918
  35.4612508  23.7258004  61.3695655  35.6765573  22.2200610  61.4579773
  43.8701392  15.2397580  68.5022995  43.3793528  14.8388690  69.2432388
  43.7248066  16.1855563  68.6665493  30.5899246   5.8465794  69.9881975
  30.4775207   4.9324271  70.2855789  31.4442729   6.0367685  70.4636390
  27.8426836   5.8791868  47.0539218  28.2558384   6.4776633  47.7331057
  27.5293777   5.1331680  47.6097764  39.3615357  13.9825235  59.2815396
  38.9480721  14.1915578  60.1689067  39.4267295  14.8852670  58.9097826
  39.7303143  21.0851285  65.6586246  40.4365482  21.5512278  65.1386164
  40.0803740  20.1918264  65.5997092  41.7634297  11.1375367  56.7607161
  40.9999824  10.5384572  56.6526802  41.6585896  11.3828293  57.7270503
  42.2110495  -3.3079871  56.9710800  42.7738976  -3.0301090  57.6815363
  41.3351616  -2.9763720  57.2097437  35.1778420  12.5737421  62.1813781
  34.7105142  13.0190808  61.4539353  35.4099117  13.4335528  62.6964368
  45.7280834  -1.8222432  47.4686184  45.9261066  -2.6802547  47.8443209
  44.8332974  -1.9075921  47.1837516  38.9588274  14.9705029  65.0048642
  38.6029513  14.2270749  65.4914848  39.8474710  14.6604140  64.7272837
  21.8882300  16.4704663  75.9637889  22.5326923  16.1058905  76.6344440
  22.0608296  17.4086367  76.0635365  38.9965848  -2.2838509  54.6501549
  39.3452005  -1.4464944  54.1486718  38.7870473  -2.7211491  53.7713754
  42.0906347   0.4090207  51.5797564  41.4612950   1.1528433  51.2531165
  42.8152264   0.5029607  50.9563482  23.5601028  18.2944366  62.3859840
  24.4789544  17.9001869  62.2624927  23.7835209  18.7662847  63.2282740
  39.8567068   5.1131121  74.0241830  40.7033874   5.1396318  73.5877806
  40.0596112   5.3967399  74.9434294  27.0500217  16.0313653  56.7984547
  27.7095864  16.1367180  57.5508812  26.7665276  15.1324917  56.9827836
  36.1114028   3.9834150  68.5427041  35.8407389   4.6412068  67.8084599
  36.5961069   3.3769383  67.9180256  17.5811033   6.4729618  70.3786613
  17.8915133   7.2298897  69.9092728  16.9355974   6.9242818  70.9821283
  29.6843974  21.9949858  60.0790998  29.1760494  21.2710395  60.4490725
  30.5791017  21.8370587  60.5001072  34.8490680  19.2914900  64.5031710
  35.4323386  20.0342612  64.8618524  34.5032854  19.0219055  65.4370422
  36.7086192   2.2011936  66.5653284  37.6301897   2.1650089  66.4867445
  36.3897991   1.3737631  66.9409216  42.0902235  11.2563440  65.9001885
  42.1517564  10.4699001  65.3261998  41.5069689  10.8848200  66.5886393
  31.5006485  18.4844797  75.3834184  31.7822820  17.5467014  75.3974339
  30.5796785  18.3456091  75.0956585  34.5848393   7.1728978  69.7146226
  35.0904297   7.9511248  69.5117318  34.1161715   6.9460054  68.9187177
  32.6899873   1.7864544  68.2606585  32.5952432   2.8176694  68.1912907
  31.7071567   1.6263483  68.1071984  46.3938663  23.2403810  77.0514025
  45.8187939  23.4536970  76.2826127  47.2575100  23.4770114  76.6662552
  24.0738047   4.3906628  62.2794960  24.4576773   3.7939944  61.6404349
  24.8588180   4.9430929  62.4907268  37.4127559  18.8791815  71.1727530
  37.2293373  19.0694743  70.1828319  37.6811179  19.7869284  71.4266704
  53.0987555  10.5696781  68.4036390  54.0494991  10.6076584  68.2486717
  53.0264877  10.9357135  69.3051320  36.5426851  15.3245281  57.8666489
  36.3325677  15.6960027  58.7300494  36.7123159  14.3745701  58.0784445
  20.0861333   4.2485199  56.0035270  20.7650326   4.2656567  55.2456528
  20.1614962   5.2115767  56.3144981  31.1517784  17.0100283  68.8003338
  30.7559921  16.3671309  69.4077359  30.3453933  17.2246955  68.2420805
  27.0806702  14.2375879  79.4921558  27.3268787  14.1045606  78.5269064
  26.1900012  13.8390305  79.4602394  32.2587042  15.2459473  72.3863639
  32.5556402  14.9180554  73.2193486  32.6107046  14.5590337  71.7943508
  52.8964860  16.4849244  58.9950465  52.0707852  16.2551014  58.5355577
  52.4869868  17.0776361  59.7437746  31.7519681  13.7856355  62.6062279
  32.1469638  14.6455514  62.3898843  30.8272463  14.0135968  62.4437350
  43.3271042  11.8712373  53.0295096  42.9610789  12.5892107  52.4928196
  43.5322929  12.3997751  53.8517606  38.5251176  -5.5367384  57.5370278
  37.8591783  -5.5019474  58.2743276  37.7853960  -5.5964979  56.7755010
  46.7895916   6.2513080  63.3364400  47.2515688   5.9507969  62.5166934
  46.6410625   5.3537238  63.7391255  51.1412904  22.4746612  77.7311147
  51.0901204  22.3936331  78.6589452  50.6967756  21.6327349  77.4090747
  45.7030150   5.7724209  59.2331843  45.5816994   5.1092220  59.9411763
  44.9824440   5.4288367  58.6207164  26.9354943   8.3879493  57.1596823
  26.7186988   9.2477707  57.6374896  26.0585062   8.0007481  57.0721799
  43.2593663   1.0569105  69.9786312  43.5660764   0.1594086  69.9562765
  42.6232198   1.0770676  70.7237190  38.4150783   8.6549652  59.2119229
  38.0202628   9.5376809  59.3094204  38.7479526   8.5225907  60.0957587
  41.3372987  12.0026376  59.1032870  40.6358915  12.7128779  59.1838004
  40.9644234  11.4202622  59.8134276  36.0641518  -0.9157852  51.6082182
  35.5670945  -0.3456817  52.3026619  36.7153027  -1.3359494  52.2255060
  44.1286111  -0.9759795  58.5101603  44.3679791  -1.8156890  58.8881556
  43.1331481  -0.9990663  58.6294880  47.1603234   9.2551095  53.8963862
  48.0901482   9.3398394  53.5465001  47.1160586  10.1515786  54.3465127
  30.6856017  21.9192510  63.1405268  31.6329929  21.6960088  63.3050947
  30.2498700  21.1661664  63.4727244  37.6559112   7.3622725  75.5926740
  38.2278186   6.6969748  76.0177208  37.8689370   7.2064971  74.6482118
  34.4090202  10.1799024  66.8120762  33.8997745  10.8466231  67.3198817
  34.9094315   9.7584502  67.5514348  41.1049871  12.1006822  62.5514318
  40.1019269  12.0860524  62.4108685  41.2941347  11.3202226  62.0207105
  46.5336014  22.8746806  65.5671461  46.2995195  22.4040958  66.3672422
  46.8299189  23.7343884  65.9032722  43.9590274  20.0073965  61.1870201
  44.7239476  19.8339683  60.6341047  44.1647897  20.9721336  61.4551706
  41.0310536  13.7057606  68.4450158  41.3887532  14.3747266  69.0768586
  41.3979667  13.9995066  67.6468259  41.7567872  -0.8211979  66.5353055
  42.2933070  -1.3819417  67.1988817  41.0536961  -0.5129907  67.1319484
  26.4939023   5.9782097  62.3507468  26.6668818   6.6618604  61.6398871
  26.0720112   6.5529014  62.9966450  33.6602644  -4.3209695  59.0596742
  33.3267689  -5.2079184  58.6674214  33.7388229  -3.8489577  58.1992477
  39.3075721  17.6787967  62.8251717  40.0963829  17.7852075  63.3911460
  38.6738063  17.3356762  63.5289219  35.4142446  11.2382539  70.0762412
  36.1929174  11.3055769  70.6925595  35.5981273  10.3704900  69.6046903
  38.7673383  12.3125301  57.1644517  37.8422034  12.3934411  57.5154670
  39.2220611  13.0351470  57.6442637  49.3600373  16.4060344  64.4241332
  50.0110582  16.7261942  65.0711207  49.0897341  15.5742149  64.9321691
  41.6631933   4.3603737  62.2303404  40.8952715   3.9169027  61.8622083
  42.1228052   3.6413508  62.7079082  28.7640773  17.3684537  67.7207058
  28.0871202  18.1284871  67.6798939  28.2102787  16.5874800  67.5929424
  38.5901882   8.2687061  47.5044845  38.9961223   7.6365450  48.2189383
  38.6244860   7.6597277  46.7633148  30.2917236   6.7428519  62.1986948
  30.3608826   6.4792744  63.1163803  30.1775254   7.7212038  62.2879172
  25.7166980  16.6029196  61.0266527  25.8126074  17.4466153  60.5718130
  24.8963932  16.2499203  60.6522674  55.3943869   2.3863431  66.9117265
  55.2219211   1.6584323  66.2377691  54.6226727   2.2505477  67.4466494
  42.0227361  16.7539643  64.3581202  41.7802486  15.7982457  64.4699369
  42.4257434  16.6191715  63.4533866  35.5709284   5.3979275  52.7166619
  35.2735718   6.1405913  53.1937604  35.8824641   4.7628729  53.3669277
  26.6553979  22.7235625  56.7265135  27.3941610  23.0832825  57.2447013
  27.1715835  22.2565606  56.0122764  33.4654684  15.8598140  68.0455520
  33.5101275  15.2643933  68.8336852  32.6071052  16.3127597  68.2213490
  32.5687702   8.0425765  54.6109195  32.6883130   8.6065791  53.8174616
  32.0716544   8.6155690  55.2207845  49.0824579   5.5370726  75.3558990
  48.5791959   4.9170967  75.9273685  49.9853753   5.1700815  75.3890112
  33.7114131  13.5038858  59.2083444  32.9577132  14.1160773  59.2951916
  33.3234574  12.6515554  58.9705742  38.6251269  14.4032537  74.9169718
  39.4549497  14.8477262  75.0304176  37.9842493  15.0143818  75.3180476
  29.6760106  19.3520408  57.9160277  30.1583260  20.1929149  57.6734146
  30.3727799  18.6682331  57.6689893  39.7571422  14.5949241  71.8562292
  39.1922159  13.7847424  71.9087326  39.1154405  15.2682959  72.1116359
  36.1797519  17.2175025  56.2354061  36.3310860  16.5654824  56.9204548
  37.0497620  17.6424716  56.1209813  35.5574578  14.2462136  75.1296382
  35.8095446  14.6164438  76.0323358  34.7122693  13.8383066  75.3992154
  42.9356584  17.2739216  72.3044980  43.6912206  17.9646051  72.2266589
  42.3747340  17.8218176  72.9280599  41.2980749  11.3354662  73.8590463
  41.6583497  10.9568002  74.6810056  40.4328116  11.6741480  74.2402260
  49.0827765  17.8734725  69.8566933  48.1003964  18.0107549  70.0374773
  49.1423400  18.8147252  69.4499569  41.7025858  -9.0466688  69.5817683
  41.1984482  -8.5605637  70.2431883  40.9899598  -9.2859888  68.9453706
  44.5925253  15.6969005  59.8931242  44.0230960  15.6046775  59.0647544
  44.6408994  14.7742889  60.1597618  23.0795027  14.9964102  74.0600300
  22.5758882  15.5376498  74.6450913  22.5124121  14.9169247  73.2789849
  29.1643887  13.8859238  56.1255699  29.3474565  14.7002655  55.7102951
  29.9538857  13.7664751  56.6790600  44.5913589   2.0693835  65.6026045
  44.0955190   1.8279016  66.3959200  45.4563992   1.6305895  65.7761942
  47.0824620   2.8542206  67.3495154  46.6202841   3.5420878  66.8018965
  46.9887019   3.2227546  68.2561124  28.2802218  16.8487175  61.6209942
  28.3025178  17.8100121  61.9095034  27.2706438  16.7495587  61.4802712
  37.3528831  19.7568083  58.3786888  37.9384901  19.2661064  59.0312574
  36.4846691  19.3841659  58.6800014  16.5416921  19.2412796  76.0468875
  16.4754358  18.5003979  76.6827379  15.8517582  19.0595397  75.4062454
  29.2807982  36.7053743  68.1227124  28.4920218  36.1944780  68.4596705
  30.0415681  36.2416712  68.5504739  46.5209912  18.9572811  79.9660817
  47.0696739  19.1170920  80.7175014  45.6435784  19.3732290  80.2684617
  38.1992724   9.2186918  70.4422073  38.8925367   8.7805051  70.8950158
  38.1842155  10.0691599  70.9087727  31.0391524  23.8659074  69.8763363
  31.5504712  22.9479604  69.9068817  31.3616771  24.1570964  70.8038100
  31.0869868   7.5907278  74.2386143  32.0836430   7.8445378  74.2098134
  30.7119115   8.4035343  73.8126358  48.6547596  14.4085417  66.3985259
  48.8075300  13.4303925  66.4982991  47.6826301  14.4282683  66.5828871
  27.9907630  13.5417204  59.9338482  27.8857989  13.1462216  59.0343315
  28.2413047  14.5011034  59.6887222  36.5330834  22.7079085  72.5496646
  35.8252195  22.2805461  73.1035688  36.2611665  22.2602795  71.6644557
  36.1227856  12.7965675  58.1351380  35.3655397  13.1327471  58.6331152
  35.6633875  12.2162247  57.5087276  41.5008553  11.6922596  70.2543954
  42.2389665  12.0932074  70.7702633  41.4292774  12.4263844  69.5744926
  46.9978915   7.6277339  65.9888692  47.8311831   8.1159815  65.6865230
  46.6775003   7.3576600  65.1035314  39.7753967   3.3288224  60.6700982
  39.0797957   3.6259776  60.0440647  40.2526525   2.6851461  60.1749072
  35.9866280   9.0164949  68.5403511  36.5245543   8.9328951  67.6612138
  36.6639726   8.6578626  69.1536341  39.2226049  -1.7598806  74.1973951
  38.6835803  -2.5719063  74.3206828  39.2603789  -1.6987245  73.2264174
  32.2291583  27.5139728  68.2997357  32.7417496  28.2265072  68.7428451
  31.9080040  27.9522676  67.4860057  36.9555640   6.0077112  56.1287070
  37.7868681   5.6208565  56.3397677  36.5863415   6.4088655  56.9298354
  28.5143118  -0.6173019  71.3942978  29.4514510  -0.3053158  71.4817192
  28.4094472  -0.6609954  70.4172959  48.4770670  16.9111300  53.2517509
  48.5516032  17.2425770  52.3235324  48.2061620  17.6791663  53.7658548
  54.6668322  14.2375260  50.4806700  54.9571476  14.9786935  49.8934807
  54.1368359  14.8588774  51.0524474  28.9102358  18.4741443  74.5105355
  27.9964245  18.3576836  74.9133277  28.6366139  18.4132785  73.5831722
  33.6097535  21.7184833  63.4715313  34.1632628  22.2362457  62.8164810
  34.0607236  21.9505044  64.2972690  38.9212450  18.4338257  56.5151397
  39.2939747  18.9634409  55.7980368  38.5828996  19.0796702  57.1293693
  24.6664109  11.2412770  71.6639380  25.3477002  11.3707341  72.3408921
  23.9604375  10.8045214  72.2353008  19.7071164  20.2475177  62.8603776
  20.3693557  20.9798429  62.9340904  20.1873691  19.5621954  63.4652315
  37.8284152  18.7703339  79.8755704  38.4551184  19.0796063  80.5283502
  38.3097802  18.9792359  79.0165317  39.3602730   0.9444820  58.4839195
  39.2205364   1.4556685  57.6974876  38.4177718   0.9341092  58.8980442
  47.1249989   7.8087288  58.2471942  47.3092240   7.5944959  57.3222357
  46.4406168   7.1467493  58.5167237  39.7534005  15.5802382  84.1654547
  39.5978896  15.0317349  83.3284295  39.9945212  16.4143407  83.7191507
  40.4773314  20.7476341  72.6583786  40.2584633  21.5794619  73.0728325
  39.9025529  20.7479943  71.8857561  39.9079796  -3.3940528  86.2459465
  39.5042317  -3.1033083  87.0960818  39.6258953  -2.6978895  85.6434262
  39.5821722   5.3953558  56.6186522  40.4377013   5.5713110  57.0719141
  39.7770157   5.6081520  55.7193538  38.4563473  12.0007693  62.2096330
  38.2437515  11.2082231  61.8207853  37.6712104  12.3688555  62.6237526
  31.7465253  15.0624404  59.5037877  32.1521270  15.5618775  60.2455287
  31.3901401  15.7994416  58.9753296  38.0051399  16.6158713  72.9940536
  38.2159323  17.3598641  73.5376627  37.8108155  17.0511701  72.1214818
  33.3003135  19.0002571  62.2399535  33.7912183  19.0552409  63.1368987
  33.2532898  19.9540887  62.0857158  38.1440157  15.3695687  61.8813808
  37.9769468  14.9629554  62.7409648  38.3357411  16.2756682  62.0780995
  40.2138066   8.7818029  56.7344659  39.7070564   8.7958966  57.6206996
  40.8887164   8.0571643  57.0292652  54.1850089  -6.0820472  66.9070206
  54.6428940  -5.2130949  67.1104887  53.4337778  -5.6933620  66.3518631
  35.6897483   0.3154992  56.8032313  35.1537333   0.8637740  57.4431486
  36.1554676  -0.2626488  57.4884514  49.3515497  16.8725978  57.4132442
  49.0061970  16.5674434  58.3235731  48.8328469  17.6836567  57.2979932
  41.3806507  26.1903742  73.9365064  41.2527695  26.9098344  74.5705907
  42.2671305  26.3956602  73.5889722  29.7651692   8.0481696  51.9223581
  29.2984996   8.1979816  52.8105640  30.3998812   7.3171547  52.2856092
  24.9433300   7.6714965  63.7442069  24.2176911   7.8116506  64.3579359
  24.4968555   7.6565191  62.9079598  40.5647391 -14.0153620  58.0793046
  41.1086890 -14.0206090  57.2721651  39.7685066 -13.5289594  57.7891567
  33.6834608  -3.0792897  56.6121889  33.3100503  -2.3147187  56.0756052
  34.6018218  -3.1195533  56.2218765  32.7952651   5.5471345  56.0130684
  31.8410757   5.4298637  55.8652887  32.8241206   6.5241641  55.7837169
  21.9380791  15.9592583  57.2391753  22.3753416  15.9241283  56.3831556
  21.3938119  16.7527259  57.1512339  36.2540187  -2.9991636  55.7566748
  36.4393396  -2.3578598  55.0528895  36.5559003  -3.8205133  55.3918397
  31.8270262   9.3871725  69.3451343  32.3125160   9.3275388  70.1515133
  31.2104503  10.1194346  69.5822139  29.2349694  28.1428927  79.8505907
  28.3534025  28.5544114  79.8294231  29.6304607  28.6393597  79.1270979
  33.3612358   9.8036539  71.5607361  34.2349912   9.5481120  71.9286418
  33.6475972  10.5830642  71.0327189  56.5104572  18.7942175  65.4865767
  56.1313858  19.0237729  66.3234114  56.0393468  17.9634451  65.2587646
  42.6532718  -2.7098889  68.1273023  43.2000742  -2.3391578  68.8707787
  42.2107914  -3.4349638  68.6263795  38.9953741   8.6397571  62.0825176
  38.7442579   7.6718104  62.1926483  38.4017780   9.0865697  62.6872221
  22.6025137  11.7305380  67.6836930  22.3122032  10.7927253  68.0076213
  22.0745952  11.7081538  66.8486057  40.4445978  20.9085470  51.7349443
  40.7095106  21.7506128  52.2607721  39.5665826  20.8050075  52.1482290
  22.3367619   4.4148798  66.5495989  22.0737128   4.2910365  65.5816005
  23.2333286   4.6827199  66.4728148  43.1924677   4.5562196  58.3029643
  42.8703680   3.7723409  58.8940253  43.1196367   4.0451016  57.4242563
  45.4034438  24.2907126  72.6066488  45.6102988  23.5404995  73.1950941
  46.2632353  24.6729833  72.3512201  27.4022109  23.1893091  69.5414110
  27.9628468  23.3172984  68.7734600  27.1295323  22.2102615  69.4054104
  46.6108590  19.4361996  56.6601972  47.1553341  19.3636656  55.8783767
  46.1029314  18.6258243  56.7411496  42.6982322  17.6734363  51.1393023
  42.2603905  16.9928662  50.5781720  42.1565416  17.5340713  51.9491095
  34.1861230   0.3000874  66.6171860  34.9351206  -0.0826143  67.0859668
  33.7036442   0.8269516  67.3041321  19.8126763  17.2839192  67.7012408
  19.0030249  17.7455185  67.9768954  19.8998547  16.6135901  68.3807102
  27.9503392  10.5376670  65.8567128  28.8415063  10.4056220  66.3297371
  28.0909461  11.3784970  65.3658195  49.3719156   5.2467932  65.2881354
  49.0771159   6.0047506  64.7931404  49.7535512   4.6931752  64.5205210
  58.6467973  14.4808040  67.2846264  57.6709678  14.6102618  67.2846684
  58.6993007  13.6067053  67.7924343  49.3574232  23.3622696  57.2408273
  48.4567161  23.7481300  57.0720637  49.2593915  23.3892418  58.2351610
  52.5318858  20.0554499  63.9403225  51.6421862  20.1026041  63.4072813
  52.8332667  19.2008925  63.5453880  48.6387970  23.0466820  63.0672761
  48.3298117  22.1725609  63.5154435  49.5505982  22.8998875  62.9823497
  53.0638525   4.8879013  63.0214297  53.0946666   5.8425601  62.8292015
  52.9708162   4.8618147  64.0012268  42.2698066  26.7513497  68.9153608
  41.7169312  27.2970611  69.5306301  42.7285167  26.1509900  69.5146648
  49.9133838  29.0089711  67.1933159  50.7803509  29.4058494  67.1544284
  49.7449085  28.8255557  66.2385985  54.0776319  22.3058462  63.8282149
  54.5012106  22.4355180  64.7306769  53.6900117  21.4055898  63.9755712
  48.9939726  21.8769309  66.6581085  49.6914296  22.4507498  66.2723989
  48.1552323  22.1978669  66.1953471  49.9896239  23.0221584  73.0561679
  50.8463000  22.7371713  73.5134863  49.4004883  22.4001772  73.6685161
  32.9400939  21.8640357  70.1544091  32.9902995  20.9578727  69.7470017
  33.0737089  21.6972988  71.0554668  56.6443127  24.6729999  57.2868024
  56.1835521  23.9760139  57.8731414  56.8723555  24.1278254  56.5075504
  55.4047483  27.0640206  77.6333716  54.8323301  26.4297777  78.1715058
  55.0000456  27.9057674  77.9356433  41.4867461  19.0926136  74.5112467
  41.7037494  19.5103070  75.4060892  41.1148367  19.8988062  74.0441801
  45.1737075  18.5300535  72.5593131  45.9160861  18.1883622  73.1313311
  44.8154645  19.2296272  73.1188398  51.4230586  22.9887622  60.9174329
  52.2355014  22.5005962  60.7812416  51.5466112  23.4849593  61.7478105
  51.6500702   2.2880736  62.0634264  52.4877835   2.4831173  61.5674583
  51.2568163   3.1749833  62.0861808  36.9036605  19.8849643  68.6585652
  37.7196307  20.2256095  68.2219360  36.5336491  20.7569894  68.9861719
  48.9654233  23.8537931  59.8809811  49.2900622  24.7238313  60.2348849
  49.5722794  23.2738645  60.3967676  34.9468278  26.5667544  71.3680139
  34.0116090  26.7647159  71.5164867  35.4003801  27.4184467  71.4621991
  54.8850127  26.5530074  61.0936918  55.2033618  25.8318033  61.6505080
  54.0131346  26.7383525  61.4677181  45.2389008  20.6429980  70.1878688
  44.2514918  20.7270265  70.2249054  45.4889265  20.2341192  71.0270612
  50.6449825  20.4377881  60.0636491  49.9917468  20.4904360  59.3478188
  51.3153344  21.0424599  59.7895196  55.4448561  24.6062303  63.1505933
  54.8987724  23.8056671  63.2802597  56.3329452  24.2061163  63.3291753
  40.8951994  16.2572223  74.7974859  41.3071146  17.1295812  74.9197348
  41.5272532  15.8135693  74.2318007  47.1000600  25.0281098  68.6619453
  47.4245428  25.3922788  67.8078449  46.5530427  24.3087070  68.2515568
  57.6600093  23.2077653  63.1104918  57.6237008  22.2340139  62.8675624
  58.5920218  23.2476126  63.4702680  39.4909780  16.4449502  67.3919225
  39.1383424  16.1265729  66.5373545  38.7063207  16.2039291  67.9288710
  45.8807891  14.8544720  76.9307851  46.2399331  15.7212909  77.3121593
  46.0353064  15.0626188  76.0002233  50.3218672  22.5694690  70.3511120
  49.9556713  23.4014954  70.0316815  50.4270546  22.7648917  71.3133883
  56.9665695  25.9041133  67.2983259  56.5142407  26.0659866  66.4318287
  56.4709272  25.2046267  67.6847275  43.6408518  18.1842189  78.2935128
  43.1044338  18.9928429  78.6221938  44.5077832  18.5361431  78.4946343
  50.0958737  26.0548116  65.3488243  50.9056565  25.9588896  65.8805670
  50.1994635  26.8474015  64.8295416  47.8294896  25.5950450  62.9527291
  48.0305189  24.6806247  63.0819364  48.3846455  25.8522777  62.2195819
  52.8938698  31.8513360  81.3648530  52.4177010  31.0611995  81.4633191
  52.3770991  32.4957946  81.9175474  53.4630807  18.8638306  68.3844589
  52.7765464  19.5077145  68.1818890  53.2207918  18.1314175  67.7928061
  58.6758420  22.6943579  55.3529314  58.2439974  22.0488229  55.9588413
  59.6200617  22.4693004  55.4650459  48.6170212  21.5105371  74.8106704
  48.4448299  21.6310057  75.7667592  48.7478301  20.5342731  74.6734278
  44.0929034  26.5461742  73.6205838  44.5628398  26.5364989  74.4739422
  44.4949520  25.7385882  73.1835964  47.8119457  30.0652734  81.6932966
  47.0343950  29.8217741  82.3348646  48.3887135  29.3135277  81.9540288
  27.1126640  34.8585537  66.0258485  26.4455183  34.1193943  66.1829191
  27.5808839  34.4919349  65.2516449  34.3094874  19.7374500  75.6015922
  35.1466505  19.5176075  75.0993332  33.7159328  19.6192796  74.8744452
  48.8708834  20.3974105  69.2232233  49.0793884  21.1476071  69.7929243
  48.8531565  20.7579979  68.3242344  44.4294479  11.3367298  61.3017808
  44.3111637  12.0059815  62.0188384  43.8136866  10.6147932  61.5871000
  43.4811774  14.9927824  86.9808536  43.9078096  14.8339020  87.8350048
  42.8926964  14.2091689  86.9262693  41.4116121  23.1466925  69.9510899
  40.6081577  22.7602312  69.5279421  41.0029664  23.6830852  70.6977349
  49.6409692   9.0775930  60.2549342  48.8288795   9.0316206  59.7495296
  49.5858502   9.9882203  60.6539240  48.8097489   5.7740241  53.3185233
  48.5221038   4.8684466  53.2395496  48.1149865   6.2924287  52.8719642
  39.1422555  26.0422075  70.5396354  38.3842131  25.9612932  71.1960312
  39.7896940  25.4799474  71.0381176  54.7430991  22.4286422  66.2385320
  55.0486391  23.1179830  66.7816502  54.5486558  21.6978504  66.8446460
  55.5080722  28.1836229  58.9218766  55.3163972  27.9117584  59.8779263
  55.1562013  27.4020064  58.4520188  43.5032332  15.4411314  78.5559807
  43.8057792  16.3276749  78.3038853  44.1661938  14.9499313  78.0160746
  47.2294442  25.5552569  65.6657273  48.1800451  25.6181363  65.9474576
  47.3151352  25.6970633  64.7308435  41.1064338  13.5623051  64.8856189
  41.3533508  13.2230277  63.9965306  41.3537619  12.7895177  65.4846601
  68.5707923  29.6226963  61.2780662  67.7258750  29.5738178  60.8476152
  68.9313858  28.7395573  60.9612372  36.9158641  17.0248689  64.1429851
  36.4903852  17.9088617  64.0652172  36.9791697  17.0017217  65.1396575
  37.9757275  15.8503830  79.3990702  37.8187656  16.8219819  79.4114007
  38.4586262  15.7156287  78.5665999  52.8058878  26.6402491  62.6939484
  52.4457349  25.7733363  63.0732783  52.8802410  27.1479866  63.5267940
  50.7742258  29.6534002  79.6643583  51.4247220  29.2738427  80.3068923
  50.4789042  30.4165042  80.1608388  46.3848391  27.1780025  83.6970993
  45.6652024  26.8862390  84.3399442  46.2274750  26.4505167  83.0302848
  35.5530683  22.6428593  78.7084187  35.4666596  23.2431014  77.9220878
  35.8242157  21.7993607  78.2428357  54.7697178  28.3008170  69.0618024
  55.2501424  27.4290400  69.2468221  54.3934689  28.4781915  69.9401308
  67.6657615  22.4415314  61.7396188  68.4045101  22.7976529  61.1633479
  68.1809862  21.7419366  62.1915548  55.3790761  20.9189761  69.0196863
  54.8322316  20.1206849  69.1439566  56.1867131  20.5361901  68.5885117
  54.6104316  27.4826831  73.3851979  54.2572870  28.3449461  73.0614743
  54.1516530  27.5048392  74.2769339  43.1631813  22.0556621  66.6823765
  43.4504474  21.5676711  65.8928549  42.7293113  21.2821154  67.2087037
  42.0417442  15.4873180  70.7058930  41.2179659  15.3896504  71.2858777
  42.4578317  16.2734003  71.2272305  45.8601914  19.8798577  59.3279103
  46.2301425  19.6531195  58.4269610  46.0907489  20.8141697  59.3935444
  60.1173109  26.4037563  63.9682397  60.6229643  27.1834551  63.6632468
  60.0831742  25.9363755  63.0307978  56.6047778  21.6520729  83.7929340
  57.0903711  21.8863560  82.9348867  57.3982496  21.1308481  84.1757229
  51.9292966  19.7993339  73.8860464  52.6642684  19.6371453  73.3244260
  51.9972780  20.8237417  73.9591106  30.0547206  24.0721081  75.4016528
  30.5459900  23.8479356  76.2150090  29.3464052  23.3802212  75.4444495
  42.3749559  21.6498818  75.8260800  42.5062948  21.4307948  76.7802835
  42.0746334  22.5950509  75.9029806  50.9001393  20.0200693  66.3225217
  50.1599955  20.6055309  66.4319543  51.4857792  20.3668019  65.6358685
  53.7205512  23.0541162  76.6241044  54.3384303  23.0612594  77.4351711
  52.9255186  22.7510245  77.1638891  56.8088300  38.7971607  80.7142516
  57.3236091  39.2834736  80.0011670  57.5700351  38.4828244  81.2380036
  40.7077146  22.5855590  79.4053595  41.1354194  23.3971359  79.2763032
  39.7762112  22.8072938  79.2324715  53.2213065  28.0817231  64.8871450
  54.1864133  28.0506831  65.1154366  52.9525677  28.9706798  65.0238010
  58.9732250  15.9439618  70.5350383  58.3655145  16.1767353  71.2086089
  59.3864594  15.1023332  70.8181114  61.4991965  14.6058954  66.0909408
  61.0817723  13.9040445  65.5216468  60.7675517  14.7661438  66.6994956
  30.8875341  19.6917268  71.4745897  30.8019709  20.2181884  72.2807871
  31.6340016  19.0972196  71.6517713  45.8501794  22.5725242  68.2751416
  45.9330588  21.9660746  69.0871539  44.9101819  22.4182697  68.1292279
  51.2691768  16.4969937  55.5698713  51.1994465  15.5102739  55.4522049
  50.5063206  16.5749319  56.2514173  36.3897309  -2.7295196  60.6108502
  36.5080428  -3.4770903  60.0258916  36.7331905  -2.0203861  60.0061640
  38.3879978  29.1288783  72.1921956  37.4098076  29.1966487  71.9119541
  38.2888540  28.4400704  72.8907380  54.7796472  42.1954846  70.7621401
  55.0331086  41.3823397  71.2061303  55.2348618  42.8558484  71.3969922
  54.2132849  35.3086187  75.7844007  55.0596080  35.0478638  76.2018453
  53.6501577  34.6654071  76.3180140  60.8306885  51.0933924  64.8586672
  60.2137291  50.7906171  65.4724077  60.3118070  51.6294714  64.2382259
  51.1129865  42.8085829  78.2251642  51.7185135  42.3266536  78.8430373
  50.3184152  42.2516886  78.3311148  59.0622162  33.4289112  75.8997826
  59.0130705  32.4600960  76.2720154  59.9489860  33.6109617  76.2573560
  58.2829251  48.8266657  57.8377323  58.3859650  49.5711435  57.2574828
  58.9860875  48.9475329  58.5133424  55.8870397  26.6396110  64.8809862
  56.6061911  26.7000083  64.1626714  55.3598040  25.8709478  64.4734978
  57.8076010  44.7397987  62.2077899  57.2169998  45.2351997  62.7454537
  57.3030106  43.8600008  62.2118840  63.6718425  35.1020261  80.0491150
  64.3674626  35.7674109  80.2999065  63.0034110  35.6426805  79.5758825
  51.2730441  41.1315724  73.4959176  52.1873270  41.2079546  73.6658774
  51.1105757  40.1774695  73.8018571  58.4212321  37.9246123  71.1291568
  59.0196457  37.2006623  70.7794468  58.9519404  38.7242708  70.8056974
  51.0747156  31.6854775  70.8215738  51.8661791  31.4706384  70.3215761
  50.6132235  32.3331597  70.2923166  69.1544417  36.6624687  73.9154461
  69.6822671  36.2544540  73.1566846  69.2733504  37.6058419  73.5666070
  59.1725466  47.7086913  74.7358682  59.8511975  47.4765229  74.0012173
  58.7490755  46.8455435  74.8196882  58.3151918  41.5365960  65.5386376
  57.6075304  41.8163318  64.8971598  58.9304650  42.2969933  65.4227983
  73.0707616  37.2749090  71.6349919  74.0392389  36.9270359  71.7785682
  73.1694871  37.7990892  70.8384652  52.5088769  33.5073266  64.6960725
  52.6794966  34.1779816  65.3991404  53.0371325  33.7986987  63.9606642
  60.6283005  49.2099127  59.2079963  60.8205003  50.0190181  59.7359001
  60.9155804  48.5426518  59.8941486  71.5455413  48.7900910  62.3849114
  71.3063332  49.7198777  62.0944253  70.8177321  48.7112785  63.0645492
  59.7752562  41.3549646  72.8925933  59.2016420  40.8898648  73.5305954
  60.6701488  41.2544278  73.2994735  53.5335190  37.3869957  77.5343596
  53.7607252  36.5578158  77.0076279  54.0883609  37.1759394  78.3256302
  65.9147923  57.8079047  72.2019633  66.1642043  58.3824886  71.4055381
  66.6979762  57.2340347  72.2222297  55.1447760  39.8881212  72.2295968
  54.7152601  39.4031815  71.4976225  55.6665842  39.1445589  72.5844190
  55.6836257  43.3567555  64.2414376  55.7574918  42.8606892  63.3447876
  54.7489430  43.1751774  64.3746109  62.1473072  32.1498407  74.0337137
  61.2418325  32.5008110  73.8604108  62.5361860  33.0156204  74.3102686
  55.9847783  67.4551536  80.7965447  55.5638562  68.2760133  80.4972976
  56.5871954  67.2867156  80.0511452  48.5003501  53.3389171  72.5142613
  47.5938147  53.6762769  72.4832527  48.3175673  52.3990664  72.8368491
  50.4300858  42.1952068  71.1781880  50.9080849  41.7772789  70.4879144
  50.8962227  41.9367826  71.9920711  58.0252369  49.1169207  77.1527091
  58.5355543  48.7827220  76.3748629  57.1243400  49.0564282  76.7878053
  53.1702447  41.1822244  65.8525843  53.0658208  42.0686230  65.3896540
  54.1300934  41.0165369  65.6061667  52.8827330  43.6076376  64.5717245
  53.2213054  44.1032681  63.7808730  52.1274695  44.1624733  64.7988971
  55.0867548  48.2536122  61.3043626  54.7895920  49.1276436  60.9594567
  55.1149875  47.7326630  60.4905617  52.8886462  45.7458571  70.0772092
  53.0200509  44.8801211  69.5163427  53.3073614  45.4729490  70.8988049
  56.0909757  31.1752608  65.4388944  55.6327177  31.7848956  66.0812150
  55.8647360  30.2493974  65.8729183  57.3466067  37.7595364  65.0269381
  57.3373235  38.1591038  65.9257656  58.0161015  38.2702977  64.5540532
  54.9181934  51.0652571  60.5427533  55.7493704  51.5278367  60.2160013
  54.7319725  50.6191595  59.6350578  66.6316793  34.6454808  53.8220297
  66.1865138  33.9858936  54.3930375  66.3470869  34.3569191  52.9575804
  49.6992671  37.1775162  70.6920981  48.9166383  37.2780820  71.2353641
  50.3397937  36.7039719  71.2937366  65.9887493  24.6259687  69.9442462
  66.1447715  25.5548888  70.0744487  65.8713705  24.3099856  70.8926324
  48.2373862  54.0831061  61.0417210  48.5579130  53.2736333  61.5853873
  48.9754162  54.0016181  60.3615611  59.1649782  35.8817938  69.6206437
  58.9731087  34.9256150  69.5027873  58.8251082  36.2425797  68.7675388
  59.1735394  40.4731121  70.2732017  59.1762931  40.7757805  71.2080921
  58.6278490  41.1624715  69.8936057  62.1951946  41.8754726  76.5028934
  61.5861798  42.3740647  75.9160463  62.8099907  42.6417005  76.7164182
  69.5748078  41.4132707  74.4666260  68.7533088  41.8331846  74.4645934
  70.2587398  42.1113900  74.4403209  62.3271120  37.3387469  76.5622391
  62.7254502  38.1931423  76.3980085  61.5806214  37.2861190  75.9599705
  59.9539069  43.6789996  64.9798251  59.3099646  44.3923229  65.0886572
  60.8021573  44.1137450  65.1503743  56.6322956  34.6152910  76.9678143
  56.8982281  34.0561892  77.7231582  57.3579710  34.5472834  76.3533356
  53.8570126  44.4495449  61.8866191  53.9250059  43.5554276  61.4694163
  53.8027318  44.9542342  61.0085060  53.5086105  51.5595032  56.6041933
  54.2433079  51.4596861  57.2144581  53.9533505  51.2526033  55.7695840
  60.4819265  45.4918821  62.5539577  60.5366361  45.3096844  63.5199295
  59.5970683  45.1711509  62.3481703  49.5797153  33.6658424  69.8061580
  49.6111309  34.3368704  70.6174956  50.3465234  34.0188423  69.3151595
  63.8094625  44.4945057  67.2677895  63.3984470  44.5864074  68.1351061
  63.9865771  43.4884923  67.2900789  48.4239993  37.8626508  77.9796633
  48.9886829  37.1768363  77.5315843  48.3905394  37.3789697  78.8799555
  61.6439816  60.9000003  76.9897925  61.3858180  59.9893491  77.4037795
  60.7807849  61.1152669  76.5956461  50.0193202  50.9080210  70.1542642
  49.8674429  51.2115659  71.0462954  49.9188272  49.9246089  70.3173781
  44.9250783  53.7944543  68.5875477  44.6593312  53.1241691  67.9534591
  45.1697220  54.5202773  68.0020709  63.0527630  44.5893128  69.9467267
  63.7871734  44.0368830  70.2777595  62.4124396  44.6749374  70.6419482
  48.8300993  51.9137691  62.6966120  49.5609963  51.8449845  63.3339592
  48.7627224  50.9552980  62.4122854  64.2370657  50.4237539  53.9247472
  63.9346580  49.7825938  54.5964496  63.5173305  51.0750969  53.9047153
  59.3081261  46.0323794  59.9756326  59.2481790  45.2920603  60.5290964
  58.8608252  46.7668453  60.3896188  62.6630515  31.8631481  77.0446529
  62.8039759  31.6301907  76.1052738  62.4118450  30.9667146  77.3948881
  55.4651111  24.0033293  68.4947468  54.7313133  24.0610780  69.1021227
  56.0186647  23.3449270  68.8016570  67.4616015  54.6293330  64.1092284
  66.8669398  55.3105316  64.5133069  67.6542302  54.0793202  64.8649908
  51.4127635  45.8475499  65.1712811  51.3744217  46.5728855  65.7822546
  50.4076384  45.7782912  64.9658800  51.3064637  50.5142823  72.9096221
  51.7049553  49.6852225  72.7367146  51.8708232  50.9014243  73.6111941
  61.7524361  44.0152640  74.6124695  61.7231345  44.7644364  75.2312130
  61.6175582  44.4511128  73.7486916  49.9964801  48.3220316  80.0686566
  50.2657631  49.1843775  79.7514566  50.8187979  47.8055680  79.9016518
  52.5758908  51.0256703  63.4514331  52.0114922  50.3821858  63.0148422
  53.1281606  50.4366230  64.0594944  57.9186891  43.0874814  76.0073288
  57.2662306  42.8108868  76.6373413  58.3269217  43.8064393  76.5116936
  49.6090105  34.9386053  72.0974227  49.4641533  34.1177501  72.5961696
  48.8726229  35.4849910  72.4256048  50.6518977  53.7955027  68.7671585
  50.9402510  54.4110402  69.4739776  50.1621348  53.1364807  69.2752817
  53.6656808  48.4173735  72.9073285  54.2311092  48.6448890  73.6346520
  54.2261069  48.7059462  72.1551635  62.0236860  34.9486854  88.6846284
  62.3504092  34.0285520  88.7931312  62.6777441  35.4136972  89.3037929
  56.8555311  55.7106700  58.6299520  56.5688761  56.5806776  58.2912485
  56.3628739  55.6861040  59.4778064  51.1208013  38.2219401  68.3411817
  51.5942049  37.3787904  68.1891288  50.5397626  37.8959369  69.1020309
  55.8070807  53.6373249  55.8256575  55.2501543  52.9496366  55.3922331
  56.6853013  53.4331128  55.3660634  63.6738319  42.0753204  55.6340737
  64.2517664  42.8618239  55.7526832  64.1866806  41.4731920  55.1260702
  51.6067526  47.7804224  63.2995662  52.3942849  48.1826053  63.6929366
  51.4271130  47.1022340  64.0096553  58.5855381  48.2319472  61.5213266
  59.0042725  47.9973545  62.3399748  57.8680821  48.8010565  61.9297757
  63.5250602  30.0062128  73.6291981  62.9795553  30.9045669  73.6313703
  62.7735709  29.4136855  73.7739546  63.2103133  50.4521286  69.7502905
  62.2223852  50.6728761  69.6667809  63.3636529  50.2254804  68.8298230
  66.2373028  49.9781992  79.9754555  66.6388678  49.1077003  79.6438867
  66.6309294  49.9754119  80.9134266  52.1790926  34.2419625  69.1695255
  52.8580033  34.3106288  68.5538291  52.5031280  34.9338572  69.8489351
  43.4246566  25.2147843  77.4489610  42.6897496  24.9509004  76.7800139
  44.0069250  25.6492129  76.7475498  67.7001936  44.3815350  67.9476529
  67.2299453  43.5682960  67.6589158  66.9818446  44.7263371  68.5375374
  61.6401103  37.2759352  69.1789344  62.0187882  36.3852019  68.9060547
  60.6966867  37.0585931  68.9618420  55.4809612  46.5440441  69.5576055
  55.6994672  46.6570912  70.5002049  54.4907029  46.7025176  69.5546909
  58.3411868  33.3142672  69.0409905  58.4615899  32.4617108  69.5273616
  58.3465938  33.0021446  68.1244714  66.5732768  42.0962499  67.0947752
  65.6624011  42.1512037  67.4278600  66.8073454  41.2272207  67.4680187
  64.1507037  46.3896310  59.3423741  64.8106208  47.0234698  59.5775640
  64.5850009  45.5729214  59.6740782  57.0711019  44.5847605  68.1433467
  56.7005962  45.3893112  68.5212198  56.7491501  44.6571155  67.2152878
  52.2917491  40.6236288  68.4929550  51.6294330  39.9488121  68.4071357
  52.5261699  40.7958139  67.5703097  52.8997064  21.4850482  58.5138806
  53.3551709  20.8682682  57.8313463  52.9381481  22.3400353  58.0008721
  76.6450220  46.7515686  69.2893347  76.2764003  45.8352765  69.2364365
  75.7592858  47.2319913  69.5295532  64.6018911  38.4320916  60.4844466
  63.6150887  38.5016214  60.5719836  64.9134223  39.0552107  61.1774720
  57.3536569  39.7096552  85.9171168  58.2149658  39.5916578  86.3591509
  56.7520512  39.3909547  86.6008346  55.7614671  36.9199324  79.1469870
  56.0419356  37.7067739  79.6018676  56.3603293  36.2228509  79.4451433
  65.0681457  36.2331733  58.8189944  64.7033697  37.0289670  59.2836416
  65.7406010  36.6580852  58.2419879  68.5115651  34.2457063  75.0062706
  69.3217466  34.2933150  75.4956811  68.5642617  35.1313219  74.5224602
  50.3946268  30.4483967  74.2704214  51.3074567  30.5815662  73.8768792
  50.6947838  30.4648849  75.1758054  63.2192896  26.7239685  62.3411958
  62.7113936  26.2449937  61.6388208  62.6693833  27.5425935  62.3744216
  66.9214923  37.2783841  75.2638927  67.6255093  36.9518223  74.7492719
  67.0555661  36.9288282  76.1715741  56.3969236  37.6345573  73.0971319
  56.9250632  37.7781278  72.3283642  57.0622822  37.4823307  73.8055014
  63.2964195  46.3106440  56.6387535  62.3868364  46.7080680  56.8519946
  63.7129354  46.3481639  57.5332337  77.3685690  42.3951330  73.8819700
  77.5165634  42.0365828  74.7656766  78.2797152  42.3810675  73.5055051
  64.7664487  43.4547728  73.3577688  63.8892996  43.4110372  73.7202396
  64.8714117  44.3920792  73.1344264  48.5876833  50.5171266  73.3701868
  49.5577372  50.5568296  73.2739342  48.3983795  49.5911682  73.0977972
  56.8348663  51.3430664  64.8189244  55.9194208  51.8156448  64.8585678
  56.4134282  50.4855373  64.5078990  55.9758942  14.8668991  66.7144751
  55.2371755  15.3555975  66.3032688  55.6389644  14.7572076  67.6140941
  57.2178515  33.3842048  79.2161515  57.7426823  32.5654530  79.3855466
  57.1688014  33.6941541  80.1590875  78.6567165  57.9479536  70.0902380
  78.3577747  58.0405776  69.1528303  79.1780166  57.0963690  70.0229348
  60.0415486  41.6383588  78.5894190  60.6226545  40.9205766  78.9402078
  60.4423979  41.7420965  77.7318081  60.5834354  67.9554171  67.7197765
  60.2959762  68.6946349  67.1288779  59.8808127  67.3061915  67.5474196
  69.3107977  60.4819378  49.0260035  69.6491481  59.7913400  49.6467495
  68.3807964  60.1832457  48.9444541  77.0391371  69.3157419  61.7737842
  76.2017844  69.7921522  61.6798209  77.0071142  68.7127624  61.0047862
  53.3974919  56.8396148  47.0138229  53.0698040  57.4324473  47.7181625
  54.0732335  56.3282960  47.5020706  65.2516972  51.7224538  67.5374314
  64.7403223  51.5954539  66.7231284  65.0175720  52.5995351  67.8105392
  60.3101061  54.6068495  59.0994552  60.6394350  53.7192165  58.7566186
  60.2566619  55.0767556  58.2417567  72.2888897  61.3637197  63.3043007
  72.1960717  61.7721970  64.2392294  73.2363216  61.6646843  63.1984517
  80.6720136  67.9868040  64.3435269  80.5084028  68.9259816  64.4455291
  80.2998790  67.8780522  63.4369073  68.4661769  57.1055023  54.2935466
  68.5492848  56.6893046  53.4338553  68.3836268  58.0546977  54.0547848
  52.5550210  61.8260494  53.2260222  52.2045063  60.9099195  53.3556121
  51.6620356  62.2540061  53.0789570  54.6616925  63.3462116  62.3609176
  54.6798312  62.3099067  62.3596983  53.9175675  63.4536471  61.7979003
  66.6173655  49.7205784  72.6638278  66.7448544  49.7732266  71.6875735
  65.6843944  50.1184058  72.6506728  65.5491627  47.0305844  55.4472700
  64.6363825  46.7367613  55.7289436  65.6287031  47.8777804  56.0051723
  55.7992889  67.4990992  56.4990701  55.0286305  67.5950755  55.8937252
  55.3124566  66.9816664  57.2201033  68.3445867  43.9914483  72.6142995
  67.6966840  44.5793403  72.2200840  68.3909934  44.3938876  73.4947380
  69.3166370  48.9719565  59.7372519  68.9601961  49.4806563  58.9854689
  70.2541468  49.1419344  59.6520139  52.5597757  53.9348974  74.8914281
  52.0040671  54.0446678  75.6898199  52.6445837  52.9451594  74.8679204
  63.9286117  66.9859801  67.7929406  63.3679236  67.4487747  68.4600862
  63.1727767  66.4052933  67.4212861  75.6884165  61.4092291  57.3092481
  75.5622177  61.9654900  58.0760944  74.9459104  61.6085566  56.6927657
  61.7573529  47.2113351  60.7807463  62.1549196  46.6332077  60.1405820
  61.1027092  46.6057035  61.2090038  71.3250903  52.3615104  74.5000424
  70.4292976  52.1390973  74.4225464  71.7651763  51.4667086  74.4957567
  71.8435689  41.9095408  72.2591557  72.0963886  41.1724003  72.8092051
  72.6828728  42.1388721  71.8674851  85.3772254  55.9143728  65.9572520
  85.5264962  54.9379686  65.7881188  85.4051514  55.9728858  66.8894552
  58.5924538  50.4066151  66.5017071  58.8853297  51.3164401  66.7531307
  57.9277756  50.6807304  65.7621368  70.5251272  67.0863759  65.2689312
  71.3713260  67.0546605  65.7810456  69.8957469  66.9868001  66.0280528
  75.7031752  55.7567536  65.6055889  76.1917150  55.7169775  66.4583782
  74.7793920  55.6127212  65.9209225  74.2466309  65.6187424  60.0195918
  75.0692866  65.3005146  60.4990649  74.7143756  66.0477916  59.2805343
  59.9792488  59.2057790  52.6579331  60.0450314  59.6179140  53.5453634
  59.2118447  58.5858704  52.8129250  52.6854526  53.8128164  66.8721222
  51.9777975  53.6780254  67.5564760  52.5669225  54.8209775  66.7545739
  65.5641810  53.1995313  58.5009577  65.0333880  54.0216469  58.5365363
  65.7870044  53.2389021  57.5409514  61.6572890  45.5883241  65.1665331
  61.6826328  46.5613979  64.9844388  62.2208783  45.5618586  65.9634861
  59.1191322  63.2633490  51.1874876  58.3165670  63.1323850  50.6437093
  58.7944775  63.7856550  51.9424291  62.6608981  58.1283261  84.9509924
  62.5138962  57.7794920  84.0439373  63.6258905  58.2065965  84.9053104
  54.0035405  62.4374737  72.1938903  54.1958439  63.3948240  71.9798666
  54.8784370  62.0496470  71.9924616  68.4422733  58.0266303  62.4081267
  69.1445801  57.3814970  62.2719299  68.9116610  58.7016011  62.9471180
  58.5337635  45.2042462  77.6344014  58.9110971  46.0759849  77.8103840
  58.6255369  44.8168285  78.5548348  64.3514928  51.0424558  72.6617201
  63.9357424  51.8044401  72.2316346  63.7962686  50.9883594  73.4574958
  62.0984171  31.8116926  70.3884003  61.4923396  31.4744040  69.6737747
  62.8301147  31.1500278  70.2623845  47.6347238  65.9763589  68.8572821
  47.2360887  66.5681446  68.1735700  46.8094821  65.6643184  69.3146604
  55.3202158  59.1756249  48.4068260  55.7553058  59.4931488  49.2571042
  55.9950249  59.6493417  47.7978058  72.2788459  44.0169191  57.4698483
  71.8881279  44.9102760  57.4723620  73.1872267  44.2156913  57.1902097
  53.3743646  43.7350314  74.6173850  53.8705964  42.8656827  74.6923200
  53.6848431  43.9517280  73.6698997  59.0840260  39.7573787  62.7741401
  59.3101265  40.1464754  61.8651727  59.9299034  39.6966161  63.2003107
  64.3495821  55.5254642  58.1028818  64.7585638  56.0977248  57.4127344
  63.8317443  56.2055833  58.5717166  67.5746558  54.2595476  60.0879935
  67.7324877  55.1334244  59.6716979  67.1597888  53.8078309  59.3210874
  66.0629461  48.8008430  60.0540237  65.5279889  49.5165606  60.3892167
  66.9453510  48.9498442  60.3994469  71.9849901  60.9489263  74.9177010
  71.4580623  61.2468786  74.1483171  72.4788302  61.7705943  75.0972054
  74.3027983  48.1158577  70.0282799  73.8435061  47.8940759  70.8596690
  73.6880564  48.7572194  69.6567525  74.3707932  49.0805764  63.4045388
  73.3818095  48.9867701  63.1997784  74.3729920  49.9099772  63.8966311
  59.4310038  50.3729131  53.8447999  59.1685155  49.4203824  54.0817266
  58.9969494  50.4131821  52.9561081  55.9756435  47.7326691  66.6324257
  55.3362551  46.9843408  66.6892100  55.7245542  48.3099828  67.3148784
  66.0522872  53.0002853  55.8010209  65.5259251  53.3580727  55.1011974
  66.4698452  52.2103046  55.4010130  54.2308497  60.8241771  57.4250949
  54.3136936  61.7522539  57.1748158  54.1871301  60.9271748  58.4151610
  76.7556466  44.6983335  72.9177634  77.4038020  45.3223048  73.3733585
  76.8609633  43.8902888  73.4263780  62.8262943  48.8384659  67.4231075
  62.5532888  48.8513631  66.4929994  62.4095855  47.9622044  67.7369271
  54.3451284  60.6003192  62.8153436  53.6829626  59.9390483  62.3982323
  55.1538863  60.3170246  62.3771301  64.0148369  60.3735505  68.0064319
  64.3076245  60.2054963  67.0706564  64.8245035  60.2458750  68.4811854
  66.0148556  48.0860960  48.4678798  65.1470500  48.4487396  48.8007903
  66.3350835  47.6561148  49.3308800  85.2798288  57.4495769  60.1335581
  85.3355691  57.1850904  59.1409683  86.1679289  57.7562443  60.2830405
  69.9924816  47.4364326  68.9136612  69.1363993  47.8359930  68.6650615
  70.1635500  47.9013975  69.7554656  67.0256930  49.1612122  65.5767112
  66.2253097  49.5680578  65.9961969  66.9441596  48.2872419  65.8987898
  69.7638338  60.2086489  66.0430313  69.8935475  59.2204196  65.8598121
  69.8972432  60.5140689  65.0928927  59.7767242  55.6696329  53.2053448
  59.0342469  56.3198134  53.0066440  59.7485632  55.7277506  54.1949944
  50.6934027  52.4895421  65.0792105  50.6960122  51.8367973  65.8721646
  51.4960290  52.1913339  64.6238764  69.7524353  60.5299254  63.4125776
  70.7032586  60.7866238  63.2881270  69.3319994  61.2765750  62.9490832
  73.3371975  64.9637591  68.7841516  73.7549998  65.6760091  69.2528758
  73.8353913  64.9131202  67.9484169  55.2757681  49.4861229  70.9338633
  55.3839765  50.4008973  71.2005854  55.8003026  49.4591193  70.1002711
  47.4784358  68.6119762  58.0899767  48.0475781  68.0058640  58.5908910
  47.0330232  67.9490162  57.5470627  69.0852685  47.0298604  56.5808994
  70.0047591  47.3879317  56.3767073  68.7158898  47.8772738  56.9319651
  57.4419076  45.4489952  74.3338026  57.8041083  44.6674405  74.7977825
  57.4658664  45.0962347  73.3979197  57.5020325  50.1117095  72.8103546
  57.0707798  49.7896553  73.6573684  56.8446163  50.8209936  72.6100597
  79.0027471  61.3318888  77.2061170  78.7773196  60.3883916  77.2658195
  78.1793265  61.7394756  76.9701200  63.6478578  47.0676287  74.7711777
  63.6633455  48.0335562  74.9813973  63.0907217  46.7261813  75.4750845
  66.2036812  67.8787666  69.2463597  65.6509332  68.6174513  69.5812105
  65.5231236  67.4175313  68.6750292  67.3107633  53.7058026  53.1112378
  67.3095737  52.7671892  53.4024390  66.3880246  53.7508863  52.8441008
  72.1045073  55.1846458  58.2854253  72.3050534  54.7762346  59.1393000
  72.8558898  55.8333730  58.1718053  66.5942486  58.7963706  81.1790016
  67.0646074  58.4125732  80.3941687  66.8692203  58.0835230  81.8291629
  68.9928975  67.8609492  58.2014457  69.7851074  68.4025811  58.0804247
  68.5846186  68.3873228  58.9473010  56.4169280  62.8090003  75.5048460
  56.4601014  63.4963512  76.2647910  56.5526632  63.4224838  74.7346443
  63.7615312  41.7687939  67.9102220  63.8214261  41.2310290  68.7696994
  63.2579867  41.1243197  67.3628165  66.2574914  52.3796179  49.5993940
  66.3997317  51.4952230  50.0362417  67.2095158  52.5563254  49.3102308
  45.5761178  60.3769558  67.1496199  45.2854885  60.3091809  68.1208029
  45.9895979  59.4982281  67.0305272  55.5960927  52.1776593  71.4102585
  55.2381617  52.7864838  72.0625362  54.9060667  52.2522980  70.6982500
  71.7473450  51.5404583  57.0248375  72.3857089  52.2411434  56.7638219
  70.9350241  52.1408329  57.0972908  79.8617122  39.2365572  70.9543201
  79.6848357  40.2097338  70.9607731  79.4734216  39.0109329  70.0881460
  84.1048572  59.2193465  61.6636592  84.6121068  58.8045702  60.9194713
  84.8944928  59.5323970  62.2005138  72.0651883  56.0710660  67.5494347
  71.9385748  55.3902768  68.2245566  72.6616955  56.6568039  68.0028174
  71.1067427  39.3644468  75.8259578  71.7250997  39.3326830  75.0362444
  70.3887665  39.9258408  75.4388798  81.3821614  58.5945769  66.3614381
  81.3609707  59.5842649  66.4904586  82.1764515  58.6001431  65.8201896
  67.9412977  56.3919403  58.5110556  67.7048785  56.0326568  57.6306698
  67.7660361  57.3464722  58.3874433  80.6028513  36.8519613  73.6228061
  81.5322584  36.7229726  73.9204778  80.1305552  36.7555355  74.5454207
  66.7964011  47.4014888  73.9381176  66.8225080  48.2601631  73.4004111
  66.1700254  46.9218544  73.3884125  58.1073900  80.0683864  70.0048365
  57.3013913  79.5589821  70.0045293  58.7959511  79.3732103  69.8091545
  65.9418358  70.3589027  57.6502199  65.0753592  70.7018888  57.4986972
  66.1442604  70.7572397  58.5358413  50.7674316  61.9870752  59.4913171
  50.1102596  62.6168650  59.0527970  50.0584986  61.4414851  59.9281204
  58.3498191  68.1199418  60.3511354  59.1713236  68.6417631  60.5263271
  57.8420693  68.3847937  61.1636968  56.5658357  50.0636107  68.5520375
  56.1455676  50.9063216  68.4845499  57.3665703  50.2142094  67.9750233
  59.0068444  46.1947265  71.0769723  59.5451754  45.9596338  71.8585094
  58.6649758  45.3868802  70.7238476  63.1097343  62.2100602  71.2461796
  64.0077478  62.2223063  71.6550664  63.0353340  63.1253732  70.9740756
  56.9246694  59.3072549  62.0758565  57.7276719  59.8481930  62.0635493
  57.1338086  58.7668163  62.9011540  53.6944131  49.3819398  67.5668435
  53.2275356  48.6956803  68.0776760  53.7747895  50.0661114  68.2124906
  63.8694691  71.2163174  76.1396884  64.0421896  72.1356088  76.2851343
  62.9054585  71.1554252  76.3316359  53.5021651  49.1438689  64.8972305
  53.6302503  49.1170994  65.8623391  54.4502274  49.1848245  64.5813030
  73.5340785  53.9999622  63.9612043  73.7639689  54.7892568  63.4542423
  72.7743164  54.3416899  64.4683710  72.7437033  53.6160419  60.5429322
  73.2835308  53.9578328  61.2977873  72.1824925  52.9425124  61.0066911
  60.7227884  36.6023275  65.0356320  61.5460234  36.1627254  64.7435314
  60.6778760  37.4580193  64.6063105  67.7123105  50.3566137  61.5746683
  68.5677095  49.9969998  61.2136395  67.8881290  51.3204246  61.5259724
  56.9105227  39.4930101  67.3842336  57.8313717  39.8369879  67.3945145
  56.4370880  40.3241638  67.6344128  67.9367262  58.7161629  57.3144410
  68.0300178  59.6160015  57.2065154  68.8756161  58.3346938  57.3036462
  55.7810214  49.1551942  63.6809465  55.7363939  48.9732486  62.6920411
  56.0849910  48.2617123  63.9540651  63.4931644  36.1372634  71.2276816
  63.2622281  36.7849019  71.9450096  62.5600903  35.9231079  71.0205425
  76.9202333  54.4930365  71.8485738  76.6305589  55.3501526  71.4118725
  77.8969416  54.5576776  71.6462527  67.9163042  57.1955477  67.0582613
  67.0581194  56.7853799  66.9100909  67.5843721  57.8602458  67.7416978
  56.4334058  50.5276168  88.8933292  56.3185974  50.2772049  87.9738988
  55.5347017  50.3474584  89.2474922  67.0390850  44.6952254  58.7680775
  67.5601165  45.1760799  59.4377631  67.7299101  44.4259684  58.0631772
  70.9111157  39.6741824  64.0076032  71.5755758  39.1273636  63.5651472
  71.2739714  40.5814360  63.8676228  68.2463630  56.3026032  72.0218848
  68.3957609  55.5183975  72.5555025  69.1416828  56.4550384  71.6562916
  67.0781438  69.3181696  48.4859494  66.6810799  69.2311955  49.3585337
  66.3659143  69.0773738  47.8761088  56.0613744  64.4045486  77.6976696
  56.3436780  65.2920107  77.9279344  55.5304554  64.2065136  78.5991991
  74.3404043  58.9880920  60.2287025  73.8227940  59.0929046  59.4014920
  73.5847487  59.0971969  60.8290377  77.4366883  56.8919286  74.5874353
  77.9879985  56.4259149  75.2502675  77.8974878  56.6243176  73.7380243
  50.9841898  75.5825978  59.2706229  51.0105755  76.3314234  58.6036300
  51.8627383  75.6486004  59.6592684  52.4252123  69.7566431  65.7570011
  52.7560696  69.2762211  66.5311776  51.4964166  69.9060026  66.0866247
  51.6022839  51.4389020  59.7493696  51.2393934  50.5686515  60.0197451
  52.4289718  51.4363307  60.2028615  62.5903501  58.2999121  56.2063311
  63.3545585  58.1424684  55.5933685  62.0029668  58.8796935  55.6563515
  52.0933730  60.8282871  73.2986644  51.5294030  61.5585502  73.6938756
  52.7723482  61.3961415  72.8698952  71.5095269  58.3024113  73.5230110
  71.9369553  58.8311146  72.8182453  70.5831408  58.3484644  73.2925823
  58.0551730  63.2351098  63.8447221  58.0835614  63.6681884  62.9111249
  58.4557847  62.3595887  63.5656603  62.7778646  47.6004984  70.8184908
  62.2489991  47.3592590  70.0446471  63.1462165  48.4662961  70.4670570
  65.4496124  49.2689549  57.4502893  65.4050829  48.7540510  58.2972867
  64.5634524  49.6781754  57.4831999  69.4070002  51.6031089  64.3842277
  69.5281289  50.6677230  64.5439772  68.7487852  51.8316895  65.1121921
  65.4922453  56.8751463  56.0919595  65.1268674  56.5710464  55.2299777
  66.1953982  57.4382701  55.7782507  72.9862703  47.3438244  72.3776760
  73.4998492  46.6809480  72.8953902  72.2670509  46.7896343  72.0686994
  59.6876260  51.0249109  73.8210883  59.9574607  50.2221856  74.3196265
  58.9445119  50.5517350  73.3020210  71.8419787  66.8853564  57.0313664
  71.3297597  67.0986089  57.8705997  72.7693458  67.0345273  57.3610487
  73.5747438  50.0588422  54.2932858  73.3379524  50.9613577  53.8956222
  74.2186528  50.3243005  55.0043947  65.6787608  39.4124146  74.4408423
  66.3801052  38.8189815  74.7701647  66.0611632  39.5347525  73.5271557
  76.6370218  45.9288944  60.0671348  76.2815220  46.6335518  60.6793715
  76.2230372  46.1911574  59.2213810  79.4832470  53.2911754  71.7556215
  79.1539130  52.3857122  71.9558873  79.5575175  53.5880813  72.7244393
  77.3782042  66.1600843  63.6190694  77.1246975  67.0825374  63.3992829
  76.8874492  66.0433007  64.4808464  62.0291961  55.2718648  69.2914323
  62.9658395  55.5706127  69.4190748  62.0223577  54.8884425  68.4143774
  49.9544475  54.9789475  71.0521612  49.3013281  54.3483669  71.5679850
  50.1499160  55.6168148  71.7514516  69.5926026  41.4908950  60.1889439
  69.3874310  42.0242220  60.9516949  70.4494862  41.8625589  59.8499350
  64.0158609  38.1106837  64.6838579  63.9369932  38.0970371  65.6545659
  64.9654818  38.4822305  64.6691231  58.2136924  47.9469160  54.0912290
  57.7200114  47.2622857  54.5981294  58.7140989  47.3109770  53.4626512
  49.6833955  61.0991916  64.0280892  50.1205522  60.2470576  64.1794076
  48.7956786  60.8089338  63.8073059  59.1352581  47.5529983  63.9952985
  60.0593097  47.7301382  63.7975047  59.0925761  47.6654663  64.9325668
  74.5235829  52.5765385  71.3416707  75.2826497  52.9066616  70.7755069
  74.2015302  53.3860640  71.7143401  62.2745098  57.4489842  74.8977687
  62.4469299  56.7511697  74.2689315  63.0143879  58.0410958  74.7848161
  62.9754333  57.5943047  59.0278725  62.0555126  57.3083219  59.3303694
  62.6423246  58.1081279  58.1981593  69.2092752  53.8143046  62.2576194
  68.6346545  53.8515860  63.0315953  68.6026320  53.9864855  61.5208789
  77.4317834  54.7123819  63.6638968  77.2514312  53.7856151  63.3292758
  76.6919521  54.8194983  64.3202389  77.3357917  43.9250061  58.3320825
  78.1964720  43.5334641  58.6499956  77.1840431  44.5285008  59.0858889
  84.8639488  37.1927170  60.8966532  84.6246033  36.6635889  61.6766416
  84.1684823  37.8426661  60.8922861  59.9568762  59.1658000  70.6015321
  60.6642115  59.6105154  71.1678172  60.5968671  59.1269910  69.7313139
  77.1823469  62.9603756  59.5231700  76.8782668  63.6191146  60.1623244
  77.1319557  62.1104088  60.0841608  59.1497834  52.9264705  67.7128673
  58.6053385  53.7173243  67.4140663  60.0276795  53.1970450  67.3768096
  67.6406133  45.2689201  65.4747919  67.9612032  45.1083327  66.4147426
  67.3092828  44.3465671  65.2734532  77.9457071  44.6124104  63.6432798
  77.0443352  44.9666329  63.6973786  78.3768461  45.3010122  63.0236077
  60.7079567  60.1695014  55.3890640  60.5659276  61.0099518  54.9862685
  60.7757858  60.4064502  56.3089681  78.3333003  54.3480197  56.7437523
  79.0050467  54.2699444  57.4233893  78.3757051  55.3381174  56.5635387
  67.1223932  59.9893683  60.4011020  66.6164386  59.7754497  59.5595126
  67.5978651  59.1842608  60.5519055  52.6782735  56.5204823  73.6951608
  51.7027913  56.3879414  73.4457665  52.7410900  55.5877336  74.0667678
  66.8535522  50.8615627  54.2924072  67.1913770  50.1000581  53.7539368
  65.8613154  50.6918540  54.2156547  58.9397132  72.7123411  50.1238750
  58.7265345  72.6714794  49.1334045  58.1155335  73.2480293  50.3650802
  63.7387564  47.8906037  62.6601992  63.0907689  47.6506724  61.9484335
  64.0529737  48.7678416  62.4037617  56.0096027  52.7903220  75.2010501
  56.0347442  51.8091606  75.2763522  56.8107795  53.0124718  74.7504405
  63.3603916  67.3538395  45.3442880  63.3781724  66.6115550  44.7330438
  62.5251646  67.1828840  45.8497520  62.9650948  64.1171846  53.1111387
  62.6794351  64.3041866  52.1679921  62.5637073  64.9238366  53.5296609
  83.8946050  80.8345913  61.5948867  84.1104632  81.8112398  61.5941919
  83.3290532  80.8248272  62.4600674  72.3550836  64.5452927  61.4145828
  72.8796388  64.5614230  62.2824719  73.1105715  64.8928692  60.8506410
  66.4813631  66.2204101  63.0444051  67.2638084  66.7881861  62.9045086
  65.8248843  66.8634543  62.7417460  74.7160440  61.1159607  70.5350665
  75.6690145  60.9648087  70.7799517  74.8398216  61.5331214  69.6641749
  85.7504338  76.5341998  71.1308472  86.3328061  76.8209568  71.8776491
  86.4246440  76.2541098  70.4972953  61.8876241  66.4397076  53.9523210
  61.0666803  66.5555256  53.3910296  61.4420478  66.0408880  54.7440941
  67.8040819  71.8744869  63.1853543  67.0977171  72.5420372  63.1348568
  67.7078573  71.6751136  64.1560318  73.7675144  67.3039952  63.7043084
  73.7113917  66.2925825  63.7792636  73.5028084  67.4800711  64.6380377
  79.0217587  65.1578640  58.7102708  78.6266884  65.1932373  57.7888993
  78.3761840  64.4616452  59.0777620  56.4861606  55.3420011  64.3270448
  56.2516622  54.4243867  64.6072714  55.7943845  55.8393086  64.8127890
  70.1343620  63.5941369  66.5134236  69.2408635  63.2547313  66.5545062
  70.0727881  64.3013639  65.8334445  77.0101456  61.1181110  61.4475601
  77.8760501  61.2773911  61.8790950  76.8875227  60.1505542  61.5567260
  72.1085747  61.9551594  65.8557303  72.6367725  62.0125438  66.7238253
  71.4057590  62.5921498  66.0882801  72.6145026  58.2805306  64.9006210
  71.6968334  58.1887364  65.1760690  73.0383991  58.5907616  65.7265431
  73.9256452  70.9387900  66.3857547  74.0446381  71.8924374  66.3533849
  74.2035382  70.7585124  67.3735660  67.5090329  61.5525512  66.6888426
  68.2823791  61.1137363  66.2390871  67.2721680  60.8898592  67.3490579
  67.3782893  74.4679505  55.8350066  67.7738910  74.2534632  54.9302774
  67.2840909  75.4345177  55.7708763  56.8943940  52.8167659  59.3568413
  57.2225564  52.2767636  58.5612125  56.8881660  53.6560595  58.9455020
  68.7728975  43.1342503  62.1209167  68.5370803  42.5474896  62.8337483
  67.8502198  43.3603652  61.7714792  68.1329949  61.9121958  52.1842804
  68.6053271  62.6058980  52.6864582  67.2598982  62.2402336  52.0799020
  81.7491792  57.6864764  61.5260509  81.8285763  57.8916108  60.5234420
  82.6153122  58.0861746  61.7959165  77.9768340  57.7549290  52.0985050
  77.7857805  56.8222881  52.0384410  78.8064310  57.7338866  52.6782434
  29.0265672  -7.4574939  49.9498451  29.9689573  -7.5558321  50.3383195
  28.5268498  -7.4187631  50.8130802  40.2155204  -4.3992531  52.4289346
  40.7743043  -5.1241919  52.0968866  40.9026421  -4.0287865  53.0713522
  34.7602782  -7.7331103  61.6122242  34.0979867  -7.0175190  61.8667238
  35.2565373  -7.7125932  62.4570315  41.4377988  -8.3330237  46.1564225
  42.1720867  -7.8278935  45.6459198  40.8671335  -7.5778276  46.2328393
  37.2908395  -3.0099415  48.7644260  37.0164578  -2.3107876  48.1022418
  37.8914793  -2.4774916  49.3120213  41.1663245  -1.0970642  39.0911252
  40.4411652  -1.7128226  38.8205055  40.6859465  -0.2409711  38.9321520
  43.6816231   4.0500832  48.9748477  43.0364080   3.9178651  49.7076569
  43.5547381   3.2223038  48.4686648  41.7400528 -11.8885430  52.4931149
  42.6779931 -11.9797336  52.3902749  41.4436057 -12.6701622  52.8829691
  31.5336003 -15.7984210  58.3553658  31.9257618 -15.2405431  57.5600353
  32.3966294 -15.8426405  58.8054251  33.3257795  -9.9666218  62.7407885
  33.7941402  -9.3824689  62.1692771  32.5275960 -10.1558922  62.3241368
  26.1785478   4.2450321  56.0446730  26.5986782   5.0080696  55.5916369
  26.8571688   3.5543249  55.8766950  34.1013731  -4.9687334  52.8768626
  34.5637050  -4.3748001  52.2961847  33.6523270  -4.3060068  53.4408942
  42.6277673 -10.2742668  58.6990251  41.7051098 -10.0188524  58.8872440
  42.5027745 -10.7461205  57.8546260  31.2701289   2.7619863  59.8923064
  30.9046586   3.4249173  60.5370830  31.8192358   3.3353661  59.2637206
  44.1363211  -0.6388043  43.9658701  43.2855768  -0.3539712  43.5211098
  44.5057088  -1.1725243  43.2269167  42.3817961   7.1262955  57.6308000
  42.6331913   6.2943150  58.0754369  43.2654758   7.4257597  57.3533356
  39.4178050  -4.0036941  61.6639812  39.1028515  -4.7930719  61.1920981
  38.5885410  -3.6173861  61.9399119  33.6889680  -8.6604941  56.3043855
  34.2688833  -8.2768905  55.6634616  32.9707807  -9.0198429  55.7207250
  47.4011650  -0.7949697  59.8195525  46.4565136  -0.6242995  59.7297353
  47.7172322  -0.2837738  59.0133542  23.8384672  -7.0008559  42.5180952
  23.1426896  -7.6446237  42.5656536  24.6369408  -7.5854691  42.5086053
  38.9467781  -3.6589265  64.8638562  39.7961714  -3.6778771  64.4210112
  38.3277249  -3.8492126  64.2068990  42.1489936  -7.0801473  38.3047546
  41.4911054  -7.2823132  37.5653431  42.1757326  -6.1281854  38.1590501
  10.4122226  -6.1644356  64.7555099  10.3306329  -6.0855155  65.7767014
  10.9285282  -5.3636723  64.6064082  42.6865892   2.3981234  63.7970004
  43.2818080   2.2069834  64.5320048  41.8858670   2.0475663  64.0917878
  44.4168126  -9.3167396  51.2454354  44.4248833  -9.1222997  52.2479702
  45.3773721  -9.4107467  51.1535897  35.3520921   7.2228539  62.1692898
  34.9087798   7.5723757  63.0017020  35.3335348   8.0959852  61.6747617
  53.4001776  10.3802435  53.5007996  53.6974891  10.3682505  54.3876374
  53.9055073   9.6144896  53.0943226  63.3495710   7.8625518  48.9388005
  64.1017342   8.3531271  49.3305131  63.8136446   6.9922772  48.7708279
  49.2648977  11.3484988  61.8586875  48.4245315  11.8340345  61.7977189
  49.5769385  11.5138235  62.7214114  28.8033551   6.9468121  49.5695466
  29.7153013   6.5034558  49.6363815  28.8976729   7.6304382  50.3086939
  41.4595081  12.9906444  48.7670914  41.4088451  13.1366515  47.7907864
  40.5842359  12.6980333  48.9902624  38.9379362  13.1464945  39.6621703
  38.4425676  13.7810557  40.1764894  38.4775722  12.3469406  39.7986027
  40.4325300  20.3361932  46.5455625  40.4536831  19.3426218  46.4424295
  40.2706428  20.3851031  47.4895313  39.3743541  14.8884975  53.9159161
  38.6461614  14.3051511  54.3468648  40.1519349  14.4045930  54.3242116
  54.6325006  -0.7243745  52.6487132  54.4018203  -1.4489390  51.9935096
  53.7651315  -0.4831310  52.9974408  47.3830827   0.7081248  48.0164508
  48.1423218   0.1452279  47.9420639  46.6578857   0.0316339  48.0857287
  51.9221480  13.0362141  49.9881129  52.5850529  13.7261045  49.8353346
  52.1922634  12.7469464  50.8922918  44.2499746  14.6292364  42.8438116
  45.1769778  14.6036038  42.4282828  43.8036519  14.9345266  42.0295812
  43.2626031   1.7613586  47.9841011  43.8843677   1.4150197  47.2731099
  42.4645493   1.2256570  47.8707480  38.1158432   0.5514659  50.9996696
  38.3337003  -0.2079662  50.4793654  37.1753985   0.4048252  51.1339451
  46.3592663   0.2307862  51.8925272  46.8987449   0.9105584  51.4013111
  45.6640062   0.0531336  51.3053620  63.3404066  14.8787063  55.2444984
  63.0084110  14.5967823  54.3556270  63.8111559  14.0734811  55.4683890
  44.2117734   0.2152434  50.0180813  44.6260954  -0.4493546  49.4733683
  43.7889248   0.7938747  49.2937023  43.1755190   9.1833508  50.2562038
  44.0786151   8.8581124  50.4384128  42.9985443   9.5964235  51.1246717
  40.0104610   7.5959866  49.8398796  40.8118924   7.4845643  49.3394913
  39.8784570   8.5248756  49.8277799  29.4575284  21.1995273  45.8034036
  28.7041476  21.3481414  46.3879718  29.4690911  22.0532547  45.2972784
  50.9011983  13.8606974  55.8312495  50.7628345  13.1633392  56.5157414
  50.3360577  13.4804974  55.1038504  44.2180542   9.9266774  46.1393888
  44.5142768   9.2209601  45.5536581  43.3542196   9.6108705  46.5035949
  46.0653395   0.9110094  57.8234002  45.6729475   1.6027113  57.2859187
  45.2372796   0.4554279  58.1217886  45.1525255  14.9841158  53.2627229
  46.0770347  14.7612435  53.0019132  44.7951913  15.4203630  52.5167524
  52.7550209   5.4116666  53.6199490  52.9364985   5.5810748  54.5682358
  53.5406951   5.7263147  53.1883807  42.3968519   4.8365183  54.2052002
  41.8966114   5.6289484  54.4787579  43.2933907   4.9707648  54.5840680
  50.5579014   3.3108330  49.8675610  50.9060705   2.6160020  49.2935205
  51.4731030   3.8096709  50.0284863  53.7523986  13.7856272  58.7513570
  52.9483739  13.3081439  59.1474274  53.6255471  14.6888173  59.1322052
  48.7508985   9.3468005  47.7312717  49.4673792   9.5904150  48.3421325
  48.9682463   8.4382419  47.4946849  40.6803257   4.9623664  46.3887493
  40.9990850   4.1076973  45.9984751  40.7195259   4.7991721  47.3084304
  39.0175142   3.7783078  43.5701273  39.4624915   4.4298880  42.9474060
  38.1261067   3.7497695  43.2037014  39.0176806 -15.3495724  54.5381402
  38.7023557 -14.3973475  54.4807192  38.4615130 -15.7607111  53.8504474
  29.7405608  -9.1614937  41.0536713  29.9738029  -9.6031623  41.8891105
  30.6352046  -9.0293999  40.6735704  45.6300699   5.9469040  67.6929256
  46.3083058   6.4148000  67.1134417  44.8067952   6.3572359  67.3256083
  47.7581596  11.8113338  46.7301349  47.8726133  12.4417935  47.4404526
  48.3640256  11.0932132  47.0294586  42.5204173   6.4297045  48.7613401
  43.2322423   6.9850109  48.4001965  43.0584362   5.5666820  48.7390420
  29.1155404   6.5874950  56.8411226  28.2346567   7.0039701  56.8995325
  29.3913507   6.3777748  57.7011765  63.6283801   5.4254768  42.5174098
  64.4926211   5.4531541  42.0982402  63.1443018   4.9645365  41.8226018
  47.5663760   4.0246390  57.1260265  46.8185446   3.4892097  56.7488231
  47.0856187   4.8169826  57.3760796  37.6382390  15.5085891  44.6509869
  37.0553161  15.7960913  45.3703784  37.7222683  14.5106428  44.8828771
  44.2536027  10.7402424  56.4996238  44.5018405  11.6886188  56.3547669
  43.2501973  10.9027515  56.5510102  42.4992366  -1.0792407  63.7146057
  42.2066854  -0.9048071  64.6278290  42.1506208  -1.9956893  63.6127679
  53.2738085  23.7837990  56.5975107  53.9065730  23.4903876  55.9530392
  53.8463989  24.2130517  57.1969694  44.8648924  17.0821586  56.5979027
  44.0894948  16.5026915  56.9745741  45.3968713  16.3029299  56.3159067
  48.7826981  17.9185849  50.8306528  48.6993716  17.2147260  50.1170867
  48.4281969  18.6828503  50.2793090  44.3202142  12.5530935  49.8054231
  43.4620135  12.3829523  49.3651385  44.6877757  11.7278413  49.8870947
  42.2685431   9.4275983  52.8330604  42.5413926  10.3095991  53.0731478
  41.3695031   9.5889805  52.5339336  46.0445601  -4.4870866  48.3111924
  46.9066682  -4.3323313  47.9635181  45.8380534  -5.4469891  48.1465877
  34.1777615  14.9147018  43.7957918  34.4456928  14.0081046  44.0741117
  33.5849440  14.7023451  43.0502477  44.7559426   5.2906202  55.5488743
  44.8824678   6.2782476  55.7358604  45.2955424   5.2630287  54.7010393
  27.9652571  12.5579682  51.6983651  27.3961134  13.0796125  52.2920935
  27.6195121  11.6595688  51.8372547  51.6675656   3.6397884  42.5779058
  51.6451696   4.3383097  41.9260393  51.0295416   2.9923052  42.0787681
  34.9379826  -7.2016480  54.4455157  35.3205430  -7.6625197  53.6971839
  34.4728825  -6.4927740  53.9098375  67.6267311   3.5734926  40.7880446
  67.8746727   2.9323241  40.0719323  66.9601483   3.0029871  41.3098225
  45.8651298   0.9250849  41.9057944  46.3224993   0.7763564  42.7621923
  45.4587687   1.8453082  42.0855020  47.9097759   4.2145897  43.9655091
  48.5270248   3.5219708  44.3645295  48.1568260   4.0593720  43.0227854
  62.0716269   1.8310161  44.6599221  62.0824209   1.2259948  45.4643033
  61.1696963   1.9074398  44.4648863  50.7804663   3.6466936  47.0835462
  51.2476860   4.0207708  46.2969966  51.4872207   2.9980415  47.4067102
  40.6419251   9.8552823  45.1194666  41.4763143   9.7438210  44.6458506
  40.9097142   9.5242672  45.9905629  45.5103236  15.0788662  49.7136527
  45.1307651  14.1518781  49.7195950  45.1373734  15.3696632  48.8532037
  55.5650133  11.8664342  57.8329747  55.0118001  12.5718643  58.2431386
  55.6112991  11.2870912  58.6396070  54.3058530   5.5434352  58.1945399
  54.0326690   6.3616088  58.6493686  53.6466394   4.9310079  58.5158594
  43.7008000  -1.8070954  52.1097424  43.7631016  -2.0830689  51.2126774
  43.0789779  -1.0748929  52.0626606  38.0559037   2.9234415  46.0441025
  38.3983068   3.1812012  45.1501373  37.7568918   2.0233160  45.7929565
  31.9488270  -3.7407162  54.1432496  32.0986216  -3.8911173  55.1042972
  31.3172992  -3.0097208  54.1405291  49.0060392  13.1744706  48.9439502
  49.7986407  13.1175175  49.5161411  48.3813797  12.5997488  49.4412079
  52.3657515  13.2007156  66.8568462  52.2437700  13.8454706  67.6103152
  52.0197567  12.4113948  67.2423320  52.1700406   8.1966327  46.4227293
  52.5823584   8.0138432  45.5527474  53.0180723   8.0442802  46.9500201
  35.0813375  11.3508428  44.6279916  35.9650990  11.7611298  44.5602444
  35.0319904  11.0832063  45.5691866  58.5012172  -7.2809001  51.7776445
  58.1920693  -7.9910980  51.1338608  58.9450269  -7.8857416  52.4142080
  37.4783602  11.8350370  52.2788835  37.3162585  12.6111857  52.8436083
  36.9146325  11.1445243  52.6512874  41.2340108  14.8682898  46.3590136
  40.8096668  14.7883236  45.4614348  42.1733851  14.5383239  46.1496044
  37.2150422   5.0814264  41.1564851  38.0061920   5.6401765  41.3578406
  36.6610525   5.3420995  41.9483747  40.3961821  -3.7770529  48.5047920
  41.1577016  -4.2262762  48.1427119  39.7075852  -4.4643143  48.3998720
  46.5321112  -7.1437464  41.8042475  46.8945512  -6.6386519  42.5098786
  45.6189113  -7.4011145  42.1351114  53.7851690   7.9054257  59.5781495
  52.9516212   8.1964162  59.1906651  54.4439524   8.2470991  58.9202759
  39.6872307   2.1165657  55.2000566  38.7300093   2.3412861  55.2255090
  39.6613253   1.3674919  54.6588175  49.4071762  -3.5558365  59.6261811
  49.1199275  -2.6821358  59.2744560  48.7167027  -4.1295262  59.2910925
  35.8747776   9.6890250  52.5177943  35.9952824   8.8910001  53.0490030
  34.9039395   9.7006488  52.3198709  46.2085126   4.3165473  53.3952438
  46.0873249   4.3429383  52.4195894  46.6446693   3.4438791  53.4758014
  50.3344079  -3.0791061  62.2942579  50.6416145  -2.2010175  62.0473652
  50.0101739  -3.4893208  61.4874743  55.3283342  -5.8539490  46.3571697
  56.0197168  -5.5731995  45.6941322  55.5909345  -6.7875832  46.5778306
  47.2395113   0.7819203  54.5966973  46.7919416   0.5547845  53.7648153
  46.4921330   0.7501300  55.2209282  52.3776880   3.9166826  59.0244731
  53.0282078   3.6053411  59.6891376  51.9698129   3.0923076  58.7397688
  50.4518018   0.4206510  58.0762744  49.7307878   1.0597324  58.2992203
  49.8582235  -0.2902017  57.6992172  36.3135899  11.5245796  49.7106620
  37.0126643  12.1227925  49.4334076  36.6024373  11.4743920  50.6844361
  28.3819443   0.9365568  45.4205551  28.2028612   1.8911661  45.2749474
  28.7653460   0.7698698  44.4843366  56.4507785  21.1639744  56.4918116
  56.7093707  20.5470754  55.7723334  55.4901728  20.9829507  56.5604576
  25.2206807   8.5272974  54.0468101  24.5186438   8.2551850  53.4267012
  24.7062820   8.9219748  54.7646828  48.6867826   2.2805238  58.9309477
  47.9165061   2.6857437  58.4926229  48.4832218   2.6294031  59.8338506
  35.2282637  16.7505222  53.7215134  35.9663484  16.5780886  53.1001226
  35.7338584  16.8075669  54.5754003  61.0487626   6.5640978  43.3080831
  61.1049938   6.8450663  44.2014949  61.9694275   6.3763062  43.0351711
  68.1080453   2.9054468  49.2575363  69.0915709   2.8882606  49.3737781
  68.0064598   1.9107955  49.0349160  53.6600457   7.6646370  62.2442241
  54.5656947   7.9203068  62.4677114  53.7783426   7.8439249  61.2241871
  50.9951395   6.8659659  50.1856708  51.3734154   7.7577066  50.3102959
  50.3272488   6.8950823  50.9655044  31.1026158   4.2402483  45.7786881
  31.9478261   3.7932622  45.5908319  31.3687018   5.1564488  45.9224071
  30.2219923   3.5225332  40.2459203  29.4644704   3.9994616  40.6812638
  30.8524814   3.4862874  41.0252566  33.1301804   9.7192002  52.5574661
  32.5292088   9.5290154  51.7953413  32.8182738  10.6146786  52.7788337
  50.0948577   6.6574962  47.2452645  50.8359178   7.2718502  47.2855332
  50.0559423   6.4906742  46.2897887  51.4016238  17.2912474  66.0185317
  51.3700077  18.2645665  66.2470265  50.9323715  16.8908485  66.7727628
  50.8692087  10.2208617  40.2277028  50.7810157  11.1347948  39.7976541
  50.5169961   9.6949968  39.4380633  25.7429016  14.5724779  39.2017715
  26.3373590  14.2841813  39.9251248  25.5927076  13.7515845  38.6844895
  39.4855852   4.9642583  70.2195059  39.7941462   5.5128758  69.4813916
  38.4975157   5.0933035  70.2510857  39.4004057  -2.9320177  57.2458909
  39.4031555  -2.8514715  56.2899846  38.9648173  -3.7866876  57.3683688
  36.9758586  22.3901315  48.0820498  36.9996954  21.6375521  47.4330615
  36.8875091  23.1605627  47.4782093  41.0862195  -7.1359432  64.3558349
  41.5949936  -6.5899376  63.7163420  40.2395165  -7.2012304  63.8964654
  45.4258641  17.7173864  50.4349355  45.5115461  16.7651088  50.2456415
  44.4851120  17.8807196  50.6126282  42.8822200  -6.9899724  60.2437999
  42.6586700  -6.8839244  59.3127226  43.8566126  -6.9616704  60.2242211
  49.9820525 -11.7905823  60.2634541  49.5933598 -12.6338841  60.5909196
  49.1861721 -11.2178638  60.3577983  49.3355746   6.3553125  60.9943509
  49.7394652   7.2157094  61.0005821  49.3360651   6.1144221  60.0577920
  30.5021450  16.3682285  55.1944524  31.2683598  16.8207482  54.8247743
  30.1184600  15.9189555  54.4058761  53.1520224  14.6698678  46.3853608
  53.0752634  14.8872462  45.4548519  52.2369244  14.9520139  46.6612961
  47.6035037  -5.1389385  58.0557880  48.0867700  -5.9707014  57.8981679
  47.7739253  -4.6692390  57.2695089  51.4842437  20.4604213  55.5801667
  50.7420302  20.3837611  56.1781572  51.1808126  20.7107079  54.7183599
  40.0320509 -11.7219075  47.6125765  40.5035746 -11.0636365  48.0319554
  40.2074762 -11.5893351  46.6515696  58.7428074   5.7264780  56.4960357
  58.7708331   5.9429365  57.4661251  57.7990740   5.7045861  56.3481107
  43.2144132 -10.2163439  32.3419942  42.3752686 -10.1736067  32.8873183
  42.9908300  -9.6832616  31.5604635  54.8088678  15.7036553  48.1143650
  55.5356177  15.5696241  47.4488746  54.0850980  15.3166435  47.4931757
  46.1307457   3.8558032  50.7173583  45.1940020   3.8542807  50.3290966
  46.6100078   4.1333499  49.8573745  44.8234731   8.0833245  55.3182887
  44.4857801   8.9359454  55.6823654  45.6858139   8.3467123  54.9202978
  37.1549979  10.7683265  59.8825108  36.8242959  11.6712922  59.6727405
  36.3922467  10.3758742  60.3115693  48.8369772   2.5872677  53.2672490
  48.2615868   1.8680339  53.7844667  48.6406087   2.3537604  52.3663072
  45.7555364   7.4676514  49.4446541  45.4398472   7.0326078  48.6392809
  45.9489570   8.3450914  49.0809580  49.6591163   4.1453372  62.7461791
  49.8112395   4.8927706  62.1098599  48.7925720   3.8225652  62.3354226
  48.0439862  14.3206698  53.9720639  48.8502075  13.8812503  53.5320889
  48.2365578  15.2691116  53.6820491  32.7132365   7.6834264  49.0018240
  33.6247524   8.0353326  48.9559954  32.2373477   8.4255537  49.4896991
  43.8532167  16.4164983  48.0294946  43.4854332  17.3106925  48.1200321
  43.5906019  16.1411917  47.1308687  29.5458210  18.7656449  54.4851181
  29.3404186  18.3159727  53.6155375  29.8625311  18.0402603  55.0217377
  45.7817406  10.2913979  48.2665492  46.5526517  10.3394930  47.7092314
  45.0673045  10.1881012  47.6297465  41.6771259  12.8923347  43.2179379
  42.5212308  12.5859940  42.7983291  41.6796165  13.7978569  42.9865456
  42.5866527 -12.5177121  68.5025621  42.7543912 -13.5024270  68.4474704
  43.2161430 -12.2799572  69.1576315  53.6394265  11.0277776  76.7540345
  53.3508615  11.9650893  76.8815390  52.8311663  10.5785301  77.1502469
  47.7247672   9.2986082  67.9830755  48.4553952   8.6916979  68.3759208
  47.4926577   8.6259965  67.2659742  47.3699267  11.7657640  55.0435053
  46.7612985  12.2486448  55.6971782  47.8100862  12.5782447  54.6890916
  50.8031638  -0.3165611  61.7691599  51.1212794   0.6099892  62.0666296
  51.2764920  -0.2552318  60.8866093  55.9589024   5.2448606  55.9308729
  55.5869207   4.4534935  55.4830963  55.3604853   5.2485927  56.6950949
  50.4744130   5.7552441  58.4212907  50.0978174   5.2759627  57.6308257
  51.2263579   5.0690155  58.6181714  61.7045985   4.8299268  50.5354891
  61.1033787   4.7714889  51.3574180  62.5481452   4.5563808  50.9625591
  56.0546742   0.5016544  62.1131949  56.1888985   1.2383478  61.5838591
  56.8834423  -0.0324815  61.9332370  51.2267703  -0.7163446  47.9917212
  50.3610921  -1.2054092  48.0840687  51.8359871  -1.4611458  48.2581825
  45.0099197   2.6756438  56.0909266  44.0828120   2.3780578  56.1781947
  44.8044539   3.5928619  55.7763647  69.0481011  11.5872845  47.8598907
  68.7169912  12.2450078  48.5102990  69.8233374  11.1583286  48.2996320
  36.9255973   0.5413332  45.1233971  36.6635670   0.2119186  44.2303597
  36.0228002   0.8391806  45.4384953  70.1194251   3.6586849  46.6637822
  69.7626503   4.4823693  46.2188121  69.5345784   2.9901542  46.2591368
  38.6722209   6.8296534  52.2706564  39.1847819   6.0490018  52.4894111
  39.0975555   7.0222053  51.3763855  52.0543365  -6.6753434  46.6154449
  52.8865250  -6.1963838  46.7528442  51.5156304  -6.5024199  47.3818822
  47.8234202   0.3305768  43.7934864  48.2930764   0.6559839  43.0120198
  48.1624654   1.0167919  44.4651575  49.9167782   9.9784845  53.9275891
  50.2118319   9.0632904  53.6450664  50.0817042   9.9444077  54.9077369
  40.7892986   6.0062768  76.3952218  41.6543135   6.0754993  75.9869444
  40.6047370   6.9817079  76.5860149  37.1714043  14.7679737  48.5171727
  37.5825191  15.6453763  48.7827877  36.2463496  14.9783364  48.8535200
  47.3293361   1.1391303  63.8561603  47.4982002   0.3075065  63.3854500
  48.1261105   1.2532355  64.3665055  38.0659776   4.1026449  58.4629844
  37.6118711   3.6726333  57.7212793  38.5321914   4.8124370  58.0685387
  39.0136816  10.1669375  54.7485196  39.5017286  10.0717695  55.5826635
  38.5139174   9.3571911  54.6591525  40.8094255   7.2057876  54.7080619
  40.4216987   8.0082404  55.0618766  41.3816711   7.6072949  54.0329902
  35.0667387  14.1335133  55.7789058  35.1462480  14.8001578  56.5099629
  34.1545311  13.9916248  55.6334780  48.4728803   9.7668105  41.6235185
  49.2397434  10.1194882  41.1157823  48.4489215  10.4413130  42.3751239
  54.8258225   3.0471823  54.7398953  55.3400008   3.1811940  53.9129309
  53.9661699   2.7507010  54.3572352  37.8255468  16.8144327  52.2132494
  38.4244145  16.1856528  52.6369865  38.4968797  17.4183150  51.7740985
  45.3229777  12.0164701  44.9134967  46.2230462  11.9963370  45.2242061
  44.9663487  11.1539089  45.2114629  48.6219646  11.6534147  43.6041319
  49.3661688  12.2784237  43.4997068  48.5019769  11.7470721  44.6070621
  41.5322107 -14.6921091  60.7528951  41.4162460 -14.5301904  59.8254982
  41.2961296 -13.7866275  61.0827501  49.2995651   1.4733065  66.1534562
  48.8766711   2.2413881  66.6480604  50.1593366   1.8658411  65.9719289
  42.4511557  18.8332274  48.4351057  41.6017185  18.4159075  48.1486493
  42.0589352  19.6042958  48.9415633  40.2110687  10.3785349  49.6920603
  40.2106836  10.5187226  50.6428902  39.5690948  11.0550536  49.4279963
  42.5155331   2.5475780  67.8327538  42.7816011   1.8621423  68.5375909
  42.8537869   3.3376396  68.2188330  56.6028075   8.9160645  47.6485087
  56.8903977   8.8395719  48.6056431  55.8323873   8.3393392  47.7335428
  61.7999976   2.2159170  56.1481089  62.0142883   3.0320515  56.7211844
  62.4376908   2.5131930  55.4083166  62.5387871  20.0826601  46.5273905
  62.2092864  19.3361593  47.0590814  61.7137441  20.4515525  46.1589802
  61.7321151  18.1170681  48.2638365  61.7190839  17.1739869  48.5322567
  61.8817459  18.5574594  49.1288136  68.6440460   7.3063315  48.6847504
  67.7598607   7.2679040  48.3220106  68.4931792   7.1485891  49.6783150
  57.3256624  14.5902488  60.1623401  57.1261468  13.6667413  60.5934849
  58.2604418  14.6875608  60.5196885  55.5816793  11.9017124  49.6154513
  55.2498113  12.1098092  48.7028722  55.3237110  12.6630219  50.0786865
  56.1877435  18.3208423  45.1134498  57.0307275  18.8246373  45.1960690
  56.4199944  17.5125872  45.6074064  48.2472795  20.2028039  49.7167726
  47.5651578  19.8844152  49.1385008  47.7449169  20.8798089  50.2584890
  60.7235813  10.6357285  57.3087395  60.6361659  11.5885293  57.1740409
  61.3716800  10.4070395  56.6428200  61.2081072  19.0958081  53.2314192
  61.6278972  19.4229018  54.0384507  60.7573048  18.3159506  53.5806208
  59.7266348  17.7943364  42.4490087  59.1124945  17.2525647  41.9146212
  60.0480122  18.4126424  41.7406971  55.4787279  12.1651057  55.1178991
  55.7971020  11.9379624  56.0078460  54.9715444  12.9894273  55.2722914
  61.3157053  10.2057088  52.9290331  61.8054324   9.3853777  52.9763139
  61.7398505  10.6119581  52.1843804  59.7873308  11.8598383  39.3666131
  58.8634689  11.9753832  39.4793963  60.1935605  11.8801081  40.2156753
  55.4925724  13.3362251  63.3803857  56.0529586  12.5881416  63.1285163
  55.2941406  13.1506556  64.3001575  62.5069743   9.5342923  42.9905778
  61.7177779   9.6206552  43.5630388  62.5527678  10.4233978  42.6035719
  54.9198613  21.6873305  61.4846847  55.2920161  20.8257670  61.7229474
  54.4871273  22.0059682  62.2687447  53.1528115  17.4466513  44.6133082
  52.8039152  18.3618163  44.7167169  53.8909889  17.4241237  45.1966435
  50.7068963  21.3885013  49.2479087  49.7707736  21.0937537  49.5065923
  50.6117166  22.3544041  49.4287314  46.3461335  17.4767931  61.0405609
  46.6261986  18.1546364  60.3677296  45.8044313  16.9058224  60.5077932
  34.5998763  18.6434122  51.4127068  34.9941604  18.5882752  52.3223198
  34.7012021  19.6632681  51.3086987  80.3468634  24.4302755  54.6980892
  80.7215772  25.3134919  54.5252239  79.9792931  24.1549216  53.8250680
  57.2033850  18.7651876  68.3482219  56.6053721  18.0313436  68.4843282
  57.9985240  18.2891768  67.9904499  55.7112781  12.1943686  65.8867207
  55.8285724  11.5828154  66.6726415  55.7303972  13.0372433  66.3974722
  56.5292236  16.6651138  53.1286609  57.1083008  16.0084797  52.7867191
  56.6643370  16.5812020  54.0760224  65.3418913  23.9408106  67.5553607
  65.1036697  24.8679712  67.3665192  65.4520769  24.0078970  68.5344334
  66.7214412  25.2089867  62.6836632  67.1424084  24.3166757  62.6474124
  66.5208299  25.2483889  63.6244610  63.9860342   4.0173621  63.3246784
  63.3865117   3.8542305  62.5865736  63.8118525   3.2321671  63.8482178
  60.0720793  21.1885393  45.2631859  59.5203823  21.7146600  44.6777442
  59.6626496  20.2759783  45.1897876  51.9728016   9.3544986  51.1898220
  52.9688651   9.4498737  51.0680181  51.9871888   9.7470399  52.1210826
  54.8121011  10.5737823  61.1205459  53.9943771  10.6468264  61.6300234
  55.0828037   9.6428198  61.2742914  49.9732033  12.8733870  53.5099706
  50.9380139  12.7963715  53.2939095  49.7959051  11.8950232  53.5429060
  59.6187374  13.3383147  47.0560580  59.8481229  13.6628016  46.1490458
  58.7987611  12.9019742  46.9006169  53.5668675  16.4658223  51.5891491
  54.0180332  17.0292520  52.2569418  52.6729656  16.4127783  51.9959901
  59.0438566  25.1577228  54.5484938  59.5078714  25.8917869  55.0584938
  59.1053417  24.4124431  55.1696358  52.8961864   4.4706679  50.5455218
  52.8332353   4.0933855  51.4741358  52.6935813   5.4088818  50.6938808
  62.9218074  19.6617535  55.6413645  63.6536070  19.9341479  56.1741227
  63.3277936  18.8016461  55.2431217  58.7946255  21.5428764  49.4046923
  58.1496096  21.2797823  50.0778700  58.9156998  20.6913668  48.9395726
  62.9004008   9.8578296  55.5553598  62.7223667   9.6377306  54.6611394
  63.6656157   9.3335039  55.7891674  50.3264661  11.9635683  58.0666307
  49.5202797  12.4107807  58.3876268  50.9543165  12.1035329  58.8323558
  50.9721377  15.7276405  47.4429348  51.0363700  16.6792489  47.3180248
  50.4612566  15.5785425  48.2693549  51.6284741  18.7719813  48.1645889
  51.1819629  19.4417551  48.6985440  50.9592960  18.6806868  47.4158658
  49.8851946  23.7921070  50.0738919  49.2326278  23.5128311  50.8061811
  49.5459835  24.7589651  49.9726383  54.8035088  12.5847270  46.7751284
  54.1510016  13.2738449  46.6644549  54.3189626  11.8496987  46.2965745
  46.5639470  22.4925417  59.1378188  47.3893521  22.8645343  59.4817543
  46.5032962  22.9023565  58.2304095  50.7243947  10.6602206  49.1306850
  51.0777835  10.2273882  49.9215573  51.1749095  11.5109635  49.2028654
  43.9944776  13.4236297  55.0069563  44.6777784  13.3391980  55.6898939
  44.5679136  13.9745309  54.3139651  49.2547433  20.5899226  57.3045669
  49.3921523  21.5396244  57.2339623  48.3739496  20.5279930  56.8536262
  62.5636354   4.3422303  57.5400081  62.2411724   5.2069691  57.9425557
  63.3849477   4.7385048  57.1106867  54.8974425   8.2020327  54.3235378
  54.4410413   7.6971636  55.0553052  55.0301200   7.4700024  53.7046138
  57.4571593  15.6907155  64.4943117  56.7351732  15.4076792  65.1823943
  57.6409088  14.7961220  64.1628148  51.0337091  24.1036234  55.1199913
  51.7672086  24.1322518  55.7860561  50.4231126  23.4859609  55.5944258
  70.5420882  15.1709327  59.5337935  71.3391549  14.5887249  59.4251231
  70.6390373  15.7133744  58.7332571  53.3728480  15.1745126  63.0311790
  52.7033636  14.5421459  62.8055631  54.1695528  14.6199720  63.1082967
  60.0888290  30.9797402  60.8851123  59.3527154  30.3240738  60.7532694
  60.4187008  31.0036944  59.9866736  47.7964405   7.3216795  55.7758267
  48.3182384   6.6663228  55.2965504  47.9165556   8.1437080  55.2601213
  39.6733285  14.7828277  51.2339097  40.0350614  14.8345015  52.1163022
  40.3006509  15.2790279  50.7308012  48.2213246  15.7835425  49.3646641
  48.3916794  14.8451330  49.0685851  47.2483876  15.5822791  49.6947719
  60.5552006  13.9504024  51.3975898  59.5306505  13.9678162  51.4262910
  60.5962946  13.6356094  50.4514627  59.9188360  16.6029709  51.2050274
  59.5511232  16.3168031  50.3453502  60.5248185  15.9185478  51.4536285
  48.8991487  15.5772957  59.5885180  49.3038500  15.4114187  60.4438555
  48.3797233  14.7650544  59.5373109  53.5567918  17.6983213  55.3777153
  54.0033629  17.3566440  56.1544865  52.6549522  17.3430573  55.5409142
  43.9385683  12.8582500  58.9701423  42.9653876  12.6820271  58.8620085
  44.1359358  12.2836314  59.7494366  57.3827961  24.6081370  60.5634513
  57.0363347  24.0511281  59.8536622  57.3500253  23.9941513  61.3226041
  52.6456664  14.9382057  43.8643151  52.7228929  15.9141888  43.9720396
  51.6691268  14.9036821  43.6836280  44.9913258  13.4971958  63.2464528
  45.0958080  13.1967326  64.1470220  44.8254362  14.4428239  63.3227312
  52.3495860  20.1905643  44.6345219  51.9690157  20.5512731  45.4690884
  51.6735100  20.5309481  43.9815589  42.2788809   4.2817665  51.5586130
  42.4616189   5.2427652  51.4722102  42.4679767   4.2466864  52.5404192
  53.1321238  17.8285338  62.3531300  52.3845710  17.8236947  61.6979885
  53.1914344  16.8631400  62.4659506  55.4690446   3.5055238  49.4663688
  55.3457391   2.9826969  48.6586872  54.7129470   4.0536520  49.5758498
  59.2081773  18.5855112  44.9354110  59.3307615  18.3585285  43.9693453
  59.7271299  17.8282295  45.3064161  42.9667433  20.2648384  50.6914871
  42.0208591  20.5011283  50.8710975  42.8761299  19.2756767  50.8691459
  62.4831043  19.0568140  50.8072848  62.0173044  18.9873361  51.6396398
  63.2544812  19.6341898  51.1192755  49.6736502  21.4805546  53.7012582
  49.4235440  22.2951699  53.2869554  50.1129057  20.9501414  53.0330937
  56.1360984   9.5797740  44.2657494  56.3888706   9.5408419  43.3337236
  56.9569592   9.3034104  44.7300512  55.6386792   8.7714067  57.6004574
  56.3606054   8.3109180  57.1646655  55.8529461   9.7033729  57.2494014
  41.6395212  22.3251017  64.0815047  42.2858417  21.5467294  64.1520893
  41.9261812  22.6770776  63.1873788  53.6210458  10.5939923  65.0286081
  54.2806526  11.2478698  65.2460997  53.1132188  10.4891873  65.8599366
  70.7223941  16.4012653  57.1781830  71.6836143  16.5923441  57.3311012
  70.7511919  16.5234720  56.1676123  74.4539174  10.4931692  58.4935684
  75.1128007  11.0094404  57.9937804  73.7094451  10.4742490  57.8369879
  64.0235139  16.5911381  61.6912795  63.7778162  17.4238009  62.1433634
  64.9792883  16.7742953  61.5541421  55.0010959  17.0464911  57.5234322
  54.1553151  16.7506277  57.9382522  55.4429982  17.4601454  58.2577590
  70.8817680  21.0442159  59.3655447  70.3364009  20.2484344  59.6409453
  71.7645348  20.7675171  59.7321912  57.7830549  20.6854301  62.5353541
  58.4716557  20.2779473  61.8968422  57.0892146  19.9600720  62.4853093
  48.7439958   8.9987588  50.7911633  47.9726960   9.3233031  50.3386016
  49.1022201   9.8203308  51.1884371  65.8688635  17.2644739  52.5806735
  65.8653235  17.9731496  51.9042071  66.8070106  17.3335301  52.8790891
  57.5967933  10.1744075  50.1635872  57.1153226  10.9525227  49.8577218
  57.8302116  10.4060474  51.0739716  53.4764506  14.1983118  56.0576971
  52.5172853  14.2108464  55.9841161  53.6683523  14.3791377  56.9569118
  58.5154908  13.6469207  42.3729843  57.7878994  13.2309039  41.7925196
  58.4117792  14.5491759  41.9437966  72.3268826  20.3832253  56.7908303
  72.9462333  21.1242917  57.0390607  71.6093215  20.5097022  57.4531475
  65.3892637  14.5874562  51.6576195  65.6341551  15.4766152  52.0178459
  64.4515963  14.5244470  51.9242813  69.5203093  14.7025540  61.9006477
  70.0995581  13.9993451  62.2785388  69.9368321  14.8627442  61.0503793
  60.0620791   6.9539486  49.4594796  59.6924904   6.4867647  48.7105780
  60.8792762   6.3967159  49.6405985  42.0130908  19.9159226  67.8655111
  41.6975088  19.4144060  67.0519633  41.3258845  19.4514452  68.4855416
  47.5774871  13.0052876  58.9725375  47.1518018  12.8049947  59.8677008
  47.2329845  12.1781629  58.5018519  59.8346117   8.6088032  41.7915374
  60.3035564   7.8744126  42.1591943  60.2327384   9.3722252  42.2483154
  51.1145883  17.9378117  60.6226687  50.1672970  17.9394732  61.0971936
  51.0772975  18.9361551  60.5295901  64.9188134  11.2697358  52.0795574
  64.8134732  10.4648611  52.7069741  64.0104606  11.1915026  51.6203768
  57.2255075  17.1969341  48.3588169  57.1179178  17.4614945  49.2946030
  56.3856470  16.7297377  48.2191491  59.7950667  14.7900578  61.7389295
  60.5965655  14.9175855  61.2485095  59.9393041  15.3442083  62.5226613
  46.2644982  19.8608064  52.2360057  46.0677571  19.3152583  51.4712860
  46.4896139  20.7049612  51.7583495  48.0771295  19.4717594  54.3891480
  48.7900922  20.1576737  54.3108412  47.5764180  19.8053247  53.5479269
  59.4870536  15.7652103  48.6899004  58.7400932  16.2782245  48.2390606
  59.6393817  15.0705915  48.1058199  64.4743405  15.2774241  45.6618898
  63.5784444  15.4552827  45.2708454  64.4258017  14.2781640  45.6274175
  66.8653769  12.6480984  49.7048759  66.6110538  13.2207827  48.9562980
  66.4036291  11.8152072  49.4875243  58.5856204  18.6751100  52.4578615
  58.8984351  17.7784134  52.1734252  59.4092702  19.1764856  52.5273178
  72.5971609  13.1589901  50.6163061  72.1581171  13.7189512  49.9383610
  72.8779619  13.8706861  51.2693492  72.2898922  22.2626308  47.8787623
  72.3976402  21.5471409  48.5097401  71.9277016  22.9662472  48.4456591
  45.6281217  18.5159382  64.0922578  46.1567743  19.3061672  64.0767725
  45.4645049  18.3315163  63.1447249  49.4173332   8.5655214  65.2268616
  50.1877431   8.4320290  64.6374119  49.8963162   8.7812361  66.0629514
  56.9481722  12.9337256  52.8142595  56.2569323  12.6079866  53.4903392
  57.5956024  12.2181016  53.0234115  56.4171255   6.8342146  50.0594784
  57.0389981   7.3964722  50.5931356  56.8384646   5.9705827  50.2290602
  57.4792162  14.3717720  57.5301912  57.3019397  14.6036060  58.4584649
  56.8965243  13.6131570  57.3803826  68.7621902  32.2235165  61.6883056
  69.6613010  32.3111763  61.4230634  68.6543725  31.2380296  61.5501270
  77.5602031  37.1283900  50.3366762  77.6005645  36.3108364  49.8047658
  78.2860781  37.6255347  49.9342557  62.4221262  33.4563803  65.7725780
  61.5842695  33.0638981  65.4950371  62.6796450  34.0192396  65.0370548
  68.6129144  40.1816660  62.4796618  69.0079500  40.3359134  61.6331956
  69.3959459  39.9511457  63.0357273  63.8106683  23.9075458  59.2510418
  64.1996076  23.6658230  60.1705815  64.7609292  24.1661370  58.9127437
  57.1682052  27.7485971  62.4671354  56.4353107  27.2353715  62.0450572
  57.8558766  27.6965939  61.8689757  71.2828740  31.7527905  55.1245631
  72.0386746  31.5920302  54.5828693  71.6507232  31.9033624  56.0350492
  68.4644756  35.7669663  66.1936324  69.0063839  35.1492976  65.6563597
  68.7390518  36.6355078  65.7830265  64.1815264  42.2001512  64.2979813
  64.2807075  41.6308604  63.5784676  63.6579379  42.9404568  63.9653792
  71.9390420  46.5075985  67.2650649  71.1583895  46.8348290  67.7962565
  72.2410519  45.8114723  67.9253654  78.6810423  42.4360457  44.6063510
  77.7259165  42.6289368  44.7376031  78.7780885  41.5512037  44.9530425
  69.6405667  36.7016808  62.3401168  69.4594794  35.9364881  62.8724883
  68.7874304  36.7568618  61.8312027  66.0517568  43.3221357  61.8207785
  65.3140197  43.2583396  61.1653962  65.8787061  44.1329233  62.2517260
  82.4381607  21.3815079  72.7944065  82.4529372  20.9436448  71.8896026
  81.8691462  22.1673788  72.6365644  69.3205238  36.7202974  55.6712317
  69.9902475  36.0137302  55.6670170  69.0879129  36.6880281  54.7199467
  58.7673124  47.7926029  66.8322002  58.6273984  48.7520362  66.6745250
  57.8793965  47.4313365  66.6916027  79.9808958  49.4143467  48.4903196
  80.7449528  49.7619688  47.8833806  79.7125066  48.6705240  47.8886606
  59.8957949  26.7731747  72.8944282  60.7503861  26.7378579  72.3734914
  59.3190848  27.0616812  72.1524697  60.7334764  27.1129208  66.7867669
  60.3820512  26.6463960  66.0055484  61.3957161  27.6451073  66.3210910
  57.4244388  45.0452394  65.4587306  57.1625516  45.8668126  64.9505925
  56.6618851  44.4549020  65.2228291  70.7557383  41.6801964  55.3994961
  70.8597781  42.2630822  54.5484869  71.7017961  41.7447376  55.6828886
  56.2075868  41.8417614  68.3340454  55.4203381  42.1211875  68.8902306
  56.5968168  42.6766111  68.0888814  77.1895839  25.4496906  45.6808862
  77.8548933  26.0807205  45.2666159  76.7437184  25.1875571  44.8545037
  74.7005638  26.3361147  56.6192070  73.9041500  26.5270792  57.0927778
  75.1297661  27.2164236  56.6875319  77.9082205  43.4074922  52.1422662
  77.5056281  44.2158271  51.7583118  78.4833305  43.8308006  52.7973327
  71.3716568  36.6088239  65.0361346  71.6076411  37.5490536  65.0189536
  70.9064789  36.5876511  64.1467646  78.0024318  32.3821856  63.3316194
  78.3082487  32.6176775  62.4022626  77.2072151  33.0255003  63.2878481
  68.6742033  36.2016078  47.9344685  68.7835531  35.5491058  47.1855170
  68.8028318  37.0452385  47.5204010  71.9002484  33.9168924  44.5806591
  72.8441891  33.9286397  44.9038704  71.9478236  33.1011224  44.0024938
  59.6734038  39.7044222  67.1857805  60.5822949  39.9439349  67.4124901
  59.6044000  40.1709740  66.3314588  70.9258108  43.8321612  47.0367800
  70.5124578  43.8033197  46.1617468  71.0639369  44.8015012  47.1139721
  78.4431349  32.3535165  49.8564770  77.9942191  31.6920273  49.3076398
  79.1762059  31.8840738  50.2093376  70.9683225  39.0348750  56.1448144
  70.2413809  38.4138069  56.2374901  70.5307525  39.8633378  55.8213594
  71.9181301  26.1108842  57.1934191  71.8573926  26.9158571  56.6328595
  71.6341768  26.5672246  58.0522055  71.6218225  24.2702367  55.1605914
  72.5619926  24.3309993  54.7594806  71.7115799  24.7556612  56.0098366
  69.4953485  41.5243024  66.1396415  69.9314108  41.9150115  66.8937131
  70.1548023  41.5615307  65.4531771  61.4195265  33.0026993  57.1503622
  61.5308286  32.8496802  56.1420882  62.3960775  33.1920444  57.3281550
  56.3562415  39.5249097  62.5190468  56.0400910  38.6021178  62.5087803
  57.3024827  39.4770273  62.5561126  70.5051426  43.5348690  68.1100441
  70.5459552  42.7325675  68.6151352  69.6538991  43.8938675  68.4802327
  60.3855497  39.1547070  57.3690559  61.1655514  38.6023754  57.5916997
  60.7110407  40.0350366  57.2266887  60.9997306  56.0828765  56.7229723
  61.4070415  56.9742624  56.5346057  60.0057761  56.3911969  56.5626888
  61.5494820  39.9251152  69.3661906  60.5970442  39.9094434  69.4850930
  61.7953865  39.0043041  69.2082001  71.9345747  49.4081009  49.1663363
  72.6021915  48.7172480  49.0897765  71.7952146  49.5728683  48.2187820
  73.6338194  41.1681048  55.8542018  74.1568594  41.7751711  55.3725223
  73.5480137  40.3854300  55.2401278  68.2426753  40.3555665  58.0126560
  68.6864104  40.6815464  58.8587798  68.2320960  41.1903600  57.5205760
  72.6192653  34.4603085  38.8457806  72.0603920  34.3524374  38.0596138
  73.5246885  34.3741259  38.5567780  72.8526291  30.3825744  38.5305350
  73.5073302  31.0129097  38.1225238  72.8580169  30.8150093  39.4395744
  63.9429148  34.0878857  56.7514428  64.3850801  34.9324350  57.0951191
  64.7412340  33.6613254  56.3912750  58.7804100  28.3619443  60.4129147
  58.6638662  27.6858130  59.7052183  58.1803482  29.0583305  60.0253157
  74.8718396  34.1339284  47.8513437  74.8991760  33.1570802  48.1604226
  74.2019364  34.4221568  48.4655875  76.7450977  26.3340970  62.2903362
  76.3759345  27.1720219  61.9472474  77.0762477  26.6163742  63.1552198
  67.7567253  45.5027262  54.3062677  68.5818748  44.9773124  54.0732968
  68.0749728  46.0699472  54.9976927  59.6702774  40.3820612  59.8894615
  60.1082675  41.2216755  60.1174833  59.9937427  40.2331583  58.9622735
  65.3945130  47.8007954  69.3772926  66.2743001  48.3028991  69.2531530
  65.3396006  47.6254334  68.3750255  65.5345947  46.6392455  43.2231829
  65.0482239  46.2604665  43.9582581  65.1499378  47.5269703  43.1443796
  73.3497286  31.6260710  40.8711413  73.2434628  30.8469570  41.4958694
  74.3100306  31.8358881  41.0379348  65.7751341  29.0762349  60.7528949
  64.9997654  29.0967489  60.1733157  65.8579822  28.0977238  60.8367436
  62.6998891  34.0186874  60.1293611  62.2483521  34.4101170  59.3342000
  63.6153080  34.2671738  59.9002115  66.2080841  38.8454461  57.6483769
  67.1065054  39.3668468  57.5947493  65.8759497  39.3409456  58.4048661
  82.7784440  36.0313971  37.7809462  83.6323429  36.4825629  37.6128066
  82.6815015  36.2118158  38.7212749  84.3970129  34.8690990  44.4418348
  84.2160393  35.7740532  44.6559263  83.9226657  34.7533746  43.6170347
  69.0397138  34.1046027  50.8850550  69.9659265  34.1201068  50.5871436
  69.1148942  33.4606273  51.6131293  73.8523655  34.8919847  50.4779303
  74.4849463  34.4054954  51.0691100  74.3639839  35.7319955  50.4250693
  61.1367386  30.6561985  58.3547502  61.2773275  31.5583947  57.9022947
  60.3330042  30.3994767  57.8366523  65.9895630  40.4023401  61.8731473
  66.0131991  41.4176514  61.9000720  66.8954038  40.2330042  62.2511409
  74.4098061  30.0481356  81.4603593  74.0900426  30.1435450  82.3883595
  75.0214290  29.3348439  81.5120535  55.8424880  37.8126327  69.0393916
  56.2410828  38.4931935  68.4163230  56.5060397  37.7732556  69.7048802
  75.7386286  31.5584485  61.2331543  75.8630680  32.1797481  60.4722616
  74.7564069  31.6132685  61.3379337  63.1471648  30.6358433  62.5431089
  62.8192617  31.5022502  62.2104203  63.8628760  31.0139384  63.1124784
  65.4823021  26.4798842  60.7457918  66.1227598  26.1063957  61.4141179
  64.6820530  26.3923145  61.2899143  62.4688934  41.7634012  61.5355424
  62.4218216  41.9641462  60.5769364  62.5551414  42.6167397  61.9579270
  75.7288631  47.3079487  49.7538219  76.0935347  48.0516358  49.2600606
  74.9804470  47.0091429  49.2358217  66.4134486  23.4786475  56.8255087
  67.2644035  23.4742868  56.2781639  66.6762248  24.2082709  57.4656784
  65.9449353  29.4007879  63.3397101  65.8630819  29.5688688  62.3695238
  65.7678605  30.2758548  63.7026148  71.8715839  11.6649034  35.9507250
  71.6151791  11.0259244  35.2603956  72.8010659  11.4708565  36.0870047
  66.0908080  32.6014572  61.4348791  67.0824233  32.3940784  61.4727366
  65.9757294  33.1240654  62.2879797  69.2763553  26.9366605  61.4914775
  69.5889693  26.9930673  62.4262718  68.6361976  26.2181423  61.5767844
  69.2009719  42.3714637  49.8317978  68.7552493  42.5853199  49.0029033
  68.4824100  41.8185587  50.2960952  70.1717252  36.8334263  41.9935695
  70.3706525  36.8395905  40.9977358  69.2060198  37.2025501  41.8198959
  68.6156537  34.3115536  63.4585771  67.6858448  34.1413515  63.7227318
  68.6964625  33.7867490  62.6460008  66.7766049  38.4498393  64.3448819
  67.0814000  38.5099554  63.4100462  67.6546959  38.3664191  64.7512294
  71.5044381  34.5108874  59.2329994  71.6555673  34.0635357  60.1064970
  71.7540877  35.4309605  59.5012415  75.6744800  41.8937932  51.8657270
  76.4744246  42.4541955  51.9678471  75.1833326  42.4563831  51.1920110
  74.9714472  44.4577773  68.7367929  74.0465165  44.3927994  68.9575474
  75.3485425  44.1030024  69.6009549  66.4314914  25.3227995  65.3317875
  66.2978173  24.6808468  66.0999159  67.0980435  25.8392371  65.7317087
  56.1346340  42.1705485  62.0680164  56.4358969  42.2051674  61.1304136
  56.1385674  41.1838909  62.2157985  71.7546971  27.5296350  52.4563676
  71.8363683  26.9603538  51.6446613  72.6088328  27.9393082  52.5366251
  81.8398754  30.3117007  55.4706274  81.5480091  29.8270997  56.2487585
  81.4420073  31.1880550  55.6445236  72.9810686  22.2304985  51.0481720
  72.3790878  22.7818052  50.4244362  72.9227720  21.4294838  50.5090560
  77.0771298  32.1146832  43.2665175  76.6455450  31.8795594  42.3935812
  76.3055275  31.8481317  43.8634549  70.2815890  49.4377183  38.7252767
  71.0304714  48.9581752  38.2318459  70.8198651  50.0695234  39.2799970
  67.7405649  32.7933368  71.3031451  67.3511081  32.6468617  72.2056714
  68.1611249  33.6813683  71.5112694  62.2073540  41.6782584  58.8107634
  61.6825120  42.0060123  58.0810085  62.8990361  41.1798887  58.3081142
  59.7807601  32.8813129  72.9393905  59.8540109  31.9015460  72.8069147
  59.0445676  33.0001900  73.5300729  70.8546346  49.3185784  46.5219664
  70.0514721  48.8512383  46.8701464  70.6086470  49.3313829  45.5546580
  72.5247118  54.6110732  39.1831849  71.9978492  55.3838655  39.4176343
  72.0621934  53.8669413  39.6871912  67.2530317  57.7613937  33.2134013
  66.7266367  57.2733496  33.9734454  67.7793853  56.9903342  32.9124358
  84.6103312  44.0966170  67.1975758  85.1047261  44.4811946  66.4692231
  83.7704868  43.7989546  66.8153847  69.0900227  45.4870221  50.9353415
  69.1921976  44.9743667  51.7649639  69.9071525  45.9206855  50.8006455
  65.9172181  55.1714561  40.9994310  65.0911941  54.6824732  40.9104207
  65.8807089  55.3534247  41.9963286  68.3281322  46.0843981  45.7472420
  67.7265577  45.2812517  45.7684033  68.6716014  45.9445269  44.8318103
  72.8061612  53.9226148  56.0365406  72.9266205  54.3628826  56.9081143
  72.0180173  54.4166884  55.7300803  69.8267723  53.4405172  53.9808672
  68.9514833  53.8061105  53.8702363  70.2791806  54.1325325  54.4764244
  68.7793687  46.3954192  38.7988195  69.5482766  46.9616696  38.6429160
  68.0594460  47.0786711  38.6505070  82.4319650  42.7586194  46.1074882
  81.9713109  43.4908006  45.6867059  81.6538977  42.4442630  46.6538721
  65.4765873  53.3961032  47.3181231  65.6566257  53.1348444  48.2237749
  65.0992387  52.6214752  46.8854325  71.2339342  45.0051445  42.2436974
  71.9872528  44.9853154  42.9440445  71.7563415  45.4137136  41.5287503
  77.6755653  48.5057670  43.1801704  78.5858335  48.4362338  42.8284700
  77.4042131  49.3167206  42.6678645  92.3686512  48.1544639  39.4744631
  93.3090003  47.9916638  39.5298278  92.2656092  48.3551953  38.5259314
  72.9028525  48.7504082  66.0161691  72.4716649  48.0362615  66.5437778
  72.5947283  48.5687412  65.1316422  72.9380195  39.5316587  58.1789994
  72.0343886  39.3693899  58.0972018  73.2638470  39.9285635  57.3615749
  74.1825221  50.3166265  42.4110280  73.6778402  49.4844893  42.3709651
  73.5535739  50.8688589  42.9721779  66.5285464  48.1416102  45.8982030
  67.0775262  47.4009555  45.5715916  66.2638812  47.8611598  46.7680519
  83.0556597  59.7205971  47.5096329  82.8677715  59.6386650  46.5825518
  82.8103673  58.8571254  47.8550807  81.7878250  55.8599814  79.5987686
  81.2135481  55.1919350  79.1355758  82.5206822  55.9147198  78.9516449
  77.5774238  39.9049239  67.7367874  78.0819966  40.4756191  68.3821941
  76.7424768  39.7791789  68.1505197  78.4131023  50.9318954  63.0325020
  77.6254790  51.4005081  62.6820508  78.6877678  51.4955466  63.7737836
  65.6172262  44.2726850  55.8457446  65.7091779  44.8013472  56.7198747
  66.3900838  44.7273419  55.3603451  68.9625648  48.2352638  48.3919816
  68.9581579  48.9215070  49.1001726  68.0088490  48.0047920  48.3743054
  70.5898593  34.4078853  54.9258824  69.8130307  34.3623413  54.3196329
  70.7662365  33.4076008  55.0038103  71.2294255  44.1252644  61.5630254
  71.3971840  43.3965648  60.9344277  70.2789363  43.9154327  61.7556321
  81.4133643  35.9248982  45.9614405  81.3198246  34.9711182  45.7198306
  80.4373534  36.1105672  46.1421885  71.8855213  47.5112530  51.2650957
  72.8198413  47.7602421  51.5246791  71.6923933  48.2714888  50.6363489
  65.5511525  54.1830840  61.9300495  66.1265299  54.4199776  62.7443580
  66.2428425  54.1585955  61.2618998  74.9856441  44.3496931  45.8383613
  75.4983612  43.7396105  45.3253674  74.3657113  43.8387816  46.3478479
  62.8204599  59.7191399  63.6611400  63.5022086  60.3373645  63.9557582
  63.1684659  59.5340096  62.7428891  75.7886629  36.8884008  47.2122405
  74.9628011  37.3573269  46.9636481  75.3448701  36.0746260  47.6129251
  67.8015208  41.7064883  47.4562395  68.4816157  41.6091400  46.7836481
  67.5734106  40.7505309  47.6139527  67.1272512  42.7810343  64.4622811
  66.2596701  42.6392547  64.1370555  67.2031697  42.2869839  65.3133898
  80.6011232  36.6280040  67.4459880  80.7924075  35.6815864  67.6607621
  81.4619911  37.0668158  67.6424904  75.9101929  50.3138098  56.2134950
  76.2368190  49.4560612  55.8458915  76.7247428  50.8136409  56.3276605
  78.1626907  51.0336571  72.3631432  78.2365986  50.5991962  73.2265601
  77.2193802  50.9531222  72.1289444  69.8208340  47.7261935  53.2910695
  70.0479615  48.0190501  54.2050887  70.7552098  47.4516666  53.0322742
  83.4349018  55.4421109  53.1419375  83.1963604  55.1342127  52.2142851
  83.1495373  54.5743215  53.6198819  79.6506020  40.5770670  55.7494864
  79.6804080  40.0660673  54.9341817  80.5924288  40.9480339  55.7581433
  75.1630512  35.5122837  69.5182996  75.3819932  36.1178781  70.2362437
  75.9987537  34.9965491  69.4424159  72.3118705  44.8829672  69.4400323
  71.9944489  44.9171542  70.3583628  71.6835894  44.2911570  69.0074773
  80.2638303  53.3513387  46.2722508  80.1187454  52.8484445  47.1140158
  80.9029299  52.7441304  45.7862381  78.9910714  75.6212155  60.6335259
  79.6799739  75.9275983  60.0604143  78.3349745  76.3426959  60.5817463
  76.4171539  57.8666547  59.4879743  76.7485609  57.4512721  60.3025892
  75.6865192  58.4259155  59.8519055  78.2480117  37.5046329  68.4341152
  78.0332307  38.3051578  67.8186032  78.9804929  37.1152908  67.8848042
  69.0779786  44.2170953  57.0330416  69.9199901  43.8285852  56.7828690
  69.2412678  45.1408908  56.9789365  82.3323640  44.8563300  43.3020713
  81.6499865  44.8583136  44.0057353  83.1712318  45.0726093  43.8301941
  69.0672285  37.8547619  45.5549769  68.6220752  37.1875315  45.0711298
  68.3054464  38.3472052  45.9592287  86.6613976  36.7632101  64.7337045
  86.7399379  35.7978303  65.0247993  85.9023730  36.7080128  64.1427320
  68.8107766  36.6320210  58.2302252  68.8377994  36.8664184  57.2607093
  68.8988794  35.6711204  58.2249310  89.8660853  43.1654121  45.3867886
  90.3967205  42.6102714  46.0204699  89.0166862  42.6739393  45.4500885
  93.8078216  39.3824525  37.6608896  93.2029189  38.6035864  37.5626772
  93.9856104  39.2447371  38.6304527  71.0936463  38.8779733  69.1611194
  70.8924425  37.9644963  68.7849049  72.0540815  38.8291966  69.2411022
  73.8533809  48.2502115  45.3192769  73.0805860  48.7311045  45.6293929
  73.7312759  48.2967692  44.3170330  70.1752224  44.6476587  53.4634732
  70.8413589  45.0063975  54.0845193  70.6779614  43.8763001  53.0712082
  70.2056970  40.0631194  40.5933748  69.2289562  40.0770646  40.9096844
  70.1768593  40.8754412  40.0649195  78.5272347  58.7697559  44.9532463
  77.7158203  58.7765527  45.4843183  79.0776152  58.2665431  45.6237502
  65.7762731  49.7854047  51.1489747  66.0652101  49.3713602  52.0122355
  64.9027742  49.3476546  51.1018336  72.5121168  42.2403545  41.1347270
  72.4841362  41.5400569  41.8339641  71.8135116  41.8838280  40.5534361
  68.3433587  51.9208473  42.8369199  67.5593401  51.4534103  43.1612741
  68.1767349  52.8475629  43.0990172  77.6300120  38.5957027  32.9353720
  77.8174455  39.5110061  33.0991537  77.9976948  38.1229149  33.7043552
  74.3366141  48.2407535  52.4283219  73.7561951  48.8744364  52.9249423
  74.5680840  47.6618758  53.2136762  78.1092115  42.5384373  55.0379499
  78.6888710  41.9156947  55.5452374  78.7862561  43.1121077  54.6042079
  70.1607726  50.8061398  41.3660070  69.6481674  49.9167194  41.3483799
  69.5726845  51.2821093  41.9845083  87.9192147  48.0631721  36.9155415
  88.2568425  47.7803886  36.0280979  86.9943559  48.3018588  36.6292664
  72.1084714  33.9773149  41.3116486  72.3554578  34.2215325  40.3714148
  72.3599397  33.0260806  41.3106389  74.1086477  53.9365302  45.6402590
  74.3101329  54.3706984  46.5267437  74.9576577  54.1570961  45.1749629
  76.3520380  45.5567738  51.6812979  75.8797272  46.0327706  50.9271003
  75.7429804  45.5135005  52.3896679  73.4604992  52.4537941  66.7288918
  72.5621675  52.6279813  66.9591719  73.6424312  52.8130698  65.8787085
  75.8303949  41.4147517  57.9182029  75.5028620  41.1446784  57.0470380
  75.6518663  42.3699826  57.9850914  74.0360964  57.0871238  57.5897130
  74.9929312  57.1872320  57.6807860  73.8250338  57.7176420  56.8591722
  71.9857430  41.2139371  44.7797853  71.3930328  41.9764221  44.5423219
  72.0293804  40.7383529  43.9783607  68.0721303  42.2323777  55.7450807
  68.1086704  43.0904953  56.1919863  69.0054907  41.9574886  55.8224302
  70.0547278  32.4819373  64.5937691  70.9230719  32.9605662  64.7127531
  69.5698043  33.1702492  64.0504305  83.5001086  46.1681511  47.1353122
  83.7638335  46.6389065  47.9567586  82.8690268  46.8768802  46.7723647
  75.1825891  45.2346539  63.7641404  74.9085634  45.4399170  64.6774029
  74.7072045  45.9946484  63.2876352  74.8948266  50.1168828  58.7517534
  75.2166477  50.0744866  57.8433352  75.2079217  51.0208082  59.0312454
  78.7783843  55.0392969  50.4914145  78.9331823  54.8345125  51.4177346
  77.8202699  54.9848688  50.4397535  76.7673120  50.4998752  41.7566021
  75.8372005  50.4515996  42.0446699  76.7596263  51.1653273  41.0470934
  73.9156846  52.0486576  47.7640088  73.6321035  52.3820644  46.9046062
  74.7862103  51.6833319  47.5296268  71.1882913  53.1301745  68.2057913
  70.4173055  53.4005827  68.7683090  70.7761755  52.2615613  67.8950247
  90.1081005  49.6973782  49.4330296  90.1727417  48.7964356  49.9206017
  89.3091716  50.0029330  49.9025495  69.2954255  50.5551202  52.5348801
  69.3813971  50.8203384  53.4911718  69.6891901  49.6501849  52.5467192
  72.1646185  46.8791043  57.4020096  73.0571387  47.0646538  57.7478744
  71.7030827  47.6461277  57.7855057  67.7313929  64.8705275  57.2155658
  67.2125845  65.6345990  56.9486822  68.2901916  65.2428803  57.9262635
  72.2254408  47.9188303  37.4652034  71.7903258  47.1366237  37.0759037
  72.8637971  47.5388192  38.0713925  60.9750496  47.3898626  57.0015077
  61.2653865  48.1590594  56.4907739  60.8094407  47.8093541  57.8874702
  65.3613596  50.3275970  62.7786704  65.5665142  50.4326560  63.7660631
  66.3254327  50.3607970  62.4677336  87.6426013  45.0548804  68.8459633
  86.8461426  45.4217059  69.3012256  87.5212731  45.4308435  67.9160519
  72.1512028  66.4683835  47.6015537  72.1920046  65.8574596  48.3842824
  71.3386465  66.1648784  47.1643281  74.8502258  39.8540490  60.2983077
  75.1369521  40.8032791  60.2505942  74.1821669  39.8246635  59.6094338
  79.8030050  58.1087016  54.4457613  80.7362607  58.0196699  54.0908372
  79.7469669  59.0494192  54.5290245  74.6630639  57.7647322  43.8872807
  73.9878259  57.5553033  43.1156846  74.0686347  58.1007979  44.5472315
  73.2316435  42.5719602  46.9153186  72.3008810  42.9519201  47.1492481
  72.9440175  42.1427041  46.0937324  65.3703758  59.0257260  53.5804447
  65.9668548  59.6523431  54.1066783  64.6924216  59.6599266  53.2553749
  60.8757838  41.7747252  56.4885480  60.3091935  41.4989889  55.7497884
  61.7622704  41.8562044  55.9952675  66.6267181  62.5698504  57.3088674
  67.0278134  62.3978487  58.1672600  67.1063695  63.4245402  57.1533098
  77.0870884  58.2555267  42.6717888  76.3600045  57.8157148  43.1928630
  77.6517366  58.5414736  43.4024444  85.5234832  46.9152043  64.8521091
  85.2660883  47.1751604  63.9744813  84.6946476  47.0738406  65.3460269
  69.6492036  65.0665252  59.6298052  69.7946316  64.6343695  60.4737264
  70.4449672  65.6562924  59.5529501  72.1988701  64.9832427  49.6152651
  73.0651066  64.7990412  49.9713918  71.6289170  64.6056719  50.2456213
  68.1062154  54.9619154  56.0930859  68.2756604  55.6334846  55.4248496
  67.3026352  54.5209194  55.7709701  85.1073185  45.0103010  49.9677292
  85.8837391  44.4319002  49.7662749  85.2641902  45.1688105  50.9289020
  73.2243426  38.0197898  46.6562064  72.6727281  38.2742777  45.8998552
  72.6137768  37.7754203  47.3364445  79.3829596  48.5731192  64.4113088
  78.9024357  49.3644282  64.0087529  78.6392811  47.9552370  64.3674937
  78.7606546  41.8869254  69.3445213  79.1201763  42.6817449  69.8748026
  78.7568746  42.3376336  68.4718149  59.2844854  46.5465973  52.1573328
  59.2246985  47.1439505  51.3602814  58.8308684  45.7690011  51.7658409
  86.9492241  52.4860755  55.8653102  86.2637381  53.2095996  55.8062571
  87.1395080  52.5449225  56.8646716  76.8019384  58.9235143  57.0906713
  76.4795349  59.8342104  57.1912918  76.5517133  58.5393723  57.9807331
  76.4113936  47.7293851  65.0697719  76.1097172  47.0067698  65.5985926
  75.6218106  47.9383645  64.5399435  73.6203961  36.8131940  60.1971217
  72.6551261  37.0027023  60.1305562  73.9492796  37.5075106  59.6403642
  66.7318832  46.5513647  50.6218870  66.2873347  46.0232080  51.3275221
  67.6450630  46.1357754  50.6900945  77.7255016  56.8298834  55.5574607
  77.4941266  57.6978346  55.9930410  78.6302700  57.1158041  55.2046286
  71.6360384  43.6985531  50.0182507  70.7699391  43.1847013  50.0759645
  71.4347693  44.1453789  49.1937981  84.7190919  42.5830151  64.1956321
  83.9859853  42.8823131  64.8548111  84.2782225  42.7777176  63.3714597
  73.0378980  38.6711777  62.5765730  73.0522555  39.2431425  61.7782218
  73.9349133  38.3065665  62.5625545  73.4047585  37.3852682  41.4347796
  74.1174540  36.7359172  41.3527100  73.3124625  37.7045634  40.5494430
  77.2107091  35.0584842  35.4697370  76.5263008  35.7260991  35.6227175
  77.8948389  35.4878445  36.1562045  68.0932406  51.2464904  47.0549524
  67.1255517  51.1203888  47.0293692  68.2664991  50.5132263  47.6736083
  65.9535596  41.8236729  53.6394375  66.6555667  41.9652785  54.3245954
  65.7495924  40.9238391  53.8037418  75.8562579  29.6365429  59.1515292
  76.5660505  30.0614203  58.6679109  75.7293818  30.1585021  59.9358434
  71.5393421  42.6522273  52.6899176  72.1080492  41.8934717  52.5039618
  71.5590461  43.1105563  51.8308348  68.3849049  34.0438261  57.7996463
  67.6601320  33.5587117  58.1902151  68.7292863  33.3370215  57.1850265
  68.7570213  36.0727842  53.0206259  67.9042209  35.6857446  53.3439691
  68.9176568  35.5287323  52.2340744  72.7057165  52.5687630  53.4847478
  71.7856209  52.8009790  53.4774416  73.0366182  53.2237448  54.1431135
  70.5584434  57.9880544  57.2761602  71.1575108  58.4903512  57.8815101
  70.5935176  57.0823935  57.6300099  74.6238304  58.0887185  48.8441390
  74.2975297  57.6505334  49.7369510  73.7815421  58.0688856  48.3575331
  78.1688354  51.4705283  56.9566328  78.4960799  51.6988071  57.8779641
  78.1719533  52.3678892  56.6127809  75.1574789  52.8099504  59.4747358
  74.2481158  53.1247973  59.6142418  75.2438156  53.0552509  58.5194953
  63.5621071  60.6121343  51.7726158  63.9685364  60.3545032  50.9468455
  62.6180442  60.7326663  51.4928476  74.5221030  43.1720380  60.5634943
  75.4555330  43.2118375  60.8439796  74.1439764  43.8773045  61.0828522
  80.5626525  53.6952975  42.5297427  80.1667281  52.8799100  42.0470726
  80.6584007  54.2776112  41.6863332  71.6588034  52.1176914  49.6164917
  72.1918044  51.9429545  48.7717760  71.5045275  51.1560729  49.8193730
  73.8694175  56.8283261  50.9183919  73.1374236  56.1147849  50.7933874
  73.7255458  57.1370178  51.7824717  73.6374034  28.1519344  58.8988820
  74.4755443  28.6440332  59.0568655  73.8440017  27.3831016  59.5071484
  70.0095793  42.3540099  39.3733537  70.0757432  42.6490428  38.4174799
  69.4175913  43.0102268  39.7149738  81.3973775  32.5382550  39.7283144
  81.7962341  32.7651958  40.6332688  80.8523007  31.7438114  40.0974787
  73.2569235  47.1018393  48.0227847  73.4868567  47.1842306  47.0755597
  72.2636746  46.8901762  47.9247562  81.1948671  30.6386642  52.7414213
  80.8286125  29.7341415  52.8620974  80.7248730  31.0372411  53.5840098
  83.3836575  54.5004425  47.7663880  83.9906668  54.1194650  47.1173051
  83.0392384  53.6800610  48.1501098  83.8936004  40.8370994  42.2460959
  84.6060286  40.1801164  41.9463466  83.1062157  40.2553216  42.2490171
  75.9831147  48.0119250  61.3851902  76.4826677  48.7356560  61.0612226
  75.3102788  48.3636780  61.9426651  68.1330356  44.3370654  40.5732841
  67.2200634  44.6496647  40.7276464  68.4108285  45.0877308  39.9700689
  74.1362355  35.0380119  57.2458543  74.4363070  35.8823578  57.6239243
  73.9015581  35.2775428  56.3284019  71.1553748  55.9405148  54.8116007
  70.5754033  56.6043745  55.1239118  71.7540082  56.4416687  54.2285069
  75.6879730  36.0029332  40.4957552  76.1325287  36.6104860  39.8374068
  76.3052643  35.2469518  40.4117186  74.8414296  37.6802051  57.5044698
  74.0919050  38.2430595  57.7512673  75.1580870  38.1377511  56.7050894
  73.0980892  46.4370254  61.4293776  72.3384834  45.8352950  61.2912383
  72.6658907  47.2777367  61.5769810  72.5846135  30.8949066  44.1657993
  71.5838034  30.6941975  44.2436322  72.7027085  30.2102513  43.4093479
  60.1776498  54.7272089  49.1603303  59.3937797  55.0738433  48.6343851
  60.8814138  55.0287513  48.5404411  86.9619531  44.1436049  40.3349695
  87.0014542  45.0054179  39.8545855  86.1959325  43.7609692  39.8381235
  60.9864194  64.0200137  62.8214786  60.1108651  63.9584503  62.4419327
  60.9977476  64.8819615  63.2489875  74.7682210  55.2951024  48.0967613
  75.0628553  56.2079977  48.1016466  74.0566339  55.2905658  48.7378593
  66.3952782  50.1254024  43.8093283  66.3295436  49.5483293  44.6065957
  65.4654783  49.9990578  43.4648230  63.7507740  58.7717898  61.2713501
  63.8908526  58.6580043  60.3210892  63.5613311  57.8245438  61.5173338
  83.8575600  52.9497416  41.0137012  83.5731631  52.1720613  41.4714609
  84.7223714  53.1478870  41.4820172  68.8954700  59.7084267  53.5425256
  69.4281626  59.9899197  54.2776572  68.5504743  60.5552857  53.1845295
  65.3214127  59.4416755  36.6992397  66.0087176  58.9199137  37.2111916
  65.8809573  59.7113021  35.9377361  81.7947754  46.7405976  41.3497765
  81.1947872  46.4576511  40.6462979  81.8381382  45.9544647  41.9289380
  77.5460464  62.9158985  41.1826649  76.9491553  63.5688460  40.7825247
  77.1119407  62.7462787  41.9815290  86.2837841  48.6517229  43.4069993
  86.1376417  49.6069462  43.4895554  85.3548637  48.3212680  43.3876993
  64.7697931  43.5390126  59.4323742  64.5540279  43.2149401  58.5521503
  65.7087468  43.8553138  59.2732857  72.1279778  42.3242601  59.6444252
  73.1548530  42.4734882  59.7406694  72.0399366  42.8106987  58.7771228
  69.2469693  34.4992534  46.0310437  69.9835090  34.1326300  45.4678158
  68.6328395  34.8075300  45.3549235  67.7527449  56.1207632  51.7952872
  67.6778092  55.1842443  52.0079155  66.9295229  56.2366233  51.2283646
  75.7187752  65.4833158  65.7672075  75.9240311  64.9985171  66.5874020
  75.6486735  66.4230778  66.0883370  77.3633994  39.5073870  47.8027204
  76.9175924  38.6975242  48.0154557  76.6471969  40.0210475  47.3662500
  70.7188255  39.5227974  51.3606054  71.6190048  39.8258687  51.5725810
  70.9586358  38.7562670  50.7358031  81.6949910  61.2285158  55.2806573
  82.2610455  60.3929873  55.2585651  82.0872291  61.6908767  54.5418273
  77.4744258  66.7542868  49.2768779  78.3455772  67.1531703  49.2662877
  77.5048371  66.2529132  48.4162289  77.4020190  58.6297316  62.7320896
  78.3520304  58.8480818  62.8563062  77.5158486  57.8107254  62.2158252
  76.5353252  59.0719152  54.0070213  77.4059239  59.4693730  54.3056037
  76.7760765  58.7182700  53.1438206  70.7884837  51.2742915  61.9653347
  70.2291757  51.9359078  62.4969359  70.3001501  51.4132547  61.1353524
  78.1864696  65.3541061  56.2379548  77.7580440  64.6580777  55.6508681
  77.4522275  65.9898588  56.2233641  78.7323568  60.9189946  54.7838279
  79.6321947  61.3287410  54.5384106  78.7629271  61.2465090  55.7146228
  74.3813503  67.2207421  57.6118855  74.7683943  68.0266719  58.0304066
  74.9141862  67.2106796  56.7645534  78.8922491  54.4105737  53.3155915
  78.1510816  53.9529063  53.8210915  79.6248121  53.8620830  53.5654509
  71.4126517  62.2895228  48.2046968  70.9480144  61.5275476  48.6100736
  71.3095127  62.9492848  48.8543557  71.9087450  45.7113837  55.0557053
  71.9262367  46.1865116  55.9171083  72.7700680  46.0559768  54.6905425
  82.1968060  50.3892897  47.4038280  83.1540643  50.3306270  47.5975255
  82.2350875  50.5811300  46.4626041  81.9972242  49.0627249  63.9986714
  81.1212090  49.0038705  64.4029969  81.9064911  48.5711564  63.2018758
  77.2949485  68.6937944  51.6944117  76.9721938  68.8230598  50.7723433
  78.2693295  68.7330257  51.5371711  70.7084271  55.9144638  62.9640464
  70.3034974  55.1179323  62.5048263  70.5304020  55.7281208  63.8987745
  73.7286806  55.6406462  42.2565064  73.0013097  54.9801930  42.4821744
  74.3612045  55.5057812  42.9428045  74.8860405  60.6456727  52.7164751
  74.2607940  60.1201964  52.2916068  75.5595493  60.0859549  53.1175486
  85.2819554  65.3763804  64.6994865  84.8115490  65.3229472  65.5149331
  84.5267422  65.6863688  64.0930554  79.7967884  70.0943320  50.7328170
  80.6373874  70.4655429  50.4812398  79.3777695  70.8686381  51.1966495
  81.2627062  61.0756693  57.9278933  80.3205331  61.3189349  57.9465024
  81.4881401  61.4183796  57.0301592  61.8085515  61.1424894  60.9947856
  62.4157264  60.4099960  61.1249833  62.3159722  61.9310898  61.3141618
  89.7896057  58.8253165  41.4267911  89.9038391  59.0481279  42.4252583
  90.3303050  59.5994652  41.0982722  70.3765127  62.7889942  57.3311941
  69.8636495  62.5405418  58.0809627  70.1543345  63.7171161  57.1971308
  72.3496160  58.0772752  62.1296931  72.3317257  58.2520834  63.1291715
  71.9201902  57.2191996  62.1706509  57.4144924  58.4118777  64.6398857
  56.8386275  57.8719601  65.1636952  58.1671115  58.6300097  65.2084573
  72.2670319  54.7221147  49.6065219  71.8396491  55.3531362  48.9775832
  71.7629331  53.9356161  49.4130505  82.3634977  66.5202509  52.0203532
  82.7521766  66.4803423  52.8804947  83.0434108  66.2177746  51.4118869
  41.9940306   2.7072119  41.6058373  41.7203289   3.2794870  42.3287319
  41.2918396   2.9059038  40.8968656  46.0609890   6.5917925  40.4283154
  45.2076565   6.1445035  40.2819386  46.1169243   7.1461206  39.6432892
  36.3082891  -0.5588828  42.6639812  36.9556637  -1.1319173  42.2434378
  35.8615225  -0.1858654  41.8868125  52.7820199  -0.8734685  42.1633342
  51.8269393  -1.1223936  41.9078508  53.0186558  -1.6602270  42.6617800
  52.3208667   7.7774322  32.7332994  52.2027505   8.1544899  33.6533297
  52.3412113   6.8360319  33.0438494  51.3346640   7.4854440  37.3922543
  51.3680674   6.9063749  38.2020034  50.6453883   8.1462507  37.6529986
  46.3661203   0.7435143  39.1440294  46.1498145   0.9447932  40.1097711
  45.7754423  -0.0275100  39.0602387  52.8487746   7.7831097  30.0630485
  52.1184479   7.0853085  29.8853572  52.7037191   7.8229169  31.0485924
  45.3033736   2.8646183  35.4961479  46.1482566   3.0721755  35.0138663
  45.0355399   3.8299858  35.6461022  48.0875567   6.3105595  50.1946429
  48.2009726   7.3274786  50.3498326  47.1364239   6.4098860  49.8042754
  57.5411156  -0.0013881  49.9085060  58.1650797  -0.2153958  49.1849122
  57.8551835   0.8624978  50.1439150  52.2073373  10.2851248  29.2739975
  52.7915536  11.0911759  29.3637742  52.8829200   9.6100574  29.6806469
  45.0503014  -5.0457388  40.3053037  45.4213766  -5.9020075  40.6802865
  45.2312729  -5.2564575  39.3748440  44.1124007  -7.8681918  42.7275870
  43.4116274  -8.2325508  42.1425328  44.1788457  -8.6507915  43.3684947
  46.5744446  12.5482147  36.4472004  47.4903975  12.9087808  36.1982730
  46.0397372  13.3511967  36.4296865  57.1707584  12.4930827  39.8340540
  56.5341616  11.8012339  40.0712557  56.5857772  13.1700444  39.4206154
  47.8632570   3.9493157  47.8721108  47.7731243   2.9899980  47.6131259
  47.2495308   4.3355019  47.1927071  57.0005128  11.9350944  60.6621429
  57.3603370  11.1979918  60.2129124  56.1552758  11.6415482  60.9959920
  49.9575793   6.0139484  44.6082901  50.1051398   6.7276883  43.9475567
  49.1654040   5.5782743  44.2183374  47.7749172   3.7345878  34.2745802
  47.7400602   3.0826241  33.5362309  48.6863865   4.0879742  34.1389675
  56.2360449 -12.6642338  31.1123465  56.4774229 -11.9765082  30.4414798
  55.5712281 -12.1738831  31.6458105  41.8183608   9.4444254  47.8042410
  42.5269019   9.5799570  48.5238757  41.0795545   9.7706098  48.3471204
  53.1870404   5.2043099  28.5313631  54.1275663   5.2243544  28.7964633
  53.0432806   4.2404483  28.5914503  54.4811880   4.7946121  46.4279346
  53.5540899   4.7671376  46.0640792  54.9476262   4.2929826  45.7106316
  56.4372554  15.4455916  45.9963648  57.1431744  15.5932827  45.3270661
  56.4026484  14.4860086  45.9186916  47.9006110   3.7841785  41.0892434
  47.1847309   3.4475806  40.5559312  47.5656202   4.6507299  41.3020577
  44.1096225   3.1863019  44.6701553  44.5397535   2.4514575  45.1402508
  43.1768181   2.8535546  44.6732563  67.5571809   7.3176181  43.5134430
  67.2319019   7.6302541  44.3643266  67.8539692   6.4154774  43.7798143
  51.2827826  17.0777845  53.0492975  50.3540376  16.8002761  53.2371809
  51.5816058  17.1776748  54.0236688  63.3006251  17.5334119  41.9639407
  63.6656142  17.9554851  42.7748979  62.8620306  18.3675963  41.5487451
  55.2638667  13.9145549  32.1101959  55.2622191  14.9031940  32.1703334
  55.9834887  13.7464340  31.4530344  68.4838462  17.5979505  52.0489590
  69.0240674  18.2550020  51.6153636  68.9265146  16.7578870  51.7773993
  58.7718355  11.1291172  53.1932788  59.6811845  10.7959136  52.9675427
  58.4439681  10.3299164  53.6309490  57.0180753  13.2840348  29.6284414
  56.3514625  12.7751187  29.1932381  57.5354350  13.6816752  28.9343863
  76.5337989  14.9526952  47.9847043  76.9275853  15.6078459  47.3442101
  76.0738830  15.5896317  48.5345971  54.5613541  11.2412495  32.6715953
  54.7699187  12.2004668  32.5676754  55.3203697  10.8784026  32.1780226
  74.6508486  18.8366159  41.1627765  74.5989183  19.5696304  41.8380210
  75.3039540  18.2826080  41.6435200  56.8565309  10.8182130  31.0156732
  57.1168266  11.6958110  31.3684123  57.7213443  10.3218455  31.1069824
  64.9815731  11.7065931  42.4814571  65.2186451  12.2271913  41.6812743
  65.6702965  10.9829264  42.4423217  64.1133140   9.3523341  37.9176610
  63.1770751   9.1297943  37.5875655  63.9672088   9.2173473  38.8269659
  67.3435060  15.3894673  38.1475420  67.4507666  15.2457667  39.0631255
  66.8836578  16.2531929  38.0770746  55.0173457  14.2401689  42.0226541
  54.4293126  14.6348835  42.6388374  55.1033159  13.3150783  42.4068489
  85.4658043  16.0152621  54.2777286  84.7269861  15.9944669  54.9294199
  85.9167918  15.1712431  54.5101020  71.9367677  14.5477318  22.9405812
  71.6852277  14.3279335  22.0098736  71.3493598  13.8586384  23.3415555
  57.5446711  12.0333645  46.1595880  57.4719428  11.0750058  45.9886256
  56.5947557  12.1995606  46.4225619  64.5605715  23.1973060  44.9270358
  64.3195719  23.9563879  44.3495501  63.6320819  22.9721715  45.1937601
  58.2782189   5.1790822  32.1539920  57.7330324   4.4238837  32.3869096
  58.1389468   5.0993009  31.1754676  67.4379799  21.0963670  43.0937835
  67.1286442  21.6363941  43.8963393  66.5301334  21.0612028  42.6493079
  73.3680498  15.4059274  42.2906734  72.4521095  15.6003582  42.1584856
  73.5814657  14.6688367  41.7176001  66.5466318  18.9297565  40.6770797
  65.8634637  19.6170976  40.8454154  67.3344589  19.4163036  40.9253103
  62.1583923  17.0439444  45.4413192  62.9136749  17.5025055  45.0516608
  61.9889991  17.5487187  46.2706167  70.5960786  13.8958369  36.4107792
  71.1785532  13.0930971  36.4714983  70.6993026  14.1102880  35.4725561
  51.7186822  12.0665654  43.9675385  51.9354320  12.9980047  43.9116464
  51.8203251  11.8525998  44.8911101  63.5942394  12.0239054  58.3747597
  63.0859350  12.6852718  58.8573994  63.3764514  11.2490268  58.8559168
  58.1886334   5.3945722  44.7400820  58.5272474   5.4742906  43.8295849
  57.2268998   5.4902813  44.5471414  58.0681762  15.9818001  40.9507583
  57.1477566  16.1663054  40.6869430  58.5371676  16.0071503  40.0713412
  58.3421544  14.1921676  36.3910748  59.2729393  13.9350840  36.3748276
  57.9716014  13.3615068  36.6757637  64.7616613  12.5795255  45.4356382
  65.6484278  12.3647263  45.8577692  64.9512888  12.4005945  44.5318736
  64.8110928   1.1944725  38.9320628  64.9682430   1.2724713  37.9758067
  64.3031809   0.3283456  38.9525387  79.5673496   2.0681520  32.3058509
  79.9667070   1.1622335  32.4040415  79.3137577   2.1847947  33.2025442
  62.8755595  13.9313036  52.5567629  62.0078100  14.0011817  52.0399420
  63.0792666  12.9849761  52.4722794  62.8001700  15.5315626  48.1756962
  62.6025108  14.7127685  48.6015997  63.1661915  15.2815532  47.3103273
  64.9261935  17.0449519  49.4846704  65.0879411  16.1237204  49.8972028
  64.0156980  16.9274872  49.2050522  66.8651382  23.7431265  39.8380539
  65.9966631  23.5355925  40.2207186  67.2491680  24.4000867  40.4079761
  58.4398298  17.3030334  36.7757444  58.9379670  17.2637960  37.6817104
  59.1929561  17.4491503  36.2140818  70.6995656   5.5866891  18.7709094
  70.1347836   5.0033350  19.3154964  70.7931049   6.3174913  19.4086321
  80.7458837  12.4002436  31.9135765  80.8630423  11.4262092  32.1438520
  79.8704835  12.2932552  31.4364169  60.5301221  -2.0443956  49.7894316
  60.0917461  -1.9539612  48.9407674  61.4557940  -1.9702126  49.5577424
  72.7697782  17.1896345  48.3091260  73.0819361  17.2782356  47.3942414
  73.6234867  17.1618611  48.7775832  48.5290483   6.8122599  41.7705706
  47.5777263   6.5183513  41.7442343  48.3389168   7.7653817  41.7548427
  70.4445941  14.3565642  41.2913002  69.5388825  14.4618272  40.9320209
  70.9773672  14.5567509  40.4907823  61.0352363   1.9200814  39.5743147
  60.4767592   1.2511854  40.0793037  61.5603841   1.2998925  38.9700568
  58.2248977  13.3234400  32.8496278  58.5135582  12.8456093  33.6436003
  57.8524477  14.1739067  33.2213701  69.4970647  18.8189860  29.4472433
  70.0976154  18.0708331  29.6754992  69.4767816  18.8097874  28.5048224
  62.6722861  11.7513689  46.8803713  62.7101608  10.8550613  46.5190408
  63.2881486  12.2196232  46.2785269  68.1039475  10.5277206  51.9274683
  68.2792080   9.6822580  52.4479407  69.0540837  10.7880589  51.8217811
  70.7500361  13.1917899  30.1055434  70.0018589  13.0795404  30.6782117
  70.8818002  12.2512759  29.8269051  67.6476043  14.7383254  40.7325265
  66.7474640  14.3348526  40.5032319  67.2508455  15.5327021  41.2396351
  74.2140312  24.9846400  31.9052755  74.4879388  24.9184739  32.8439487
  74.1725619  24.0358084  31.6816582  60.9111852  12.9954689  37.0720329
  60.4970721  12.8117835  37.9576089  61.8785960  13.0467102  37.4438826
  65.3404498  13.4460569  40.1956957  65.3337332  12.9153876  39.3936237
  64.4368307  13.6897599  40.3129909  65.2026989  11.6532960  38.1598336
  66.0766193  11.2500362  37.9305094  64.6209293  10.8437570  38.0638765
  56.9764306  11.7513003  36.2758844  56.8094051  11.1556475  35.4898031
  56.0292006  12.0695763  36.3661524  61.3852449   6.7873147  32.7772189
  61.4938249   7.6033494  33.2668711  61.0944899   7.1101463  31.9187857
  74.3859546  16.1685170  39.7022786  74.1642899  15.2045031  39.6749986
  74.4163668  16.3787300  40.6362447  57.5569549  23.0235428  52.7591462
  58.0725004  23.4431468  53.4414234  56.6693096  23.3940972  52.9799712
  73.7863153  11.9938392  25.9633416  74.1416140  11.7708406  26.8177866
  72.8544969  11.7378151  26.0867186  66.6251584  19.2533229  34.7699591
  66.7654203  18.3349180  35.0825367  66.8416751  19.8141956  35.4805551
  53.1970121  10.1664903  41.8369952  52.6552538   9.8301867  41.0390874
  52.5447132  10.8610459  42.1063558  44.9626175  -7.7995243  37.8852575
  44.9333494  -8.1702122  38.7883860  43.9968226  -7.7109385  37.6779483
  51.1577021   7.0885253  42.0473719  50.2304883   7.1539460  41.9092123
  51.4572061   6.7684815  41.1887259  81.2881052  19.5817418  47.8437011
  80.5278117  19.0315204  48.0676892  80.7583107  20.4068801  47.5358239
  72.1875980  19.8117956  44.2527728  71.7889065  19.1666859  43.5991281
  72.8386706  20.2734705  43.7492523  69.4343190   6.2294599  46.2456085
  68.7173292   6.3812509  46.9051361  70.1788222   6.4513877  46.8292851
  70.1747075  17.3876361  44.1331752  69.9887716  16.4407412  43.9547860
  70.4092897  17.3580625  45.0493033  62.7034855  13.9416511  40.9541952
  62.3029478  13.1018280  40.8532280  62.6135112  14.1825867  41.8739625
  49.5132452   7.1667027  26.0169227  48.7449022   7.5928629  26.4043644
  49.6463378   6.3812791  26.6127428  73.1684995   8.7756952  33.0971148
  74.0782394   8.7980972  33.3505568  72.9620233   7.8325648  33.2555425
  61.1587036   9.4341281  49.7404310  61.8226328   8.7337215  49.7002767
  60.3274536   8.9064234  49.6152166  67.1060070  18.4520769  48.9220869
  67.5983189  17.6319759  48.8238790  66.2151783  18.0850150  49.2092038
  42.3705934   6.9842415  51.8054450  42.3018407   7.2628513  50.8955495
  42.6626776   7.8289836  52.1909581  56.3482305   6.1695881  41.1288801
  57.2766124   5.9538648  41.5012119  55.8718631   5.8704067  41.9791901
  74.4221414  11.2538953  50.1097513  73.8760033  10.9903444  49.3471709
  73.8383188  11.9025132  50.5253416  66.4757852  14.4637140  47.6491359
  67.2461209  15.0007832  47.4788158  65.7377745  15.0418407  47.4372693
  64.9069477  21.0125756  41.5203562  64.4945896  21.8934904  41.3322640
  64.1617395  20.4131422  41.2669958  80.1916467  18.5355876  52.0968016
  79.8502005  17.9058808  52.7681336  81.1542027  18.5113911  52.2776207
  69.9832307  14.6851066  44.0711326  70.1871933  14.4846964  43.1461717
  69.0190210  14.8305969  44.0436353  69.0649577  17.1511500  35.9791130
  68.4513498  17.6303490  36.4981114  69.8580462  17.0767335  36.6113225
  62.3090360  15.7113718  38.8448165  62.5364482  14.9663473  38.3568528
  62.4945268  15.4960554  39.7514130  60.1458728  10.1664922  44.0836224
  60.1954443  10.3239026  45.0990501  59.3200024   9.5766813  44.1735947
  66.2776943  20.7650196  47.4436517  66.2536848  19.8132446  47.6595185
  65.5128646  21.0528777  47.9298308  67.5618662  11.6236872  45.3057818
  68.1549538  11.6897177  46.1486585  68.2347829  11.3621059  44.6833317
  44.6510945   3.4623718  41.3461581  44.7225048   3.6092621  40.3712750
  43.8084216   3.0008068  41.4287939  47.3914179  -2.5357571  42.9786264
  46.6435064  -2.4190941  42.3364700  47.3634022  -1.5862125  43.3278316
  70.9063508  11.4548794  51.9565277  71.5683601  11.9474776  51.3710181
  71.2412113  10.5298153  51.8111296  48.4070407  14.9181447  34.1940960
  47.7487733  14.4632040  33.5903060  48.0980289  15.8705112  33.9983796
  51.8646889   5.7334195  39.6151692  52.7810090   5.7153282  39.2730373
  51.6143881   4.7830569  39.4104984  68.9625376  12.7690966  38.1382849
  69.7001601  13.0195370  37.4802056  69.3423486  13.2417533  38.8843105
  51.7375489   2.9683687  39.1730143  51.8983063   2.8398974  38.2076224
  51.7219939   2.0875409  39.5229585  66.0008768  16.5955699  41.6284885
  66.3469863  17.5235134  41.4064547  65.0374328  16.8934008  41.5943292
  61.0158264   9.7165913  33.4453492  61.9027909  10.1928126  33.4180094
  60.5295291  10.4563878  33.9487371  69.9752424  22.1588725  27.3165758
  70.5841453  21.5502823  26.8139084  70.6443913  22.8385544  27.5781281
  60.6533863  -1.2561857  42.6655738  60.9849354  -2.0925732  43.1406721
  60.9848472  -1.5270475  41.7402646  68.2897647  20.9504987  37.1003504
  68.1748216  20.1452665  37.6459853  68.6816684  21.5781030  37.8009691
  61.6988982   8.1562304  39.9134975  61.1386232   8.6182016  40.5372851
  62.5934045   8.2178267  40.3342170  83.7893346   6.9373347  52.5367292
  83.0187110   6.4148270  52.9176413  84.5183755   6.3178361  52.6962880
  69.3569319  20.8926212  31.1542550  69.5747982  20.2091105  30.5315188
  69.4111542  20.3765613  31.9850879  55.0110648   5.8675608  43.4542971
  54.2895394   5.2969731  43.6352169  54.5885068   6.7482881  43.6844709
  67.8870366  10.2855063  37.8990807  68.3557760  11.1390544  37.9711005
  68.1769764   9.8568890  38.7463762  67.0424536  15.7985111  44.0384116
  66.5885244  15.9246662  43.1237219  66.2926754  15.7896908  44.5847323
  62.5387287   7.6849615  53.5873895  61.6932413   7.5876533  54.1117258
  62.6598063   6.6897795  53.3991347  71.3126722  21.4478349  53.0526889
  71.6744263  21.7260756  52.1650585  72.1751749  21.2217901  53.4778386
  71.0511028   8.0918896  47.8342920  70.1081381   7.9149439  48.1910288
  71.5651428   7.4828709  48.4137148  70.3804137   3.9452617  52.1856842
  70.6736261   3.6993209  51.3080011  71.2577474   3.7690186  52.7019342
  60.6101822  11.9871824  42.0557354  59.9753239  12.7495533  42.0700128
  60.5094904  11.6785565  42.9557392  71.2937186  11.3060079  41.7934446
  71.0586855  12.1792602  41.4717523  70.7174660  11.2185346  42.5815676
  66.2992061   8.6167178  36.3793411  66.8333712   9.3748592  36.7910722
  65.4309628   8.8221380  36.8302108  71.6034189  10.7589151  48.3517508
  71.5521927   9.7809017  48.2051427  71.8200693  11.0551638  47.4567184
  59.6934282  16.7048078  33.1774821  58.7661454  16.3996435  33.4400980
  59.9084484  17.2051350  33.9940036  55.8449372   7.3210042  26.4662669
  56.6487521   6.9074303  26.8776291  55.3302857   6.4236656  26.3263069
  62.1283943  14.3279447  28.2798396  62.9378005  13.9417851  28.6570515
  61.5344750  13.5294974  28.2763571  70.9355041  28.3001820  25.5771319
  70.1360800  27.6954919  25.4878513  71.5838450  27.7028254  25.8838378
  81.3677625  19.1589714  35.2729732  80.9272077  18.3457652  34.9591928
  81.0128080  19.2407685  36.1792553  68.4442195   9.6609980  19.5439499
  69.0520803   9.6739315  20.3245726  67.8099967   9.0151880  19.7606804
  86.7969078   3.7057957  48.4619057  87.5044521   3.3253040  47.9068477
  87.2471079   3.7481162  49.3185689  66.4470087   6.3898738  38.3161649
  65.8893568   5.7292160  37.8480763  66.3360785   7.1599067  37.7001243
  56.3757157   9.5622743  34.3750899  55.4542350   9.1962156  34.3406005
  56.8433593   9.0142229  33.7056483  57.1425216   8.9660093  41.7997947
  58.1540574   9.0012400  41.7878430  56.9271060   8.0502469  41.8519636
  50.0853078  12.0552081  38.4593114  49.7741544  11.2310914  38.0705942
  49.9356219  12.6748533  37.6931153  69.1574405   8.9187843  40.0333648
  68.9467536   7.9924933  39.7938082  70.0141945   8.7250762  40.5768849
  56.9715674  16.6957250  55.9298481  57.2865083  16.0095475  56.5707700
  56.1142928  16.9403524  56.3953956  55.6832447  15.9286569  40.0023787
  55.5834425  15.2693748  39.2460302  55.5370743  15.2525158  40.7108889
  63.8899090  21.1235610  48.6069988  63.4086841  20.5847043  48.0157884
  63.3674075  21.9802544  48.6557825  60.3226653  13.5287160  57.0752964
  60.2818300  13.6152536  56.0991604  59.4184017  13.6457015  57.3295058
  61.9540206  15.0646491  32.7152094  61.1196518  15.4570196  33.0056508
  62.3733248  15.8418092  32.2600765  77.4348828  21.6583156  30.9592843
  77.9610217  20.8469815  31.2674676  77.4883356  21.4998481  29.9789976
  76.3656904   1.5613490  26.2709895  75.6348626   1.2060141  25.7452689
  76.3510400   1.0666926  27.0776568  54.9032916  11.8047763  43.3566426
  54.1841857  11.2727955  42.9991374  55.2739827  11.1441022  43.9938545
  55.2562219  -4.5592327  51.8982104  54.5314913  -3.8991114  51.7286605
  56.0185861  -3.9914989  51.9871394  62.6907754  11.2854962  50.8099683
  62.1297107  11.9658151  50.3669313  62.4370042  10.5157420  50.1991662
  66.9679386   9.1662239  41.5963791  67.1013117   8.3827432  42.1930274
  67.7415766   9.0396163  40.9607534  84.5210529  20.0565604  42.4664815
  84.1511362  20.9540578  42.3444818  85.1409909  20.2565253  43.2515850
  73.8210686  29.6765638  32.4933105  74.7856441  29.4012292  32.3701482
  73.9390559  30.6241880  32.3388444  74.5173799  30.0433679  51.1648573
  74.2273114  30.2508321  52.0695095  75.4528484  29.7653671  51.3954166
  84.7932219  32.1158413  26.1355172  85.3498708  31.5205023  25.5794802
  85.4237081  32.1659504  26.8829608  77.5058934  34.3055947  39.5091423
  78.1280280  33.9352737  38.8132622  78.2286479  34.6854920  40.1233736
  73.5398148  29.2905082  42.4744150  74.5127192  29.0878682  42.5927402
  73.2100944  28.3384082  42.6090368  80.7298200  23.7063890  43.9624565
  81.3575169  24.2824330  43.4301910  81.0047874  23.9960219  44.8417346
  77.1237831  22.1442008  24.1047623  77.5052404  21.2348982  24.1903447
  76.2088935  22.0271065  24.4350493  85.6380907  12.8076561  34.7524310
  85.7846055  13.7264321  34.3722081  85.7238786  13.0888582  35.7182301
  77.4364967  25.6202725  39.4629572  77.5084293  26.5062668  39.1423036
  78.1831177  25.1181597  39.0153178  77.3783715  21.3562068  28.3003434
  77.5989383  22.0166396  27.5783913  77.7370459  20.5606683  27.8772738
  79.3183077  30.0120099  47.0750785  79.7930279  30.5632527  47.7476534
  78.3565329  30.2031190  47.3712352  80.5571001  32.2306099   8.2744072
  81.3811977  32.1835272   8.8562148  80.8716572  33.0057721   7.7587610
  75.7051238  41.1848781  41.3345572  76.0331232  42.0403209  40.9789475
  74.9306037  41.0324961  40.7285837  70.6415822  24.4077062  38.8875370
  70.9761408  24.2929131  38.0119249  71.1112410  25.2061855  39.2318280
  73.4750996  18.7659954  38.7837084  73.7349799  17.8371350  39.0617122
  73.8874754  19.2424572  39.5437312  73.0645029  34.1188694  33.9975912
  72.1180669  33.9297894  33.6413667  72.9765302  33.9456445  34.9221345
  66.2495429  33.0175468  55.8415821  66.9351510  32.4308375  55.4572847
  66.3939092  32.9791985  56.8296981  71.6103886  33.8045754  51.1028480
  72.4327472  34.2699663  50.7373853  72.0583673  33.2498841  51.7582833
  73.4032409  28.5426866  48.9815596  73.0056180  27.9124523  49.5287490
  73.9385897  29.0160019  49.6638732  82.4373226  37.8573882  53.5708980
  82.7552825  37.2584605  52.8208159  83.1886836  38.5276292  53.5615921
  79.3799009  39.4047224  42.7551045  78.5711948  39.0263930  42.3550886
  79.1833611  39.3994655  43.7112813  78.5581319  36.3678031  46.4138049
  78.5616451  36.0937178  47.3350179  77.6242163  36.5182634  46.2410757
  71.8903307  18.8612043  34.7548478  72.4791543  18.2346280  35.2387277
  71.9020933  18.5095197  33.8513614  87.1525693  18.3967192  46.6883527
  87.8715693  19.1256458  46.7529375  87.6393268  17.6281584  47.1247698
  77.0069482  24.6226961  35.5088327  77.3723475  24.3250987  34.6439171
  77.6061828  24.1833106  36.1266926  76.1849569  28.4944090  31.7048363
  76.6514385  28.0069084  32.4602687  76.0233116  27.8032495  31.0760257
  71.2348116  39.5211288  48.6637171  70.6722559  39.6623478  47.8859809
  70.6985752  39.9474895  49.3676621  75.8327991  49.6037448  35.4206859
  74.8644481  49.5035963  35.4848452  76.1138359  48.8445764  34.9298547
  71.2165339  18.2269282  53.8134485  71.8422935  18.4287385  53.0440253
  71.9290036  18.0238957  54.4284538  88.9495911  18.8770840  39.8914040
  88.3336106  18.2968526  40.4334139  89.1351777  18.2299380  39.1779919
  80.9229834  35.0273892  50.0262617  80.1500606  35.0522261  49.4173549
  81.4803677  35.7024501  49.5567161  70.2536541  19.6429973  39.6594724
  69.9428190  20.5680211  39.7844674  69.9980196  19.2605562  40.5211481
  69.8827492  29.3702275  53.2977033  69.3225655  28.7719512  53.8087891
  70.4220792  28.6679841  52.8326855  96.8783838  28.2570266  36.0019174
  97.1860942  28.9622753  35.4011535  97.1415270  28.6657343  36.8782779
  84.1890996  14.7398884  21.9386924  83.9665705  13.8355890  22.3053578
  84.6561177  14.4536860  21.1134829  80.2445861  30.1613328  40.3110412
  80.0222703  29.2505466  40.0795762  80.7518510  29.9267204  41.1205632
  78.2404025  18.7966549  35.9526255  78.9320918  18.3454063  35.5435308
  78.2046630  19.6179127  35.4183221  75.0031916  23.8688280  47.2896808
  74.0269573  23.9463377  47.3300940  75.2429968  24.7795545  47.5551920
  80.0953206  22.4076448  32.9012815  80.0781305  22.6172257  31.9821060
  80.7954531  21.7441706  32.9872618  79.2900404  37.2170402  34.5790521
  79.7693819  36.4370298  34.2800669  79.7285111  37.4842620  35.4272067
  75.0991333  26.0958176  34.4627570  75.8021978  25.6192377  34.9989936
  75.6460548  26.8681583  34.1861619  75.2926798  19.1211872  24.5508300
  75.2390215  18.9658261  23.5772872  74.3345208  19.0828933  24.7851415
  63.8180018  11.1084658  28.0438035  64.4758209  11.4656093  28.6193658
  63.1427030  10.7290494  28.6023128  77.6242785  23.8460742  33.0204235
  77.0377438  23.3235413  32.3945850  78.4208762  23.2543176  33.0131308
  78.4527798  40.6345065  23.8880196  77.6412750  40.1170281  24.1578423
  78.8506437  39.9790716  23.2760977  76.3131438  25.5316080  42.6280454
  77.1584207  25.8078776  42.1816164  75.6699752  25.8133184  41.9579673
  74.7063210  24.8617731  39.4964793  74.4728546  24.3991958  38.6279708
  75.6658355  24.9977622  39.2945008  74.4311248  26.6506130  29.8308202
  74.5130999  26.1576331  30.7599149  74.0921194  25.8622096  29.3015955
  75.8324981  19.7356468  49.6562385  75.5377862  20.3767361  50.3184436
  75.5119955  18.9300748  50.0873218  79.1317446  32.7471232  32.0859855
  78.9379023  33.6703774  31.7305698  78.3476238  32.3056870  31.6633472
  77.0179825  38.7553599  36.4539810  77.8090827  39.2404549  36.1648754
  76.3081035  39.3312546  35.9839994  76.9666998  24.4583846  28.6578890
  77.3705358  24.0727586  27.8515024  77.8294472  24.6729408  29.1677556
  71.3758734  25.4333549  34.6174948  71.8651507  24.9909344  35.3223806
  70.5127224  25.0338194  34.6892579  83.1257674  42.9517398  32.7598015
  83.6649794  42.1926260  32.4809551  83.4963290  43.6863273  32.2531321
  90.2076288  15.6294131  40.3894663  90.5646408  16.1533359  41.1689334
  89.6662667  15.0066669  40.9135884  74.4716394  33.6814959  45.2281645
  74.6906512  33.9689853  46.1561531  75.0684150  32.8769620  45.1642277
  85.1537853  37.1036994  39.8269674  85.4154209  36.1833173  39.9912016
  84.9005144  37.3175050  40.7845841  78.6362338  38.9793145  45.3000830
  78.1551384  39.2732485  46.1588893  78.8147196  38.0562135  45.4884585
  79.5923683  21.5978067  46.6567076  79.7422128  22.5112538  46.3585710
  78.5983437  21.6002445  46.6569973  74.7711473  28.1255092  46.4206478
  74.1146160  28.3982568  47.1255508  75.6259756  28.2378881  46.8911849
  74.4939508  50.4769698  50.1164022  73.5450644  50.2556033  50.2032706
  74.4092051  51.3374703  49.5985714  79.4782296  34.8762979  40.9203922
  79.0977240  34.8437541  41.8346976  80.2897651  34.3647296  41.1325946
  78.2386129  22.7130796  44.1106024  78.4631400  21.7801180  44.0694582
  79.1265686  23.1110960  44.2008842  80.9808222  31.1622359  27.5018508
  80.7454252  30.2061425  27.2086486  81.1970380  31.4789461  26.5819907
  81.0609093  31.4999919  35.9643111  80.4857600  31.3161591  35.1999910
  81.9467790  31.4807558  35.5385812  74.0748271  26.0712618  44.7441417
  74.5352274  26.7626461  45.2605201  73.6807768  26.6087910  44.0242385
  72.5790894  25.6736577  25.5876589  72.5344595  25.5349005  24.6362114
  73.5689548  25.6038099  25.7303779  71.2115023  36.9605392  50.2838697
  70.3177511  36.5353579  50.3233714  71.6013165  36.5727913  49.4972738
  73.9208586  24.6444484  52.0439270  73.1437512  25.0835697  51.5296169
  73.6828937  23.7212091  51.7808724  67.8359626  35.8892360  44.0638328
  67.7345945  36.2708705  43.1919358  67.7856070  34.9185910  43.8163947
  66.0863315  11.5926145  29.3063961  67.0487439  11.4841482  29.1374250
  65.8297041  10.6534489  29.1420796  74.3203471  31.7742065  48.9828284
  73.9170017  31.0305337  48.4991245  74.0400734  31.5610586  49.9060863
  77.3957297  31.7417162  37.2090608  77.5038037  31.4657893  36.2854470
  78.2399567  32.1548701  37.3954789  78.7855369  15.2501713  37.6335275
  77.8540058  15.5639625  37.9624357  79.3033451  15.8262091  38.2544788
  73.3272530  40.5513978  51.8093646  73.5498661  40.3378590  50.8419041
  74.1386538  40.8578505  52.1465728  74.1908571  40.8746415  25.8607277
  73.4109577  40.5020450  25.3457608  74.7535536  40.1073701  26.0222063
  71.9230014  23.5689508  36.5550282  72.9141486  23.7955155  36.5858554
  71.9625491  22.6136683  36.6159553  81.4760252  27.7650978  44.5410823
  82.0318300  27.0938452  44.8965277  80.5616222  27.4643552  44.6886224
  78.7818673  26.6457867  42.0467666  78.8113812  27.4586550  42.4969020
  79.3079525  26.8596495  41.2410527  72.6825798  37.9586634  38.9046720
  72.3314355  38.3869474  38.1138169  71.8996080  37.3565881  39.0538344
  75.8911764  35.2128663  27.1316823  76.1365474  35.4810203  28.0615577
  76.8250024  35.0546960  26.7972370  77.0079644  30.5651817  48.4452222
  76.8816339  29.6391092  48.4866810  76.1810395  30.8754943  48.8996129
  72.2033237  39.3699118  33.9288879  71.6720740  40.1016092  33.4366368
  72.9757350  39.3150799  33.3433077  74.0849962  40.3409827  39.2097609
  73.3991836  39.6536807  39.3540448  73.9285379  40.4954929  38.2488060
  64.2569849  18.7952782  44.3726054  63.8546113  19.5536847  44.8853496
  65.1721342  18.8404682  44.5790332  69.0287186  32.2636800  52.5891838
  69.4097229  31.4371683  53.0451034  68.1716118  31.9549401  52.3065947
  66.9122997  18.1280775  37.9192681  65.9947986  18.4506471  37.9252006
  67.1660662  18.2582710  38.8581243  71.9010609  35.5378875  47.8002398
  71.1111822  35.0829392  47.7628163  72.1894795  35.7056323  46.8945606
  83.1405882  24.7905991  43.1890523  84.0310053  25.1377993  42.9337129
  83.0129727  25.2092556  44.0624204  90.2521028  33.4948606  43.1000515
  89.9351516  33.8667804  42.2503209  89.4211783  33.2044481  43.5033151
  74.2488374  20.9149730  43.0080512  74.3161567  21.5360002  42.2284631
  74.7816983  21.4064898  43.6565097  63.6528775  18.0740059  38.6258166
  63.4124768  18.6908525  39.3633522  63.1955085  17.2713576  38.7709050
  87.2656375  24.2843371  26.1391322  87.2734252  23.3231647  26.0097267
  86.7813777  24.3878940  27.0034953  86.2011565  23.0494698  41.4974493
  85.2246421  22.7709146  41.2545076  86.6187544  22.1930688  41.3732186
  73.3821828  18.7737539  52.4554452  73.9471037  19.4179965  52.9055547
  73.9970578  18.1399381  52.0472873  69.5229843  19.3796363  42.2131544
  68.9044239  19.9290589  42.6801088  69.8750612  18.7479987  42.8757008
  74.8749494  21.0611627  37.2196658  74.9295602  20.1283934  37.4858733
  74.2196841  21.4028218  37.8551229  75.0883166  28.4029302  26.2943483
  74.4027182  28.6086353  26.9651768  74.8221252  29.0454286  25.6068429
  71.7784814  26.5228361  31.9776718  72.7498719  26.3210366  31.8546932
  71.6472554  26.1700386  32.8994135  73.7341003  15.5589687  45.1729665
  73.6243004  15.6626599  44.2546518  73.9483393  16.4376542  45.5169674
  78.2021254  21.1815076  34.4651693  77.3806147  21.4855983  33.9868118
  78.8819402  21.6256135  33.9345805  85.0086998  37.4133047  37.1056084
  85.1332549  37.5005785  38.0909582  85.6248749  36.6597578  36.9438613
  63.3845681  13.1878935  34.6212639  63.1231714  12.3320047  34.2809438
  62.6937402  13.7912763  34.3505547  73.2158555  27.9608499  37.6696449
  73.0664786  28.0921713  36.7158045  73.0059214  28.8197106  38.0683823
  79.7757755  33.1000480  37.7836796  80.2403319  32.3797584  37.2501092
  80.3159133  33.0917286  38.5601909  80.0240629  27.4915815  39.8014066
  79.6685507  27.4344728  38.9133694  80.9082043  27.1883033  39.6417200
  69.3753982  34.6638412  16.0638780  69.9851350  34.9354067  15.3522204
  69.5342269  35.3251085  16.7592290  72.7395693  22.2984989  45.1616215
  72.4930527  22.3547194  46.1453639  72.6494161  21.3206200  45.0627318
  68.8828893  19.8880958  47.6996877  68.2343520  20.6688083  47.7061412
  68.3052115  19.2566703  48.1333885  75.7273433  18.3874648  35.8213762
  75.9864576  18.3809049  34.8453401  76.6669149  18.6507326  36.1100445
  77.4525956  26.9365317  33.3624111  77.3884288  25.9919761  33.5948534
  78.3274937  27.0015174  32.9764529  76.5195095  29.4448481  22.9941830
  75.6878343  29.8436263  23.1525513  76.8191958  29.9309682  22.1759406
  73.2481484  30.9251670  62.0745273  73.1113273  29.9507181  61.9482469
  73.3377429  30.9960632  63.0399618  79.8659514  24.3550764  20.7026821
  79.0766923  23.9334604  21.1479434  79.4089385  25.1970766  20.3846165
  67.9078319  23.0691183  25.8465197  68.6893533  22.9058040  26.3623081
  67.2914868  22.4220755  26.2071583  70.4147296  17.6714865  46.9027622
  71.2453447  17.5385082  47.4656549  70.1725952  18.5493229  47.1328702
  69.3653446  18.7434256  26.7084303  69.7760893  19.0536740  25.9271025
  68.4976790  19.1978371  26.5975923  71.8652168  20.8802174  37.7402416
  72.5139732  20.1519729  37.7148549  71.1916625  20.5706239  38.3684585
  80.9853520  22.1449685  35.9107184  80.9948541  21.2881916  35.5007884
  80.0681145  22.1751335  36.2459051  69.0231924  22.0952971  34.8667981
  68.7723960  21.4851729  35.6249962  69.0281650  21.4309212  34.1277845
  87.4478049  14.7887736  21.5756613  87.8595161  15.4656679  21.0235617
  86.8905014  14.3105141  20.8717163  73.8440391  19.6546687  31.8015175
  73.1500123  19.0124944  31.9382142  74.6457440  19.1664265  32.0577887
  72.9835572  32.7353497   9.7866458  73.8297919  33.0451252  10.1853324
  72.4210052  32.5776548  10.6201029  84.1570594  31.6090503  41.1127793
  83.8070470  32.5276466  41.3653992  83.8966459  31.6513693  40.1928390
  71.1919654  33.7604002  36.4204432  71.1060050  33.9289425  35.4516955
  70.2739430  33.9936752  36.7402881  86.2181066  26.6353412  47.0227714
  87.0409308  27.1348113  47.3273471  85.6781523  27.4098084  46.7075326
  71.8407274  32.9352900  61.4732467  72.5345981  33.6272970  61.6112480
  72.3501051  32.1551645  61.8006354  69.8414556  16.6284157  33.4874567
  69.4652928  16.7899147  34.3432906  69.8803558  15.6484883  33.5029678
  70.2216840  43.2895205  44.5129012  69.2629723  43.1766271  44.2706739
  70.5453315  43.7799199  43.7263361  76.7417254  29.9812688  39.3165432
  76.3190839  29.2330728  38.8377781  77.2238530  30.4884864  38.7017909
  68.6611135  16.2171469  48.2276104  69.3534745  15.6368825  48.6348222
  69.2396410  16.6515886  47.5262092  66.7725780  18.3780034  45.0269342
  67.1509668  18.5786028  45.9088301  67.2218883  17.5509041  44.7660755
  75.0030790  40.0988631  35.4481314  74.8016437  40.3437946  34.5061831
  74.1341142  40.3417233  35.8405589  82.0338429  36.4449572  40.2564794
  82.3361122  35.8738666  40.9991778  81.0609310  36.1858265  40.2280981
  72.6263408  40.9185192  36.6957962  72.3081925  41.6740618  37.2345261
  71.9966071  40.2201205  36.8475444  82.9983324  31.4856967  29.5129894
  82.3784135  31.2743656  28.7654174  83.7312416  30.8307864  29.2433236
  74.5396092  35.5219325  43.2254693  75.4281947  35.9553280  43.0943303
  74.7889946  34.9768725  44.0200124  89.6446388  55.3272321  56.9444244
  90.4782698  55.7525302  56.7564097  89.0608154  56.1096682  57.0779845
  87.1764352  46.0469142  44.0207521  86.9532033  46.9483374  43.7436642
  86.3197858  45.7609061  44.3869720  78.6919176  34.0027502  27.8946004
  79.2511443  34.7072954  27.5813102  78.6420836  33.3712655  27.1418536
  89.5027350  29.7446452  34.9392405  88.7337884  29.2935550  35.2772871
  89.1031046  30.6884059  34.8268650  77.8780724  45.9919148  40.6774521
  77.8877772  46.2342248  41.6050062  78.7965498  45.8130196  40.5163736
  92.2549199  35.8414945  40.8450973  92.6848872  35.9746898  41.7265738
  92.4714418  34.8810190  40.7206022  84.9892598  29.9089917  28.7417556
  85.5116397  29.2354458  29.1819774  84.9600504  29.5892950  27.8248815
  78.3583458  46.8287431  50.0671075  77.9454242  46.2403684  50.7260210
  77.5846779  46.9325473  49.4283926  82.8835003  56.8884678  48.4659735
  81.9428782  56.7381730  48.2586261  83.2241223  56.0272401  48.0567225
  87.5976883  36.6458048  43.7755641  88.1589018  36.5016048  44.5499908
  87.3541828  35.7455492  43.5229276  75.0821395  36.7836918  36.7257010
  75.6534849  37.5439987  36.6837544  74.2762607  37.1386428  36.3033364
  90.0576184  40.8965206  28.7969160  89.3623831  40.7586874  29.4255376
  90.5278238  40.0267462  28.8516272  74.9632970  34.1721826  37.9559399
  74.9456971  35.0137128  37.4600092  75.6623300  34.3343568  38.6193407
  83.2464885  44.7315462  35.2562475  83.3152645  44.0051932  34.5817317
  84.1800940  44.8117131  35.5212783  77.8375926  45.8539366  36.0311435
  78.1196569  46.4806547  36.6706602  78.5494562  45.8638972  35.3468294
  84.5693328  48.6262771  48.3638633  84.8734499  49.3463796  47.7918433
  85.4942787  48.2354327  48.6155520  77.9082837  41.1993092  33.5254520
  78.6125305  41.8156721  33.1931671  78.2112583  41.0608651  34.4371941
  76.2395451  47.3143827  34.1723984  75.4039991  46.7308092  34.0919752
  76.6213856  46.7854207  34.9041912  87.5070652  41.8307370  45.1288894
  87.2547838  42.2721953  44.2610989  86.6521507  41.9991360  45.6030242
  79.2037367  34.3524495  24.4220120  79.7987823  33.8698261  23.8893052
  78.8136390  33.5409003  24.9328973  76.3979171  52.2406381  35.8751119
  75.5946478  52.7221248  36.1092773  75.9919147  51.3628045  35.6247114
  90.8845301  50.9500323  44.2037637  91.1318326  50.4843388  45.0675211
  90.4425746  50.1831270  43.8109424  67.1016358  41.0039970  51.2381919
  67.4198124  40.2236938  51.6981464  66.7539304  41.5143845  52.0074546
  75.5485492   8.2670461  23.1564516  75.1796608   7.3772579  23.3867405
  74.7003054   8.7654031  23.0441302  80.4394531   1.6243638  22.5173078
  80.0717087   1.5733739  23.4039393  79.7639742   2.1929638  22.0645826
  74.5581349  18.8988837  22.0163063  74.4412929  17.9753054  22.3037719
  75.4658314  18.7860972  21.6040761  76.1536831   5.8423503  18.8153135
  76.8197646   5.2042548  18.8926089  76.6260540   6.6822191  18.6691953
  80.3335400  17.4737908  25.3084611  80.1439556  17.1478929  26.1610744
  81.2464510  17.8388749  25.4449604  68.6495500   9.9121397  31.1580223
  68.0899631   9.1673060  31.6540486  69.4650992   9.3897101  31.1090972
  76.4835012   9.5712107  32.2865254  76.4166230   8.6703810  32.6595341
  76.7451573  10.0967310  33.0765038  66.7229667   3.3910705  18.1367703
  65.8896396   3.7466181  18.4148171  66.4551123   2.5961943  17.5864350
  73.0350481   6.0722313  45.9876599  73.4347755   6.8783521  45.6056024
  73.5878120   6.0121458  46.8152483  75.8229405  17.6515191  19.2196276
  76.4992025  17.9945616  19.8664837  76.3748984  17.7486491  18.3979845
  67.8212970  18.2163349   6.5930313  66.9120220  18.1103483   6.9319280
  67.6192388  18.4568004   5.6729571  76.0845542  11.4054280  24.1677304
  75.3396664  12.0980456  24.0335688  75.5349171  10.6458969  24.5206708
  73.1855184  13.8340556  31.5956717  73.1307393  12.9651419  32.1708903
  72.6143952  13.5073840  30.8806633  74.3033629  11.3487122  37.5247423
  73.5104014  11.2409734  38.1707374  74.9667708  10.8891208  38.0914754
  72.2313548  21.6586974  34.0688935  72.3202831  20.7735011  34.4757865
  71.4573566  21.9616246  34.6016910  79.6376221  19.7976986  11.9274005
  79.0117330  20.0902505  12.6441845  79.1897921  20.1745995  11.1476384
  88.3539187  13.5436847  32.9011448  87.7731819  13.0689225  32.2786100
  88.1161169  14.4909019  32.7669467  77.2975799  18.3329247  21.3967117
  77.7457484  17.6703224  21.9898444  78.1101809  18.9570137  21.3612068
  61.9524020   3.8250418  19.7436984  61.0253595   4.1985382  19.8553192
  62.1468381   3.5529112  20.6224094  81.2730547   6.4724774  26.2443909
  81.6929232   5.5827438  26.3637801  80.3667842   6.3136953  26.6276977
  62.0859292   9.0768202  36.0285833  61.2178982   9.2688936  36.5003205
  61.7885658   9.2433943  35.0434064  75.1937559   8.3296490  26.2582394
  76.1519268   8.2050051  26.1506353  75.1897764   9.2176477  26.7262813
  70.5588323  13.8663572  33.7546430  71.3198466  13.3170935  33.9749235
  70.1028705  13.3666579  33.0564205  69.7789526  14.4404420  27.6267230
  69.3918086  13.6315769  27.2185201  70.5200041  14.0292856  28.1065144
  76.7501803  18.3051147  33.2326286  77.6506753  18.7043370  33.0429819
  76.8611958  17.4104078  32.9017374  72.0614566  17.5089891  32.2278199
  71.8930822  17.2601187  31.2675037  71.4139973  16.9148873  32.6491643
  79.7284709   9.6555720  23.5563134  80.5587054   9.3353554  23.0860942
  80.0067288  10.5384396  23.7946233  69.4941725  14.3996396  18.1971925
  68.9681531  14.6855360  18.9216256  70.0433856  15.1573294  17.9891839
  88.3409500  27.5019837   9.4290690  88.7672312  26.7515100   9.7700864
  89.0723651  27.9525374   8.8869061  82.1546969  16.9658736  29.1156213
  83.0400288  17.3047167  29.2878648  82.2225901  16.4781694  28.2908562
  87.1461726  32.3835456  18.8366177  86.9934295  33.1311774  19.4296835
  87.6416717  32.8787628  18.1185486  88.4054051  10.0412230  31.8970757
  87.7887603  10.7296954  31.8125997  87.8076458   9.2479627  31.9891799
  76.2783119   9.0042973  12.3868560  75.6524210   8.3464399  12.1602826
  76.5934225   8.8022914  13.2690229  83.7113557  20.5179133  31.2478808
  83.8689492  21.2533758  30.5544060  84.2047103  20.8585339  32.0074032
  72.6122731   4.0494783  17.4301173  72.6498946   4.2187580  16.4991236
  71.9024881   4.7064697  17.7108390  79.9540571  14.5391678  13.7564226
  79.2467924  13.8786178  13.5899967  79.9986079  14.4827009  14.7250244
  74.6892222  22.5842808  31.1057005  75.6052741  22.2949956  31.1153155
  74.2137598  21.7281563  31.2569036  77.4908302  14.8106432  32.7680250
  76.5198577  14.9776263  32.7792730  77.5596270  14.1629262  33.4724854
  76.0264469  27.8578134  37.6776662  75.7984956  28.0933877  36.7535715
  75.1126608  27.7801599  37.9745108  81.1708736  22.4711604  27.2537288
  81.5092309  21.5334181  27.3227262  80.3009590  22.2822679  26.9764381
  75.7094137  11.9259470  18.7820277  74.7837315  11.7407092  18.9552139
  76.1362430  11.4996452  19.6005261  91.0276743  20.4602408  14.3007039
  90.6991934  21.3758431  14.4568423  91.9624718  20.7191355  14.0794234
  87.6595843  22.6549772  30.2645344  88.5907328  22.6370510  30.6299535
  87.1938029  22.4183712  31.0896059  73.3209556  17.1846502  36.2675339
  73.3734121  16.2524545  36.3581290  74.2554405  17.4598330  36.3384154
  76.4368950  31.1595371  27.3614518  75.5491557  30.7992031  27.3750815
  76.7642350  30.8330971  28.2218979  76.7975525  26.5603033  16.1430473
  77.3822866  26.1299114  16.7781477  77.3669532  26.6260770  15.3364398
  75.3460170  11.5509016  41.2580690  75.4544874  10.9929216  40.4452395
  74.7721059  10.9381271  41.7894030  68.7170589   7.9126689  28.1610081
  69.4672040   7.3922347  28.5365172  68.7594566   7.6216788  27.2594598
  80.2149676  26.4274173  33.2050704  80.0805020  27.1541448  33.8698094
  80.9062454  25.9423904  33.6305832  75.2776350  14.2333616  26.5485486
  75.1920296  13.3564376  26.1989416  74.3993203  14.6118447  26.5376691
  69.4207728  31.9936064  15.9346462  69.3985948  32.8957781  16.2402048
  70.2274356  31.6771646  16.4012408  70.4578879   9.9750420  34.1161664
  70.2995654   9.0974827  34.5857678  70.3037791   9.6856342  33.1872137
  -0.0769662  34.1338422  68.7500053   0.1544145  34.5710276  69.5997624
   0.8072649  33.9237629  68.4399220  13.9203109  37.5725657  78.6251484
  13.8481235  38.5058989  78.8255761  12.9319257  37.3888152  78.6173879
  12.1746899  26.1362158  56.1219036  12.4508034  26.9897665  55.7216253
  13.0363033  25.6748736  56.1386376   4.2391734  33.0506408  63.6987215
   3.5048290  32.7093437  63.1276862   4.8780267  33.3037091  62.9929952
  13.5274532  28.4981679  72.2544005  13.8164475  29.3814888  72.5507351
  13.2848201  28.7685489  71.3315384   5.9786793  33.9347717  72.1534272
   5.0090478  34.1333565  72.3598196   6.2722784  33.7727500  73.0935374
   1.5770158  37.2506859  71.0551216   2.4988348  37.4505024  71.3053740
   1.5174199  36.2942474  71.2019170   4.4233584  37.0182304  71.1323404
   4.9100246  37.8872976  70.9313537   5.1969406  36.4283157  70.9077607
  -1.2061954  20.7559581  57.7638440  -1.5670378  20.7903547  58.6597199
  -0.3866973  20.2740545  57.9154267   5.9494868  29.6021239  80.0455785
   6.6353977  29.6646542  80.7188754   5.2964408  29.0955395  80.5886881
   6.9054994  43.0968506  80.0888471   6.7554329  43.4939493  81.0310035
   6.4915753  42.2191876  80.2757209  -8.2636702  33.1555397  74.3072596
  -8.3137646  32.6289523  75.1007428  -7.5591119  32.6345943  73.7973361
   8.7079113  38.6636206  84.6023531   9.5559349  38.6042398  84.0908070
   8.0955958  38.8386733  83.8920423  18.3024277  22.0934342  80.9669254
  18.6157216  21.5782341  80.1630633  19.1228781  22.6164222  81.1732744
   6.1294116  40.4959054  80.6039907   6.7374890  39.8366928  80.1299341
   5.9485748  40.0335561  81.3887968  11.2421635  40.5482572  67.4244279
  11.2641288  40.7630311  66.5038341  11.8062119  39.7476924  67.4530186
  13.5290314  30.4042844  70.0149475  14.1794344  31.0336376  70.4495286
  13.6802079  30.6613598  69.0592785  17.9809161  29.9932888  79.3386612
  18.6701586  30.0320891  80.0755163  17.2633727  29.5712088  79.9053797
  18.0041871  29.3307060  67.6322283  18.3115518  30.1838412  67.4457175
  17.3336297  29.5048715  68.3211211   3.4068137  39.8296303  87.3226139
   4.1163492  40.4919827  87.4661885   3.8641903  39.0018056  87.6254720
  14.3096326  31.1979873  73.4118834  14.4641669  31.6141189  74.2413115
  15.1615236  30.8487062  73.1141598  10.3935051  38.2455749  81.9213683
  10.0712464  38.5033792  80.9989014  11.3783089  38.3292940  81.6816045
  11.1999737  22.3839186  73.9675115  11.8319424  21.8977517  74.5900483
  11.8483567  23.0538676  73.6139960  15.0845701  26.0784868  59.6611460
  14.5003390  26.1762173  60.4195054  15.0478269  25.1485941  59.4290506
  15.2594926  27.6316818  53.4030186  15.8198403  27.4075689  54.1738483
  14.4030672  27.5725138  53.8401646   6.2774599  38.8442214  63.6519813
   7.0717663  39.0656868  64.2009704   6.0646049  38.0051973  64.0401302
   1.5334940  25.2654092  72.6666917   1.5087824  24.9093904  71.7161786
   1.4661648  26.2507490  72.4139761  21.5189491  55.5281493  77.5028518
  21.4588097  56.5183766  77.6835631  20.8491531  55.2425766  78.1259327
  21.2855551  39.7000518  77.2680061  21.0864055  39.1332077  78.0722487
  22.0292908  40.2229309  77.6842635  18.3417671  46.6983431  92.6651775
  19.3475436  46.6763883  92.7037932  18.2354079  45.7540995  92.9865700
  14.2041109  56.1331700  79.1795072  14.7816993  55.5139648  78.7112059
  13.8466563  56.6066004  78.3852626  -1.0699351  48.6288917  67.1276805
  -1.2884640  48.2873781  66.2386539  -1.9648402  48.7190342  67.4889968
   9.4808179  40.6228993  76.8515596   9.5133699  39.7670948  76.3426557
  10.2526301  41.0830630  76.4821597  14.4900917  53.6793144  77.4611314
  14.4969115  54.1554129  76.6142319  13.5057322  53.6011035  77.5601270
   9.7297434  45.5553177  79.2262188  10.2729766  45.4148762  80.0626956
   9.8377650  44.6941294  78.8355420  19.9933958  41.6478299  70.9788189
  20.7901517  42.2305222  70.9906739  19.9753317  41.2433984  70.1108507
   9.0383477  44.2171856  65.9894553   9.9906053  44.3037159  66.3445097
   8.7009595  43.4837708  66.5024292  13.3510558  34.9935799  80.1736476
  13.0227257  35.7496197  79.6706678  12.7432002  34.2545522  79.8706849
   6.6486418  40.2453143  75.4521133   7.2361149  39.4929734  75.8426524
   7.3065156  40.9602288  75.4568554  22.6812126  49.2141610  81.7112444
  23.4678974  48.6242092  81.8586592  21.9969884  48.5173506  81.9907335
  14.0816947  43.6494658  79.6527566  13.2006104  43.5697766  79.2101797
  13.8126305  43.2596817  80.5434113  29.2322043  41.8239439  75.1879625
  28.2876266  41.9829831  74.9693766  29.6497682  42.1998472  74.3964631
  13.3369926  48.8502144  75.6106259  14.3104789  48.7815092  75.4735083
  13.3287776  49.4171746  76.4115458  36.9944350  59.3462669  72.6508869
  37.7603434  59.8828746  72.4819889  36.9957519  58.7273168  71.8791067
  20.7800179  52.7335060  78.5503225  20.3500121  52.9020327  77.6612710
  20.7927479  51.7536728  78.5362642  27.0743145  40.1713101  82.6785124
  28.0173399  40.1426596  82.9067709  26.7189207  39.5245018  83.3478403
  14.0796980  50.4312289  84.3555037  14.6559195  51.2078806  84.5142736
  14.2587661  49.9441996  85.1714528  15.0409369  42.4336633  73.5272819
  14.4092281  42.9218605  72.9541697  15.6571184  41.9992359  72.8384341
  24.4526986  55.3956711  72.8234603  23.9333132  54.9935795  72.1027297
  23.8294921  55.2411721  73.5313014   2.3883150  44.1710998  61.8386239
   1.9057871  44.7664975  61.2956611   1.7285281  43.4408966  61.9296279
  23.0559527  44.6489865  81.2255781  22.7916023  44.2103833  80.4360782
  22.2516833  44.6464119  81.7428818  18.4066134  49.6935297  83.6950593
  19.2216750  49.7028317  83.0222889  18.0926682  50.5998531  83.3790930
   4.2267398  41.2583444  71.8561427   4.5211001  41.6200086  71.0465784
   4.6333545  40.3533862  71.8989422   4.2739120  68.2739983  68.8604305
   3.3636211  68.0672438  69.1898114   4.7752723  67.4897719  69.1494518
  16.3679509  40.1732812  83.1144884  16.1310870  40.9055934  82.4525363
  17.1649038  40.6504524  83.5054852  18.8554808  39.9427238  79.1932231
  19.1707446  40.7504256  78.7648639  19.6434423  39.3496399  79.1425917
  13.5948074  46.1305663  70.8957451  13.2432671  46.3985349  70.0108326
  13.1831008  45.2546524  70.9975612   1.1879777  43.0633896  65.6817657
   0.2503111  43.3574656  65.4621376   0.9536925  42.2395021  66.1618185
   9.4515946  55.0950637  78.2922421   9.9359512  55.8830861  78.7135219
   8.7746305  55.6091673  77.8298354   1.3292813  50.7505952  77.2989844
   2.0866736  50.6232465  77.8955744   1.6116849  51.5173514  76.7655391
  11.9190334  49.7092897  79.8463247  11.3253999  50.1950392  80.4295169
  12.6546208  49.5120631  80.4984647  11.5261626  41.8686575  75.7620942
  11.7008406  42.4608152  75.0320970  12.3428887  41.4336655  75.9268520
  11.8096047  39.2297346  73.6177719  10.9398177  39.3869656  73.1338285
  12.4095701  39.5787732  72.8871547  16.4324596  42.3572429  76.2362307
  16.6772296  41.4090669  76.3401812  16.1153889  42.3387873  75.3106650
  18.6863885  51.3529412  69.7759845  17.8275428  51.0661329  69.4352307
  19.2723576  50.5711782  69.4611483  23.0120435  54.5714015  80.3962123
  22.8689342  54.4641549  79.4704843  23.8905114  54.1247840  80.5206962
  33.4057713  40.9636611  88.3926953  33.2368736  40.9323456  87.4023004
  32.5474511  41.3585925  88.6272039   7.3366280  55.6939854  72.4623124
   8.0493136  55.2153127  71.9239150   7.1845855  56.4060081  71.7794326
  24.2227286  41.6813713  88.2604264  24.1555344  42.6390814  88.4454413
  24.1489741  41.7536703  87.2626869  14.8182867  33.5840396  81.7544522
  14.3111736  32.7455472  81.5350162  14.3198647  34.2582973  81.2371899
  23.2761410  65.4384904  79.0521198  23.3874637  66.2813669  78.5563384
  23.5672544  64.7931839  78.3592409   7.4364436  31.1453719  87.6139149
   7.3811176  30.1602490  87.5085102   6.5870014  31.3387646  87.1488909
  19.6879998  35.1982132  67.6404101  20.4433807  35.1744209  67.0070047
  20.2030300  34.9992936  68.4487630  11.5036236  44.3842032  66.8947847
  11.3842161  44.3089658  67.8652487  11.7804121  45.3262176  66.8679290
  12.4462625  46.4388935  76.2092965  12.6647905  47.4147804  76.1277858
  12.5989933  46.3462987  77.1842366  29.7697193  48.2697844  72.3895153
  30.0265007  47.7842239  73.1882246  29.0854695  48.9229986  72.7511900
  30.3007366  52.2874891  74.2618820  30.2047627  52.0390081  75.2179074
  31.2687090  52.4278424  74.2299022  17.7280865  54.9928819  71.2261769
  17.5186397  55.8785489  70.8869026  17.6698574  55.1479058  72.1406213
   9.9028854  47.7456859  83.0023728  10.8839403  47.7947749  82.8950417
   9.7125913  47.1946122  82.2336353   7.1093178  46.2459880  85.0817186
   6.9915438  47.1790133  85.1129812   6.2011949  45.9375452  84.8573678
  30.9597885  44.7771639  85.8144667  30.9006980  45.7394846  85.5451052
  30.0786219  44.7149531  86.2827174  13.0042755  59.3965567  75.6255686
  12.6127703  59.8650889  74.8170371  13.8946683  59.7846713  75.6305773
  15.3636944  56.0421287  81.6216989  14.8862261  56.1614564  80.7482142
  14.9874701  55.1736451  81.8805923  18.8908772  51.7780481  72.5513580
  18.6666998  50.9150313  72.0545618  17.9648759  52.1097929  72.5512600
  11.0439296  32.3522180  67.5985393  11.8742425  31.8677651  67.3865340
  10.4562362  31.6012782  67.8799641   9.4665348  51.8902554  71.5570906
   9.0200018  52.7639731  71.3122290   8.9862830  51.6910940  72.3716688
  19.8109180  18.4058571  79.0346100  19.3871407  18.4513569  79.9374476
  19.0681494  18.0501962  78.5139365  15.7688896  47.4158964  79.0818904
  14.8454713  47.1894279  79.0059182  15.6756931  48.4062397  79.0476896
  27.0880351  52.9209421  75.0641738  26.3063517  52.3811181  74.9111895
  26.7192894  53.5038369  75.7625805  16.5630375  43.8886515  78.4350460
  16.3611170  43.2364948  77.7428581  15.6714888  43.9390501  78.8628002
  12.0238542  43.5219724  64.3788554  12.9472980  43.1801131  64.3443322
  11.8692050  43.4822020  65.3462756  18.1113993  44.1154781  74.5536002
  17.8963789  43.6834521  75.3757942  18.7351837  43.4108025  74.1997889
  11.6796388  20.9099932  80.2837239  11.2718863  20.2748096  80.9586748
  11.2792128  21.7178165  80.6475220  24.9855285  40.5343567  75.2642593
  25.7413909  40.9688674  74.7574362  24.6363028  41.3644666  75.7130978
   2.7528682  59.3995367  73.7139031   2.6720809  59.8090186  72.8241106
   1.8831422  59.5072521  74.0417763   8.7721780  60.4391135  72.6933427
   8.5606396  59.9944789  71.8979105   8.8274966  59.7139130  73.3545711
   3.4259434  34.9502907  72.7986002   3.6163593  35.8341535  72.5172125
   2.8950880  35.1262866  73.6095223  -1.0455403  49.6036465  77.3528826
  -0.1361800  50.0493685  77.3064350  -0.8192208  49.0275847  78.1312465
   9.0717565  42.8633452  78.5829733   8.1870106  42.8327798  79.0365426
   9.0251874  42.0465461  78.0494659  17.9341862  55.9905822  78.1677468
  18.0716210  56.2842145  79.1114266  17.5545534  55.1173571  78.3117633
   0.0447333  54.0505567  64.3826443   0.8429129  53.4932833  64.5593691
   0.2872318  54.4032988  63.4651734  27.4450270  49.7380950  70.2590337
  28.1932746  49.3471925  69.8506486  27.8146829  50.2183733  71.0347368
   7.7779333  45.6416198  76.5468356   8.3706123  46.2906373  76.1855798
   7.7634751  45.7569008  77.5092892  21.6780540  40.2709807  87.7697230
  21.3603246  40.5613966  86.8469968  22.2984150  40.9954654  87.9464622
  11.2456480  48.6490370  74.0603247  11.9462919  48.9806872  74.7128116
  11.4358172  49.2880846  73.3103034  11.3473465  44.4123753  74.6264468
  10.9352428  44.9275643  73.9506384  11.6664717  45.0438633  75.2736581
   4.0661000  49.4321430  71.7392835   4.9633536  49.1107281  71.5694751
   3.6191463  49.1978668  70.9421930   4.5605261  37.9985951  80.9200537
   4.1934244  38.8448254  81.2026551   4.8498591  37.6163804  81.7541487
  32.0617598  45.7877375  81.9807167  31.3519241  46.4192475  82.2213902
  31.8998401  45.8135392  81.0074646  29.4542066  44.0818127  77.3857061
  29.6497881  43.1152644  77.4970183  30.1665484  44.3240311  76.7600731
  21.6118070  58.4017520  77.9982557  20.9824425  58.8318354  78.5531352
  22.2484903  59.0826146  77.7859353  35.9300918  43.2011023  86.4882597
  36.4752408  44.0715183  86.4614642  35.0515241  43.6167939  86.2682912
  17.0958020  57.6879124  84.4757590  16.8572999  58.2019883  83.7198230
  16.7396149  58.1955448  85.2280028   5.1510967  52.0718056  72.0367346
   4.5731264  51.3292313  71.7781412   5.8180489  52.0174281  71.2688247
  22.9700557  46.6002807  84.4813444  23.2640978  46.4248191  83.5736727
  22.6676015  47.4653576  84.5653371  20.7223926  33.5334509  86.6053926
  21.0887665  34.3008696  86.1642626  19.7988013  33.5554328  86.1965624
  11.1937848  45.0764884  81.4617601  11.0030715  44.5602035  82.2965139
  11.8035974  45.7046804  81.7984189  13.0321084  36.7079133  63.5609433
  13.6279476  37.3425866  63.9996739  13.6655321  35.9306594  63.5950084
  15.9369541  47.6888818  83.6181187  16.6701324  48.2957455  83.4738033
  15.4795910  48.0426328  84.4116670  30.3525640  47.8141210  82.7373729
  29.3674179  47.9281965  82.8028156  30.4521803  48.4364416  81.9948922
  13.7944871  62.6394509  85.3533614  13.0620807  63.0762358  85.8487250
  13.5106222  62.9423928  84.4670451  21.8055832  50.8108791  65.6015229
  22.5387451  50.6089925  66.2338365  21.3229295  51.4152369  66.2486774
  16.1183363  42.4365826  81.5527895  15.1973316  42.4746176  81.8386008
  16.1352540  42.9730057  80.7402763  13.1215920  39.4047148  82.6434035
  13.8430692  38.7849961  82.3560972  12.8645616  38.9153182  83.4517784
  14.0674952  50.3170790  88.4968683  13.2581857  50.8860429  88.5559218
  13.7074722  49.4332968  88.4039458  16.3390726  39.4062925  74.0056056
  16.0061555  38.6209084  73.5358154  16.4702156  40.0283437  73.2977932
  30.0428831  54.1254194  77.0831451  30.4472762  53.2481647  77.0190406
  30.4325265  54.5283335  77.8644658  23.4913314  32.8263574  72.1885950
  23.1713207  32.5320116  73.1485338  23.7715245  33.7094366  72.4356055
   8.5232439  39.6073137  64.9577009   8.1269830  39.8204082  65.8564040
   9.4122332  40.0091703  65.0484011  19.8999789  32.7683807  72.4077594
  18.8966855  32.8452205  72.5500527  20.0934609  33.7078084  72.5662321
   3.7980635  48.6932889  67.8977933   4.6366954  48.1716163  67.8320957
   3.2101675  48.2762658  67.2382034   3.3652951  51.5162784  67.3480227
   2.3971938  51.3963261  67.3792165   3.6515421  50.7018093  67.7201143
  13.5774412  40.3553218  78.5721344  14.4287126  40.7113092  78.9566903
  13.6889319  40.7580804  77.6775874  20.8331086  45.9163817  68.9710570
  21.7754766  45.7396736  69.2237792  20.9435513  46.9042414  68.7415651
  27.2673276  33.0589854  76.1645613  27.8111406  32.2629602  76.1137672
  27.5093536  33.4539895  76.9706933  19.7982424  42.0526338  73.7364115
  19.9518887  41.5092698  72.9805464  19.5500485  41.3019500  74.3633481
  10.0051112  46.2062501  72.8814819  10.3650704  46.8992555  73.5290024
  10.4945196  46.3897251  72.1221492  12.7880314  43.5785369  71.8959070
  12.0578503  43.6541188  72.5236882  12.3958954  42.9981427  71.1822545
  21.2139800  49.9599638  78.1972545  20.2923921  49.6098618  78.2080625
  21.6867099  49.1029367  78.3823720  25.4991395  67.7395611  78.3503527
  25.5967944  67.9957764  77.4104928  24.6784171  68.2180735  78.6309708
   3.3217298  62.8787537  77.1473215   3.5877994  61.9460273  76.8777215
   4.1484061  63.1262100  77.6039428   9.2862245  48.4175455  57.0303021
   9.0437404  49.2735231  57.4170464   9.4331207  47.9026741  57.8770692
  17.0524149  41.6472426  71.9438596  16.6799657  41.6552938  71.0259519
  17.9909413  41.9204510  71.8053971  21.7510907  56.1530077  82.8170607
  21.4550592  56.9001301  82.2930435  22.2555783  55.6485612  82.1117649
  19.8009260  75.2323268  74.8241477  20.2922885  76.0508102  74.6666520
  18.9076094  75.3868909  74.5157108  19.5637213  60.6260801  80.8685382
  20.0232069  61.0164663  80.1285140  19.5689080  61.4106559  81.4734546
  28.1771209  62.5515279  69.9227150  27.6165691  61.9377276  69.4361285
  28.1326898  63.3494047  69.3531458  18.5461827  48.9244742  68.5839028
  17.9399059  48.4558207  69.2576825  19.3654272  48.4084979  68.7971846
  26.2786536  78.7737113  68.8283249  25.2784193  78.7342586  68.7157457
  26.3606198  78.9425255  69.7534874  27.9355720  65.0913402  69.2576270
  28.0092901  64.7973884  68.2905017  26.9693702  65.0439751  69.3423328
  27.0962331  59.9066851  68.5372289  26.5787141  60.6405168  68.9000103
  26.4323880  59.3701116  68.1624603  33.4822690  67.5291781  78.0406507
  33.9926054  67.2504745  77.2824453  33.2253356  66.7009422  78.5058333
  26.8447654  65.4580939  79.7937370  26.7148689  66.0988086  79.0686120
  27.7363133  65.1506626  79.5825924  34.8365999  62.9970070  73.9247571
  34.0392247  62.6829795  73.4290159  34.4217333  63.3963213  74.7379234
  24.9760075  51.6428905  70.8397376  25.1868553  52.5611736  70.9449345
  25.5150105  51.3106235  70.1149190  30.5758060  55.1841853  69.4603783
  30.5465601  55.3314563  68.4822392  30.4258849  56.0946756  69.7640747
  32.0266428  59.5814572  77.8393552  31.6601382  59.1766154  76.9979823
  32.2341897  60.4669972  77.4361245  23.8817772  56.0806120  62.7214770
  23.4386588  56.2782624  61.8628325  23.4336817  56.7667983  63.2431615
  19.0511294  53.6356874  80.5924973  19.5916795  53.3439481  79.8427670
  19.4634455  53.1996532  81.3665670  33.9482888  70.1469672  64.4499338
  34.5058701  69.3674984  64.2901026  33.0839062  69.6908529  64.4925095
  25.0345941  67.9984322  75.6307945  25.4188733  68.8982018  75.4512083
  24.3813316  67.9696833  74.8692333  28.6070277  76.5498507  78.8717677
  27.6328673  76.7826405  78.7917122  28.5846113  75.7187327  78.3669167
  27.3434305  64.5258090  66.7944819  27.7614471  65.0084197  66.0012491
  26.7607145  63.8835616  66.2962362  22.6718311  52.0591113  74.5532822
  22.8451086  53.0539744  74.6828421  22.3835293  52.1728026  73.5940161
  20.2562891  65.1846415  68.3046890  20.2610626  64.3612851  68.8510828
  19.8021701  64.7569607  67.4679299  29.3720820  58.9184268  80.1906472
  28.8986196  58.3951938  80.9079841  28.8221553  58.7999975  79.4495610
  18.8465311  68.6782644  82.3034889  19.1816942  67.9146252  82.7416122
  19.4656816  68.7879048  81.5406917  16.6332812  62.8457241  83.3232854
  16.3736704  63.0189039  82.3917007  16.1933419  63.6077773  83.7826160
  17.8747793  64.1482620  75.3969445  18.4907592  64.5750835  74.7661923
  17.1137181  64.0135440  74.8421036  27.0422742  38.3388704  69.4367623
  27.6068521  37.5658700  69.5564195  26.9438937  38.6162626  70.3581231
  28.0466343  57.3330016  88.9666862  27.9800101  56.4615646  88.5713231
  28.9090901  57.3733987  89.3948191  31.1214167  56.0934634  74.4817116
  30.3053086  55.5452221  74.5656198  31.8043878  55.4272506  74.8565749
  38.0907222  50.5944312  84.5768948  38.1617038  49.9736164  83.8241591
  37.5845682  51.3187523  84.1158247  22.8000402  51.3745856  83.1129783
  22.7330673  50.4992305  82.7120195  22.3325126  51.2287577  83.9508892
  38.6421376  55.2957231  77.9726863  37.9796287  55.9980122  78.2064352
  39.4574145  55.6708079  78.3443161  32.1101477  70.1037962  74.6598192
  31.1624888  69.7559994  74.5113558  32.5222441  69.8768028  73.8341041
  27.5967259  65.0204916  82.7659277  26.7987429  65.6042132  82.6798643
  28.0666940  65.3223686  81.9186740  18.7564268  63.9549118  80.8897678
  19.5406296  63.6028082  81.4009780  19.3465712  64.2367328  80.1086620
  21.8985806  58.1547697  70.3072542  21.8961628  57.9662199  71.2229014
  22.7894855  58.5266362  70.1575219  17.6608605  60.8789798  90.2451523
  17.8672324  60.6258538  89.3200020  18.6246427  61.1121252  90.4722497
  14.8169882  49.8479016  71.0835654  15.1867031  50.3491481  70.3042075
  15.3977980  49.0543267  71.1188621  21.4300066  52.4319208  72.1003313
  20.5261974  52.0609440  72.3551784  21.1131012  53.1563427  71.4852369
  41.1397526  75.6568003  66.7629177  40.1433539  75.5299214  66.6002523
  41.1730342  75.0084771  67.5537180  27.0055977  73.1014452  73.7172806
  26.7763681  73.5138506  72.8324012  26.9836649  73.9364074  74.3098300
  39.8079179  63.1444748  73.0904607  39.7129481  62.4867675  73.8056457
  40.5854730  63.6024612  73.2340482  38.8227625  61.8574008  70.7826683
  39.3561322  62.2555492  71.5153768  37.9460110  62.2268219  71.0533482
  18.7918091  61.8148514  71.8977143  19.0532999  60.8613523  71.8351479
  18.4627205  61.8264577  72.8111525  34.1016036  60.4278071  80.5980507
  33.2274229  60.1269942  80.6112099  34.0079945  61.4131898  80.7999644
  25.8083712  57.6875466  72.8624096  25.3793774  56.7692788  72.9679349
  26.5908985  57.3642575  72.3115423  31.9303833  57.7162283  79.8910292
  30.9872276  57.9661176  80.1257964  31.9694159  58.2815367  79.0757446
  33.9167871  47.0921343  72.4532390  33.0771881  47.2218071  72.9345189
  34.5851640  47.2950459  73.1266017  19.0325951  52.7728159  76.3872933
  18.2236657  52.7436687  76.9090615  18.9742303  51.8570721  75.9865026
  26.9664700  72.1439982  78.1242144  27.5920249  71.5044722  77.6596579
  27.4566492  72.9864958  77.9892560   8.4769111  70.7878500  73.5982607
   9.1635593  71.4241915  73.5454198   8.2286037  70.6456662  72.7299000
  30.6622833  61.4883915  69.1192285  30.2074416  60.5527572  69.1373526
  30.1694576  61.8575279  69.8672930  15.8949731  47.9352461  75.4265346
  16.8370579  47.8176349  75.2609146  15.4079756  47.1692130  75.1858346
  16.2445258  64.0744025  77.9399491  17.0348557  63.9560838  77.3390281
  15.8583733  64.8591325  77.5461230  16.9663801  70.1869769  72.5307155
  17.1988910  69.3123522  72.1926850  17.6980234  70.7310132  72.2115110
  25.9766456  61.8132054  75.9619701  26.0423665  60.9883184  75.3927769
  26.4339982  61.4920695  76.7814455  28.8209140  58.7325915  75.2895660
  28.5670106  58.4651747  76.1991187  29.7859488  58.6072159  75.3386900
  28.4843311  72.9205575  67.4457885  28.7993306  73.8961897  67.3584613
  29.2106616  72.5312896  66.8693380  20.5249573  62.8135373  70.0991141
  19.9992774  62.6020785  70.9146529  20.2594809  62.0301213  69.5805359
  32.6614951  62.3346705  72.3207207  33.0881803  61.7751756  71.6774764
  32.5557130  63.1574210  71.7600174  19.4447911  54.1577641  74.0332298
  19.2052116  53.8863706  74.9501860  19.2171888  53.3544509  73.5022736
  31.0330725  74.5506885  75.5507161  31.3942866  73.6996982  75.9091630
  31.8499955  75.0939631  75.6650338  16.2383768  51.9694609  72.4760437
  15.9198288  52.4750618  71.6684063  15.6563650  51.1788891  72.3526193
  37.4976638  65.0702036  77.7489288  36.6795825  64.5849673  77.4491951
  37.7478167  64.4535837  78.4913941  26.3429124  59.3501873  74.9064762
  27.2420094  59.0894115  75.1441196  26.1882064  58.7569052  74.1553871
  19.8238779  59.3890611  71.6013164  20.6369521  59.0346283  71.1673233
  19.4263732  58.6056725  72.0128863  33.4503346  58.1823106  70.2612245
  33.1461033  57.7714685  71.0932299  33.1801580  57.6184281  69.5748934
  30.9864883  68.4741095  70.6162449  31.5233608  67.8598803  71.1820539
  30.1051346  68.2165371  70.9713859  31.0223060  55.0788475  79.3609652
  31.5144343  55.8882093  79.6167394  30.2298655  55.2237764  79.9607066
  28.3569448  65.2419298  85.4545131  28.3753126  65.2634909  84.4384118
  27.9430491  64.3682664  85.5405896  23.4613981  53.7039332  77.4543254
  22.7741600  54.3765415  77.2231114  22.8372786  52.9350056  77.6443992
  25.9004455  76.7840219  78.1621383  25.0358967  76.6305797  78.5393028
  25.6934025  77.3390456  77.4187211  -0.0167758  63.0864880  65.6432964
  -0.5058934  63.6590331  65.0203554   0.5984613  62.6778170  65.0531677
  21.0800189  38.5182440  84.7860880  21.9692464  38.8486455  84.5904438
  20.6812723  39.2885069  85.2544846  11.8475535  69.9611652  74.8806140
  12.8401093  69.9118524  74.9177166  11.6159643  69.0418652  75.1550770
  25.2729235  65.0802265  69.0422274  25.1788129  64.5205048  68.2023957
  24.5902725  65.7548199  68.8045447  22.1748356  58.6648494  73.4703002
  22.0535608  57.7051042  73.6111669  21.3253359  58.9919092  73.7186953
  18.6759382  49.2711399  78.9740838  18.3363033  48.3524175  79.0385509
  17.8826564  49.7247158  78.8420235  27.2845310  49.4711166  80.2254106
  26.9407104  48.5377382  80.3799471  26.8309544  49.8850943  80.9976280
   8.6545386  48.9809025  69.6476042   9.3326843  49.3295832  69.0812392
   8.8983580  48.0653507  69.6659974  14.2229373  56.7492943  84.5522041
  13.5064997  57.1700661  84.0098196  14.9467012  56.8356634  83.9265091
  19.6517229  58.2199938  85.0988303  20.1717672  57.4252165  85.0371274
  18.7548442  57.8699903  84.8239743  19.9843486  67.0784290  78.1766559
  19.7538924  66.5047541  77.4312541  20.9494675  67.1071006  78.0303732
  22.0726775  54.9253142  74.7859074  21.4950939  55.2610808  75.5122028
  21.4107854  54.4712523  74.2219475  33.2987862  68.6956360  81.3726981
  33.4572692  67.8765799  80.8528899  33.6285159  69.3376828  80.7343022
  27.1308837  52.6538241  69.0410731  27.1931831  53.5981422  69.1584043
  28.0318106  52.3712835  69.1472355  31.3546836  35.8647277  69.6216725
  32.1031510  36.4198178  69.9390418  31.5712509  34.9852194  69.9500455
  39.2969011  67.7322745  64.8573681  39.4697571  67.8534423  63.8757497
  39.9309618  68.4119218  65.1661603  27.2725421  62.5310990  85.1692029
  27.8711671  61.8838368  85.5164099  26.6212478  62.6524095  85.9697317
  35.5056909  71.2739770  66.1583484  36.3721910  71.4275043  65.6552466
  34.8546304  71.2326105  65.4140681  18.8572495  57.3902443  73.5142691
  18.7964866  57.4088365  74.5171608  17.9220984  57.5508403  73.2814253
  35.8622172  67.1500330  74.5402151  36.0014786  67.2814213  73.5945447
  36.7100270  66.7090775  74.7943013  21.5603586  71.4220722  73.0121141
  22.5235412  71.4830625  72.8724696  21.4231466  72.0952620  73.6950015
  26.5060360  53.7013733  65.4048515  26.2533348  52.9338243  65.9400263
  26.0200081  53.4904686  64.5754493  31.4624517  67.4613339  67.0466394
  31.4950223  67.6328477  66.1210116  30.6662895  67.9434823  67.3258378
  27.6386026  46.4226245  75.8192927  28.5370761  46.5362291  76.0943864
  27.6260085  46.8878448  74.9181426  26.0528894  72.0672371  60.5073489
  25.4410447  71.7994261  61.2036392  26.9252929  71.9689388  61.0275113
  38.0192273  56.8112452  73.5779733  38.3540562  57.6005164  74.1199383
  37.3521402  57.2910299  73.0764933  34.3638127  60.6954228  67.0257589
  35.3371892  60.5551394  67.1000411  34.1074521  59.8510857  66.6132263
  24.9699887  81.0791801  76.5809677  24.9096276  81.1081338  75.5980658
  25.3401503  80.1945621  76.7111493  28.3960335  75.3239004  57.0250941
  28.1742895  76.3046863  56.9745993  27.5086416  75.0337792  57.3108242
  23.7669266  60.4238759  57.2447936  24.2815570  61.2522520  57.4423741
  23.6537747  60.2029918  58.2214153  38.9028207  52.1834382  70.6357972
  38.0195079  52.5608252  70.3280396  39.3549640  53.0281877  70.7982266
  25.1587091  48.9079566  69.2167539  26.0916332  49.2147547  69.3582438
  25.1229825  48.2357762  69.9201413  18.1965348  53.2807083  64.4884056
  18.3915109  52.4634710  64.9436336  18.3136299  53.1741607  63.5683036
  31.0483236  47.6467913  68.0784284  30.0571135  47.8400377  68.0122877
  31.3595804  48.5373716  67.7370353  22.2766361  43.1495770  69.9344839
  22.7210846  44.0184336  69.8051680  22.3197102  42.8500497  68.9893375
  22.3187022  43.7414583  78.7405493  21.9963730  42.8558943  78.3577218
  22.0011236  44.3586897  78.0548447  40.0490699  61.8278391  86.4032244
  39.0732586  61.9538372  86.4365542  40.2936316  62.3013325  85.5768314
  30.6956748  51.4520172  76.8741387  29.9173816  50.8625766  77.0328440
  31.3448845  51.0647900  77.4503275  33.1495267  56.2508055  72.4640684
  33.0348287  55.5134841  71.7745445  32.2741428  56.1460292  72.8467938
  34.3276307  58.3401993  90.9357367  34.9262996  58.2928608  91.6967134
  33.4805464  58.3210987  91.4625583  35.3132579  60.3509905  87.1609042
  35.1739215  59.3933977  87.0263005  34.3756086  60.6417082  87.0843235
  16.0182005  64.8238243  73.2769386  16.3424401  64.7451554  72.3650234
  16.3094812  65.7536127  73.4540281  31.2642706  64.1577677  77.1087109
  31.2568867  64.7322748  76.3090444  30.2910887  64.0453359  77.2677581
  32.2934216  38.3557127  87.0524007  31.4267244  38.5400624  87.3883680
  32.4588043  39.0980237  86.4499520  41.6945187  62.2372577  64.8972460
  40.9701664  62.8184169  65.2117870  41.5952407  61.5076126  65.5741179
  41.8076714  70.1330110  66.4572286  42.1568797  69.2808343  66.7401683
  42.5646503  70.5039222  65.9685664  22.6678624  70.6056677  70.4282139
  23.5218756  70.9246917  70.8452626  22.1694808  70.4421652  71.2747639
  20.9571823  60.2741270  63.8922519  20.5852905  60.8714899  64.5571771
  20.2869155  59.5773899  63.8284853  29.4085571  60.4307423  73.1282705
  30.1689528  60.5351143  73.5979427  28.9212980  59.7460552  73.6793250
  38.8334838  72.1237856  78.4886004  39.0601907  73.0289794  78.4833821
  38.7882674  71.9122191  77.5052230  33.8625545  76.8633118  63.9729742
  34.5708909  77.2106531  63.4129467  33.3557414  77.7167564  64.0950857
  32.4713543  83.7649326  74.7438042  31.8880221  84.5185437  75.0797733
  32.3248457  83.1803698  75.5406062  30.4118541  76.1477658  80.9385019
  29.8015914  76.3479318  80.2075163  30.7176520  75.2794381  80.7983210
  27.2158121  83.6978719  80.6405587  26.6147028  83.2329952  80.0289952
  27.8209919  82.9359063  80.8981456  46.0162880  69.8442641  80.0555372
  46.0998458  70.1959353  79.1887016  46.1324734  70.6072505  80.6323989
  25.4114255  76.4768677  65.2131023  25.6173417  75.6027591  64.8047355
  25.6654063  76.2231038  66.1437893  31.9483591  68.0728394  64.2533727
  32.2346737  67.1426955  64.1446106  31.2423163  68.1297255  63.5650254
  29.4729721  71.9907335  74.6840484  30.0047501  71.7184614  73.9542047
  28.7859355  72.5675696  74.3445376  32.6872647  61.9074202  76.0567673
  31.9967063  62.4261487  76.4892587  33.4873930  62.3819442  76.1690856
  35.1963585  86.4077698  63.1283367  35.7485786  85.5810851  63.2913115
  34.5995190  86.3567435  63.9438292  20.1174910  74.0121741  64.2948257
  20.4409849  74.6759268  63.6610698  19.2914997  74.4765033  64.5889409
  29.4760349  71.6832753  71.3923869  29.6535994  72.5808866  71.1920636
  28.5556864  71.5577457  71.1154772  35.3020583  80.4228271  61.1845844
  34.2879063  80.2892935  61.0798476  35.4191724  81.1026322  60.5065097
  30.1235277  58.1003081  71.3286667  30.2158763  58.5691518  70.4579524
  30.4871836  58.8264172  71.9096006  23.2607792  81.1371800  70.1930469
  23.6884020  81.9601044  70.4040750  23.2354139  81.2183941  69.1762265
  37.3574310  81.7537267  71.4700504  38.0760423  82.2360004  71.9047327
  36.7078183  81.6156146  72.1922794  37.8786495  65.1502815  71.8930165
  38.5051446  64.8795429  71.1469399  38.3004889  64.7491592  72.6331934
  31.0804388  68.9838524  77.2846702  31.9069711  68.4622127  77.3172276
  31.1929907  69.5544900  76.5122844  34.6936935  71.7131398  54.5355287
  34.6069179  70.8793295  54.9342935  33.8223855  72.1058521  54.6345917
  26.3402508  74.1829429  71.2905737  26.7663835  74.9869028  70.9395211
  25.4087265  74.4292830  71.4473081  36.1628734  67.5723080  61.4727437
  36.2712722  67.7371347  62.4411961  35.9964201  66.6113944  61.5589022
  31.1647716  63.9968052  55.8478433  31.6281193  64.6931081  56.3750768
  30.2714054  64.3666046  55.7869512  40.6247493  68.7565751  69.8525316
  40.7600547  67.9853833  70.3903586  40.1793708  68.3099483  69.0527019
  35.6075693  71.4358378  76.5171131  36.0288066  72.3297320  76.5677165
  35.8399828  71.0694148  77.3895793   5.1618590  15.5638805  65.6740909
   5.7654741  15.4908596  66.4635695   5.8440758  15.5674937  64.9776160
   7.6248411   7.7915836  59.8677865   7.3945076   8.7328903  59.6455213
   6.7698215   7.3860174  59.4854001   1.0151024  18.3559167  53.5360603
   0.9543700  18.7350126  54.4243609   1.2567335  17.4352349  53.7335918
  14.2711085  10.1083268  56.3380127  15.1124726  10.3837100  55.9322861
  14.1473555   9.2337169  55.9059780   7.5042753  11.7609460  57.2134366
   8.1943110  11.0998534  57.3700764   7.6325691  11.9599335  56.2536189
  11.2242885  12.7706671  63.6675048  10.8164726  13.0072686  62.7995133
  12.0752147  13.2737739  63.6244029  24.2124535  11.9991330  39.9887286
  24.4229228  11.3851597  40.7002965  23.8966930  12.7599911  40.4903053
  11.0535742  16.3058212  46.3157966  11.8389289  16.5175027  45.8038719
  10.5154850  15.7887235  45.7201370   0.3648387  30.7258051  45.6172495
  -0.4826408  30.4188489  46.0573817   0.3568233  30.1674903  44.8241815
  12.8467008  16.8185028  64.9210756  11.9182136  17.0699482  64.7541229
  12.7282970  16.2308100  65.7030982  17.2560968  15.2635866  56.1194409
  17.8421088  14.8080706  56.7645049  16.4965561  14.7131991  56.2005092
  -3.9009529  20.4083572  57.4381992  -4.3171041  21.2698643  57.7405295
  -2.9751776  20.7274802  57.3142563  19.2340782  17.7372645  59.3327075
  20.1410367  17.9832952  59.7656033  19.4545741  18.0197071  58.4377642
  -2.0698347  13.8882935  62.3001370  -1.4812535  13.4614595  62.9582577
  -1.5560184  14.7603357  62.1957092  10.6688150  18.7250666  71.0934613
  11.1166183  19.6263167  71.1453268  10.6304403  18.4741881  72.0084605
   7.1396883  13.9063292  59.1144038   7.6576781  13.8457791  59.9031019
   7.4574361  13.1549047  58.5811627   8.7423479   9.7945198  65.1351782
   8.4681501   9.6199787  64.1841384   9.6484327  10.1661325  65.0220489
  24.2630743   8.7992986  60.9435804  24.8351608   9.4098252  61.3905242
  24.9294106   8.3610427  60.3748374  -4.9723771  20.4486556  61.3335511
  -4.8956975  19.4515287  61.2778787  -5.3521874  20.5463203  62.1933767
   5.3173371  13.9359832  55.5228893   5.2826511  13.0654223  55.0778260
   6.3538889  14.0631650  55.4300503   7.3330994  27.8495923  51.0293715
   6.7866916  27.0662251  50.9957039   7.0413437  28.3727961  51.7938210
   5.8212199  16.1048585  57.1683845   5.7296877  15.5365731  56.3640680
   6.4314532  15.6151091  57.7137597  18.4837397  18.5483317  50.9615351
  18.6953660  18.7468181  50.0909484  19.3671619  18.6149485  51.4264499
  12.6480195  13.4579951  53.3381180  12.5039478  12.6896527  53.9236460
  13.2829013  13.0849616  52.6675736   1.8195218  24.0193546  47.9801999
   1.4275330  23.1998829  48.3215831   2.7561509  23.6234596  47.8445100
   2.9665539  20.2942996  60.6994961   3.2484222  19.5191386  61.2089692
   3.8333462  20.5076352  60.2533304  16.0374710  11.7519749  58.6111628
  16.0932946  10.7891837  58.7326675  16.3126464  12.1093581  59.4473775
  27.2929936  41.5025807  72.2533734  28.1286228  41.3413920  71.7944877
  27.1114355  40.6252294  72.5785915  18.3417385  20.2174833  66.3736381
  19.0730644  20.5997141  66.8847746  17.6789202  19.9680545  67.0733949
   5.1692279  22.8462127  71.7772972   6.0122050  22.5450019  71.4123776
   5.0529417  23.6147845  71.1012597  12.4249298  23.6862326  60.7461822
  12.1378966  24.2024231  59.9634627  13.1762910  24.1643141  61.0227735
  11.0319443  26.6297164  60.8005053  11.1048603  26.0598529  59.9851678
  11.1742341  27.5209926  60.3486245  -2.4329791   8.2754432  57.0992340
  -1.5859965   7.9966055  57.5442661  -2.3028374   7.8818230  56.2156243
  15.3362461  33.9051363  58.6006405  15.8502034  33.2209611  58.0956887
  15.6806585  34.6860391  58.1747703   5.4905565  21.2072442  67.8829942
   5.8081546  20.2766454  67.9469349   5.8289587  21.5973571  68.6675826
   6.0623633  28.9233003  63.5857135   6.4791584  29.7292793  63.9488556
   6.0690265  28.3499727  64.3644965  24.3832956  18.8916704  56.1636221
  24.5800665  19.1216018  55.1935911  25.3223082  18.8121105  56.4577283
  18.4671733  20.3222967  60.5028022  18.8688047  19.5237294  60.1208632
  18.8361257  20.3243745  61.4254357  19.6325859  15.2609317  58.3842367
  19.5240349  16.0119590  59.0145888  20.5048233  15.5221232  57.9515817
  14.3218273  25.3307896  66.1370846  15.0301165  24.7360744  66.3831154
  14.1384018  24.9895157  65.2298312  21.1640769  27.6715978  51.5861954
  20.7109847  28.4716986  51.3413337  21.3020607  27.2853305  50.7030245
  19.0953275  37.0591331  58.4221207  19.7881861  36.3855971  58.4683537
  18.9947147  37.3109741  59.3585284   8.0234853  28.3909679  67.9060301
   7.7971250  27.5124041  68.3133027   8.9906596  28.3360107  67.9131066
  15.3284034  25.5254078  50.5050665  15.3155590  26.4750681  50.3796499
  14.8688347  25.2178261  49.7236662  21.9543765  22.1407466  55.7605024
  22.9228992  22.2835085  55.5240050  21.5584111  22.8799807  55.2212273
  17.3288958  26.5869530  68.2035721  17.7347839  27.4573714  68.3079716
  16.4045357  26.7718089  68.2851681  13.3593186  39.0511452  44.5729440
  14.2811735  39.2627345  44.4408385  13.0226845  39.8846831  44.9579035
  17.7548270  18.0300252  69.2416439  18.0993009  18.3634440  70.0515828
  17.0987858  18.7108239  68.9883518  16.4866182  18.1861523  59.4439326
  17.4184832  18.0347983  59.1544487  16.0869838  17.9412338  58.5260102
  19.2345546  33.7858183  75.4796078  19.9368886  34.4071660  75.1486464
  18.4528004  34.3566033  75.3672250  20.5577006  28.4333424  63.7836944
  21.3495717  27.8736073  63.9371664  20.1859198  27.8790393  63.0342927
  25.4361381  24.2279515  67.5318221  25.1085106  23.6052016  68.1771247
  26.2509988  24.5312203  67.9151672  24.0591065  35.5230340  72.9169696
  23.0722086  35.5846300  72.6038802  24.4194406  36.2086814  72.3493006
  24.4797111  22.8315374  54.9877138  24.5768792  22.2956115  54.1412784
  25.3693303  22.7103446  55.3441548  17.0220119  31.7652124  64.3107754
  16.6364646  30.8726007  64.4683468  17.9707962  31.4335050  64.2799899
   4.6602743  40.6221712  58.9718353   4.5495809  41.5434845  59.3694505
   4.0426755  40.1150731  59.5239582  15.0069619  21.3259108  43.5437283
  15.0833334  21.5285760  42.5649717  15.5477169  20.4928441  43.6063709
  12.6417806  23.3154143  52.9978997  11.9873915  23.7028117  53.6279524
  12.0389475  22.9260084  52.3537357  23.1290542  32.0153488  68.8711953
  23.1071401  32.5672563  68.0649782  24.0931981  31.7331888  68.9058698
  13.4816310  35.0998123  59.8557590  13.2007079  34.3976807  60.4672729
  14.0997813  34.6125439  59.2727488  17.2059738  35.6669188  74.9000362
  16.4546878  35.8951802  75.4810713  16.8435400  35.9274423  74.0287852
  12.5799214  19.7319973  65.7059244  13.2713604  19.8997940  64.9958528
  11.9379351  19.1923766  65.1965403   8.7362106  22.9998417  60.2531207
   9.0895403  23.0633356  59.3544072   8.3684069  22.1417063  60.2975932
   7.7003056  40.0251637  61.2711343   7.3776508  39.3023091  61.8325219
   6.9711187  40.7195494  61.5116509  17.2470766  26.4339467  79.7020179
  16.8292142  25.6933401  80.1752007  18.1708159  26.1332097  79.5735137
   9.0161158  31.8879436  70.6150644   8.9661132  31.8108400  71.5882749
   9.6494364  31.1783425  70.4479425  11.4368440  27.2047577  73.3447474
  12.2023532  27.3402465  74.0166665  12.0198413  27.4356648  72.5702904
   0.7040304  25.5289202  65.4678019  -0.3007965  25.4013723  65.4917617
   0.6480970  26.2726734  64.7532901  11.3998720  18.0768023  59.0187187
  10.7259614  18.4347462  59.6265680  11.6446400  18.8836490  58.5256977
  19.8001373  24.7193288  62.9763917  19.0658093  24.2428432  62.4689980
  20.1003819  25.3845020  62.2835447  14.4767550  28.2114342  49.1173479
  15.4542637  28.3070527  49.3557782  14.1457022  28.9721778  49.6581015
  25.5460383  26.2673932  65.6005086  26.4195886  26.2194304  65.1204466
  25.5360598  25.3290240  65.8964769  18.5574843  34.5699831  63.9830441
  18.2756385  33.7212509  63.4987730  19.4964154  34.2538433  64.1794659
  21.8756394  29.8951874  70.6877958  21.8105824  28.9457605  70.5156456
  22.8171795  30.0377069  70.4263930   5.1100245  22.6598355  65.6954230
   4.9892854  22.2317893  66.5935095   5.2405627  21.7980382  65.2355806
  14.4442713  23.1353209  63.8552929  15.1836976  22.7055545  63.4449943
  14.1970972  23.7674662  63.1252872  -3.9988629  15.7064579  59.4634256
  -4.0911093  14.9427067  60.1051501  -3.1650409  15.4689760  59.0227007
  16.4204846  15.0127934  72.3048958  16.0648328  15.9287219  72.1310060
  17.4086726  15.2888277  72.3831277  20.2041944  18.0214291  56.7162587
  19.3237554  17.8061454  56.3809927  20.4939496  18.7145959  56.0504475
  14.0649823  30.4582278  50.7039181  13.7333651  30.4872906  51.6246439
  15.0297724  30.6741156  50.8577485  17.8613568  11.2708025  66.3600197
  18.5066547  11.8968812  66.0093637  17.0746928  11.3209845  65.8960614
  10.1553693  24.8451366  68.2498233  10.0073170  25.6889571  68.8517756
   9.1725637  24.7113572  68.0881237   8.9136548  16.7084963  62.1404692
   9.2835598  16.2473790  61.3335938   8.6122248  15.9248010  62.6125111
  22.2327331  27.2503884  76.3608953  21.3176077  26.9798231  76.5386665
  22.6001606  27.3200276  77.3048475  20.4826368  24.6735340  55.3622224
  20.0119355  24.7077968  56.1818172  21.3425704  25.1626524  55.7037941
  13.1596399  30.2604966  60.9713689  13.1033803  30.2682901  59.9663371
  14.1551170  30.4120486  60.9898149  16.9735918   4.4482730  65.3639794
  16.9156968   4.4865905  64.4127351  16.0816667   4.8997912  65.6057541
   1.5481578  23.0040662  66.0990720   2.3288650  23.5234133  66.2623257
   0.9355399  23.7023004  65.8960028  26.2395547  17.1117909  70.2494127
  25.9368778  16.7108960  71.1445175  27.1238802  17.3209273  70.5021154
  20.4025060  30.7786413  52.3817626  19.6991219  31.4921714  52.4139882
  20.2823496  30.4953163  53.3449583  24.9592315  23.8714633  74.3956073
  24.2548823  24.3696167  74.8567685  24.6095477  22.9884831  74.3607530
  10.4534761  35.8681267  64.1835499  10.1469008  36.7446336  63.7895017
  11.3970709  36.0544447  64.0114298  14.3935903  24.8436103  56.4687881
  14.6535890  24.0978848  57.0881646  14.6884517  24.3569149  55.6136696
  16.5632204  26.1780288  63.7431718  17.1021901  26.7945944  64.3262054
  17.3411176  25.8925962  63.1804644  16.0554742  25.9641362  71.1266989
  15.7629441  26.7461386  70.6125580  15.2825507  25.3790137  70.8854295
   3.8806528  21.5263679  55.7244236   3.9451670  22.0095782  54.8835965
   3.1571331  21.9944902  56.1305913  14.3872638  32.6601235  54.9712455
  13.5332233  32.7790852  55.3274995  14.9713085  33.2516055  55.4860086
  13.9662679  31.1833786  67.3717087  14.4729541  31.6867393  66.6830336
  14.0583485  30.2858042  66.9626096  14.2107106  28.5882694  66.5622305
  14.0895004  27.6113015  66.6275496  14.7334865  28.6529651  65.7222411
  10.6113446  23.8107516  62.9148744  11.3984087  23.4307126  62.5276176
   9.9890111  23.8108773  62.1556862  21.6874964  18.1798601  47.6906477
  22.1134816  17.2742342  47.8260182  22.2697058  18.5255865  46.9800517
  26.8501138  33.0899439  70.6184915  26.4346820  32.5267637  71.2859862
  27.4305991  32.4986893  70.1164043   6.3923189  34.2185834  65.9286580
   7.4029787  34.3467598  65.9505909   6.2136774  34.2178225  66.8573756
   3.9200549  21.7870348  53.0233487   3.3621270  20.9998778  52.6605257
   4.6015726  21.2771748  53.5335048  26.5490853  36.7876320  82.1621619
  26.6036028  37.3298658  82.9774433  27.4980114  36.6512122  81.9948330
   0.7670812  19.4706905  59.0387788   0.3255602  19.2061553  59.8334708
   1.5410334  19.9348469  59.4097925   5.1638964  42.6705423  69.4724591
   5.5014888  43.5476811  69.2174026   4.9400057  42.2692016  68.6563117
  11.5748722  33.2354057  56.1619908  11.1542847  34.0943327  55.9847589
  11.4918365  33.2208384  57.1671056  28.7629711  17.6749155  71.6378571
  28.8250346  16.8625762  72.1789174  29.4925813  18.1999050  71.9151022
  16.8153087  24.5896203  66.1296152  16.8427968  25.0358573  65.2197433
  17.0982381  25.3790100  66.6721060  17.6287851  22.7170830  55.8097841
  17.4496365  23.6175437  56.2189437  16.7236757  22.6734128  55.3737056
  22.0837723  24.9663209  60.7568149  22.2140971  24.0637901  60.3655173
  21.5642250  25.4032404  60.1076263  28.2678532  19.3461458  60.2658657
  28.8545641  19.1750311  59.5170574  27.3974856  19.2277531  59.9535181
  14.8880821  38.3576613  64.5453640  15.7027743  38.3800138  63.9647306
  15.1697519  38.9377408  65.2785813   9.5398613  26.4501156  50.5933285
  10.1300001  26.8848124  51.2195162   8.6707378  26.9699297  50.7875149
  27.8238806  24.6869182  71.4919743  27.6146604  24.2918229  70.5724691
  28.7590493  24.4162533  71.5759830  27.8623295  25.8991631  67.8466823
  28.6965203  25.9908783  68.3308017  28.1485041  25.3827403  67.0917312
  10.9654050  38.4102504  57.4466058  11.7920020  38.9668483  57.3994015
  10.3129501  39.1473635  57.2130544  20.0181274  25.1176261  58.2426762
  19.3366694  25.6913425  58.5775245  20.5428876  25.7906063  57.7379022
  11.0614619  36.7907416  70.7830855  10.2236669  37.0414185  71.1289231
  10.8177664  36.3946816  69.8948287  13.3884908  27.4255590  69.4038682
  13.8786553  27.9968614  68.7844712  12.7795288  26.9871922  68.7838192
  11.6337476  36.3651243  77.8615192  11.9991230  35.4728191  77.4916482
  11.2378605  36.6951395  77.0719959   9.4363461  35.7472116  82.6706325
   9.8707347  35.4905379  81.8258794   9.7428039  36.6979938  82.5916975
   3.2831836  29.2638767  63.7123872   3.0124478  29.9456315  63.0421684
   4.2523202  29.1932581  63.5532544  19.2191811  33.4939203  56.9108785
  19.8095065  33.3953778  56.1456458  19.6530519  34.2654087  57.3615160
   0.9961310  24.3466818  70.2061960   0.9982758  25.0655507  69.5216923
   0.1180141  23.9609559  69.8837976  20.5679297  32.7274961  62.7176891
  20.7689254  33.2893365  63.5074854  20.0107996  32.0318005  63.1050109
   2.4975082  27.9020315  70.1748723   2.0685530  27.1363928  69.6661836
   3.0824213  28.2016990  69.4706943   5.7487031  13.5500724  61.5946577
   6.4840995  12.9680602  61.8421424   5.4538972  13.1690998  60.7105781
   6.9358228  20.1734673  63.0637266   6.1986119  19.9059972  63.7046342
   7.6530610  20.2817964  63.7342629  19.1822230  33.9053966  60.6385446
  19.8098473  34.4485949  60.0938346  19.7171375  33.6895748  61.4040610
  13.3310494  28.1314432  62.9898419  12.5911508  28.3072452  63.6324880
  12.9246705  28.6056335  62.2309503  12.8065863  20.9073751  61.0535223
  12.3988047  21.7766310  60.8161532  13.6683580  20.9781751  60.5440017
   5.4974428  27.1768033  65.8774663   6.2840172  26.7139594  66.2790470
   5.0778792  26.3856894  65.4715771  22.7874169  18.9190702  76.0455513
  22.3781986  19.3908608  76.7897856  23.3180089  19.6250626  75.6456202
  19.1386889  38.1673021  55.9273322  19.0518198  37.6705856  56.6859409
  18.5667169  37.6262999  55.2617954  11.8407298  14.7133884  66.8026242
  11.7577620  14.2015143  67.6260100  10.9945145  14.5357451  66.3915500
   8.7148768  17.6060488  56.2982432   8.3174876  18.1304089  55.5831555
   9.5462956  18.0070120  56.4421607  16.9931511  28.7383502  49.7969490
  17.7886634  29.2730098  49.3951655  17.2285296  29.0096846  50.7168638
  17.7941822  38.1807411  63.7580554  18.4381357  38.4670427  64.4111089
  17.6408989  37.2491216  63.9782593  14.5320130  34.4486337  62.8437619
  15.3380737  33.9226928  62.6228268  13.9851689  34.1920723  62.0444532
   5.9047245  26.2595369  53.4874108   5.0961921  25.9130398  53.8861194
   5.8231500  26.0891895  52.5726614   9.7227002  35.8979809  75.1917609
  10.3639990  35.1353441  75.1110793   9.4686542  36.0581611  74.2708764
  -5.2390223  23.6076272  66.2824888  -4.9656458  23.8418235  65.3607119
  -6.0172676  24.2607557  66.3297489  42.1447566  37.4177872  79.7070055
  41.1486783  37.6205396  79.7477623  42.0806095  36.4634837  79.9192860
   0.7365185  39.0059076  93.2034534   1.1875440  39.6694875  93.7296816
   0.2396443  39.5769368  92.5466563  17.8322282  26.5144514  59.3086353
  16.9276543  26.2800554  59.5803695  17.7125474  27.5204733  59.3336360
  24.9783017  38.4238387  94.6830069  25.5515668  38.3372041  93.9005697
  24.2091025  37.8868755  94.3552408  27.1101239  35.2913010  69.1989498
  26.6912942  34.8445594  68.4535500  27.0490021  34.5876604  69.9213136
  13.2127916  22.6538335  68.9444622  14.0545125  22.3794348  68.4999177
  12.5517384  22.1407700  68.4765347   1.9839787  21.9223706  62.4466181
   2.6835449  21.5118697  63.0159204   2.2025100  21.4834662  61.5930309
  16.7966453  28.1687994  74.8890080  16.5665201  27.9056590  75.8066387
  16.1279975  27.5951001  74.4289154  26.4009293  28.2212270  67.2857902
  26.0752680  27.6269684  66.5688590  26.8125552  27.6166918  67.8934847
  21.5403414  28.6645077  60.1246011  21.6078992  29.6457135  60.3839970
  22.4226561  28.4066437  60.4438266  21.2235887  25.7016678  65.0303293
  22.0614603  25.7502908  64.5198778  20.6485498  25.3967711  64.2802783
  32.8565236  29.7019971  69.5958020  32.1254726  30.3430434  69.6944518
  33.5704415  30.3233623  69.8369679  17.5936176  27.4409381  55.1076400
  17.5694055  26.5668149  55.5920295  18.4536256  27.4205506  54.6715855
  21.0160313   7.4079311  70.5265684  20.2787088   7.1194387  69.9740119
  20.8620656   8.3653640  70.6149342  26.0108284  18.7170408  63.7810192
  25.7587938  17.9930218  64.4472894  25.3370222  19.4050872  64.0256585
   9.3026782  23.0585193  57.6994681   9.2614622  22.2131306  57.2420171
   8.5020647  23.4996408  57.3265964  17.6393110  22.4930359  58.7501547
  17.9359391  21.8012226  59.3844668  18.5350993  22.5804109  58.2741966
  15.7436799  22.2799851  70.8456708  15.3080122  21.6653199  71.4838503
  14.9625398  22.4128304  70.2298157  19.2973344  14.4588804  66.1170568
  19.7719947  15.3529443  66.0871474  19.0019326  14.4354532  67.0171885
  15.8055120  19.5427325  61.7522244  15.9078518  18.7219189  62.1676048
  16.2811919  19.4864588  60.9252120   1.9684722  24.7270533  53.6009972
   1.0191875  24.6746803  53.3604877   2.3543274  24.0885624  52.9734861
  32.6914581  10.5044616  59.0603834  31.9663669   9.9708514  58.7004042
  32.6337078  10.3034098  59.9886441   9.4281107  19.7598516  68.1048877
   9.5791026  20.0966598  68.9897818   9.6544080  18.8019057  68.1374490
  20.6627759  27.2327860  70.1013660  20.0242076  26.5359263  69.7321009
  20.8312610  26.8154801  70.9735279   7.6420059  38.5545513  52.2577965
   7.3585305  39.2111559  51.5653281   8.5625012  38.7418068  52.3510530
  29.7426744  17.5640257  64.9731443  29.3012373  18.3267054  64.5744083
  29.2843510  17.5433153  65.8606435  24.0812366  22.8806128  57.7722962
  25.0369011  22.7674332  57.4650090  23.6648094  23.3373982  57.0489792
   2.6674239  34.5396157  65.4135336   2.7116830  34.3342309  66.3233631
   3.1552172  33.8279101  64.9797465  18.4512574  33.2832131  52.3301058
  18.9987079  33.9067001  52.8207975  18.4277326  33.5718287  51.4113311
  28.2825413  23.8009819  66.2958161  28.0373994  22.9659810  65.8692784
  29.2410031  23.8288316  66.1294549  30.6824746  24.4074087  61.7967186
  30.6290264  23.5084375  62.1820793  29.7648692  24.4998819  61.4549166
  14.8236808  33.2065092  65.1793375  14.6355986  33.7661551  64.3921256
  15.6393140  32.7376406  64.8367872  19.9254322  26.8316386  54.0023464
  20.1424015  25.9399016  54.2691656  20.4878650  26.9639969  53.2156785
  11.6509507  19.6020725  54.2379681  11.0673804  20.3612129  54.0539636
  11.6042131  19.1831239  53.3458659   6.1454051  26.4141384  71.9341688
   5.9102629  26.2435688  71.0096269   6.8847150  26.9834144  71.7818802
   3.1360053  34.0673088  68.0376786   3.5248923  33.2206020  67.6954940
   3.1913240  33.8119675  69.0340565  18.3404162  47.0280403  75.0589073
  18.1997545  46.1341865  74.6938476  18.0552467  46.8044869  76.0321897
  21.9147232  16.3411161  51.5072109  22.8331162  16.2877715  51.0375391
  21.8820547  17.3239563  51.6443162  17.5968314  50.9859028  66.5905760
  17.5238591  50.0089380  66.6378596  16.6835607  51.2527941  66.5033494
  23.7878400  50.3463412  67.3479510  24.1431340  49.6053038  67.9424637
  24.6100960  50.7437223  67.0753011  25.8641408  41.4886985  64.1287984
  26.2068275  40.9394861  64.8696049  25.1023329  40.9311526  63.8471499
  13.7260998  41.3193855  63.5543839  14.2408773  40.5567986  63.2559222
  13.9013038  41.9820367  62.8480911  19.9288561  45.0208672  61.2320633
  20.6155086  45.5519734  60.7662099  19.8861479  45.5250882  62.0678566
  27.2083578  37.8627948  63.7062446  26.2677567  37.5573470  63.8087648
  27.4291054  37.9037090  64.6814191  17.4620674  42.4329909  58.3095467
  17.2737341  43.2220374  58.8565818  17.4444706  41.7013558  58.9561715
  24.3117164  47.2115653  58.4644171  24.8678812  47.6647492  59.1654526
  24.2447039  47.9937715  57.8515851  12.8532393  52.7720357  52.6667227
  12.9567058  51.9455401  53.1870670  13.4760832  52.5740535  51.9078906
  24.2883478  35.6822835  75.5120189  24.2603881  35.7250345  74.5059927
  23.7493748  36.5024364  75.7077280  25.2390078  42.3132223  67.4317847
  25.1632868  41.8084256  68.2511803  25.4641923  41.6340515  66.8024779
  12.3953802  50.0312948  71.9235278  13.3349715  49.8120126  71.8016612
  12.1786610  50.4260999  71.0938902  19.8063395  45.6192893  78.6195651
  19.2471263  46.1195360  77.9537292  19.3370888  45.9155833  79.4355690
  29.4160755  39.4834290  68.2303824  28.6598426  39.7677276  68.7617391
  29.4639773  38.5190201  68.3927259  15.7207593  38.6897062  60.4365687
  15.7906371  38.5574871  59.4440038  14.7898547  38.2863042  60.5593906
  19.3988847  30.8443852  64.3560027  19.7111468  29.9648649  64.0042174
  20.1642646  30.9866749  65.0009758  17.9146666  36.2043851  54.6603218
  18.6433435  35.6498885  54.3564582  17.4042650  36.3730036  53.8543853
  17.1170256  25.1808662  56.7228771  17.1979747  25.6542824  57.5498950
  16.1561064  25.0864547  56.6292211  21.7976483  31.3605966  60.7904857
  21.4711289  31.9572883  61.5346913  22.0163510  32.0798189  60.1353110
  10.7979220  49.1825536  62.3719432  10.0801070  48.9818995  61.6928418
  10.5761532  50.0781776  62.6702177  13.9602893  46.3098672  65.7494840
  14.1847855  46.7073507  64.9294112  14.7956306  46.2809932  66.2151100
  18.0469869  37.3928912  60.8008838  17.3119800  37.7687353  61.3836174
  18.6561462  37.1945332  61.5713063  27.9848244  34.3702684  63.2094792
  28.9210366  34.0648522  63.0594325  27.6874920  34.3429661  62.2534067
  18.5859667  39.9917757  59.4983912  19.4781128  39.7516505  59.8008806
  18.1219053  39.2248071  59.9091971  17.0692902  40.3618587  62.5010025
  16.6298636  40.0147019  61.6962904  17.4938219  39.5685992  62.8411339
  29.1295306  43.6017249  69.7891747  29.3003603  42.8290928  70.3818678
  29.5069355  43.2726375  68.9698772  17.3707908  48.2694592  66.1834978
  16.9725680  47.3755291  66.2789191  17.8172229  48.4078718  67.0472386
  26.0694464  51.4896891  66.8394865  26.9492725  51.1232638  66.5865259
  26.2499409  51.8516193  67.6949343  27.6105474  37.4472649  66.2864607
  27.2218336  36.4917778  66.2386695  28.3468989  37.2163064  66.8872805
   9.9807406  33.2105588  62.0691284   9.8494926  33.8458163  62.7915704
   9.7930458  33.7569110  61.2908331  15.6145058  29.1928678  64.1109618
  14.8297854  28.8888044  63.5544550  16.2736903  28.5177230  63.8722255
  27.1825071  46.4213312  62.1935121  27.2465455  46.8867983  63.0697696
  27.0184059  45.5239632  62.5540247  19.9813839  46.0131894  63.8290075
  20.8055231  45.7099212  64.2889742  19.3485853  45.4259814  64.3247683
  25.4852100  40.8399793  69.6558695  24.7186520  40.3038511  69.8882379
  26.1819938  40.1738591  69.6326372  25.8139431  39.7777934  66.4141699
  26.4500390  38.9891453  66.5676558  24.9834133  39.1995631  66.6081834
  29.0398797  54.3895875  65.7172074  28.1344148  54.0998119  65.8048098
  29.1824825  54.3634858  64.7369208  10.3325350  53.1599841  74.9136753
   9.7711154  53.9092932  74.7651459   9.6499223  52.4893437  75.2526066
  16.3154904  51.0459203  55.9581684  16.2112990  50.0138778  55.7675029
  16.4548120  50.9117411  56.9163229   7.4785264  36.0586250  53.3854980
   7.6803142  36.7838134  52.7770923   8.2616440  35.9524985  53.9511087
  33.4907824  60.9858777  70.0620275  33.5305395  59.9698415  70.1626974
  32.7192911  60.9990783  69.4526732  17.7708480  32.6523474  67.7961255
  18.4008143  33.3552905  67.5214274  16.9457114  33.1172911  67.6013038
  13.0002735  38.2197871  66.7989480  13.5167763  38.2415329  65.9708737
  12.8425260  37.2766125  66.9596504  39.7970586  41.6203000  72.9318972
  39.1209079  42.1302939  73.4281668  40.0080316  42.2948897  72.2411940
  16.8120401  39.1874537  76.8140879  16.7768533  39.3036751  75.8291427
  17.5506559  38.5667110  76.8653113  31.5567929  54.7897799  66.8759744
  30.7073560  54.6886276  66.3691590  31.5532172  53.8085670  67.2075733
  17.4768505  35.6837211  66.3202826  18.3355896  35.3627147  66.6701029
  17.5350295  35.4743572  65.3643504  31.1386837  54.2376894  72.0971776
  30.8705581  54.5807342  71.2001278  30.2618111  54.4208015  72.5525942
  17.8576457  20.9667995  74.2260023  17.3634448  20.2031914  74.5100355
  18.7671008  20.6422559  74.2859294  11.1435302  28.5837203  59.0852544
  11.9425651  29.0885094  58.7436943  10.8680148  28.1433887  58.2877068
  19.8844757  32.0941027  69.2609849  19.6865898  33.0414223  69.5759377
  18.9710882  31.9024612  68.9089968  10.7475838  44.2494072  69.7378347
  11.0896454  43.3774182  69.9421554   9.8582324  44.2017249  70.2175039
  13.6654486  40.3506625  75.8997490  14.3417435  40.2948377  75.1846674
  13.1565906  39.5489852  75.6841818  11.7360004  43.5049427  78.2258067
  10.8287817  43.1987388  78.4199513  11.8196967  43.1144416  77.3453644
  17.3911891  47.9786566  70.7986597  17.8952220  48.2988439  71.5504027
  16.8793737  47.2679886  71.2865196  27.7976127  46.0377136  59.4942508
  27.4022229  45.1352192  59.3899123  27.6650738  46.1745915  60.4910972
  14.2103276  54.4689030  63.2571269  14.2367980  53.5241653  62.9447291
  14.4369775  54.9262434  62.3838587  31.3910588  44.2560624  71.6002242
  31.3074426  45.1640854  71.2263774  30.5187352  44.1617415  71.9471259
   8.5029324  47.3673928  80.6375829   8.8319530  46.6554761  79.9645183
   7.9343908  47.8539917  80.0326751  31.2537621  46.8989354  70.6501753
  30.6536556  47.5488476  71.0861044  31.0541411  47.1394849  69.6797022
  30.4941047  46.0416582  74.3603978  30.3063678  46.6812290  75.0461716
  31.3821565  45.7481614  74.4651052  33.4485780  42.5134059  81.1258848
  32.5259186  42.7310679  81.1914531  33.7510341  42.9524471  81.9988782
  16.6204408  43.1205186  62.2193954  17.0015187  42.2782594  62.5599258
  15.8971674  42.7964795  61.6507725  20.8480521  31.1482625  66.9441154
  20.4538318  31.3623450  67.8027212  21.5065727  31.8612773  66.8330496
  16.7521800  36.1138149  57.2469686  17.0339053  36.0995567  56.3278739
  17.6190740  36.3046899  57.6811189  23.7433795  42.5109419  76.2936905
  24.2412004  43.4035531  76.2614421  22.9443607  42.7986869  75.8200533
   5.6919881  48.4102330  61.4153578   4.9873701  47.6992758  61.3406850
   5.1096488  49.1644090  61.1974271  29.9354788  47.4844871  76.5929976
  30.6889732  47.7377560  77.1348468  29.2606431  48.0852080  76.9667400
   7.2886294  30.7489135  58.3655922   7.1785364  31.6023461  58.7688583
   8.0887053  30.3995534  58.8880353  22.0392555  46.6231127  60.2293513
  22.7935792  46.4638369  59.5753727  21.4009008  47.0275361  59.5936635
  17.1864003  53.0240529  78.3701530  17.6853705  53.0336390  79.2109342
  16.2663649  53.2769659  78.6908450   7.1982840  56.4900466  77.0187732
   6.4015339  56.0157326  77.4072641   7.2757607  57.2260790  77.6521452
  10.3609272  42.8904192  82.8423811  10.1513082  43.2888517  83.7332830
   9.7440309  42.1904093  82.7266984  22.5018586  49.4830399  75.7865298
  21.8986797  49.8408201  76.4582265  22.5331554  50.2299286  75.1521761
  18.0585133  46.8735509  80.3128338  17.7782724  46.4537247  81.1560331
  17.1260204  46.8890760  79.8710834  19.8229296  53.7493206  70.4606105
  19.4564135  52.8431817  70.2969354  18.9781711  54.1467118  70.8976470
  25.4302649  32.9676320  66.6187621  24.3926460  32.8735497  66.6644907
  25.6100243  32.1376072  67.1352141  31.4577596  42.0468992  73.1107260
  32.3402327  41.6545034  73.0005591  31.6157037  42.9654023  72.7955902
  24.8930528  60.6218404  63.8252188  24.1635409  59.9199224  63.7885173
  25.5154412  60.2742012  63.1281193  21.1469414  48.5800868  68.6150538
  21.6593729  49.2644456  69.1257013  21.6155399  48.7382422  67.7227483
  23.8506387  74.3137802  68.7834862  23.3884006  74.9622287  68.1894711
  23.3881203  73.5015622  68.5637900  18.6351469  49.0108800  73.0600291
  18.7832727  48.3512613  73.8116170  18.5596493  49.8218842  73.5505842
  15.7897872  61.5754399  68.3231942  15.1664132  61.5252579  67.6066571
  16.3177166  60.7682378  68.2327597  44.5650273  57.1756352  72.9070904
  45.3635957  57.2032288  73.4920829  43.9519178  57.6980649  73.4972528
  33.0245782  49.8485987  69.2739966  32.5737725  50.0795722  68.4469457
  32.8048210  50.7107686  69.7490511  34.6914737  69.9664857  87.9783625
  33.8485533  70.4131755  88.1796656  35.0129463  70.3938081  87.1593052
  45.1186243  59.5677162  57.6615191  44.4187568  59.5131260  58.3223014
  45.4695502  60.4792969  57.8550383  28.3689936  72.0667062  62.4202732
  29.0319274  71.9506359  61.6569985  28.9101418  72.8092733  62.7966415
  39.3943692  54.7540719  72.1518979  38.9754312  55.5567787  72.4705509
  40.3518417  55.1031724  72.1499894  34.2466175  53.0458355  68.2441023
  33.3632262  52.8164264  67.8738895  34.7390079  53.3457960  67.5000201
  38.0096787  75.0498785  74.4851418  38.7048587  75.6711332  74.1293134
  37.6899755  74.6871958  73.6316264  25.1137040  51.2122515  74.9772511
  25.1594592  50.5567739  74.2798602  24.2977308  51.6948284  74.7030620
  46.4476667  52.1959724  64.1824894  47.1737295  52.3614967  63.5784716
  46.8106636  52.5708881  65.0029915  30.1865907  42.1619970  67.6408889
  30.1730581  41.2054773  67.6428608  30.2887232  42.3564217  66.6864733
  10.6106666  66.6859456  60.5045456  10.7060289  66.5641723  61.5085122
  10.4980987  65.7440202  60.2153875  32.2955684  50.1562046  73.6257634
  31.3577480  50.5023586  73.3560506  32.7535179  50.3899903  72.8075641
  39.1906951  43.1463130  87.7884594  38.8087628  44.0369923  87.6891527
  39.4174285  42.9602652  86.8150191  43.6962455  69.9553552  70.7844496
  43.6543382  69.4679239  69.9546917  42.7452869  70.2843161  70.7912682
  24.2728430  71.4232587  73.0717224  24.4900557  70.7146707  73.7154108
  24.9118525  72.1017457  73.3955429  39.1658743  67.7490552  67.8749466
  38.7773194  66.8744493  68.1637758  38.7302889  67.9344330  67.0261224
  24.0355066  60.1227322  72.2285128  24.7462606  59.4574882  72.1520374
  23.3850959  59.6619888  72.7270224  45.2636374  76.7632760  51.8143742
  45.4588880  77.6603334  52.1072519  44.3999437  76.9049595  51.3653575
  43.4915360  60.5291004  59.8516082  43.0531242  60.5936287  60.7343566
  44.3091945  61.1403338  60.0681850  18.0197584  67.0363122  65.4286304
  17.6797229  67.5699633  66.1855735  17.1354853  66.8205387  65.0359810
  35.7833797  56.1139100  68.5757323  36.0687672  56.0042195  67.6557097
  34.7936161  56.2177179  68.4306703  37.8303349  71.9117366  64.8055168
  38.7567894  71.9229341  64.4867390  37.3960198  72.2405002  64.0032467
  28.2890891  47.5889239  68.5960126  27.9382291  47.2993716  69.4773783
  27.5252247  47.4856745  68.0202187  39.9562336  43.5326269  71.0380244
  40.5187900  43.5590436  70.2303402  39.2587088  44.2043487  70.7878651
  40.5097924  71.1617098  68.4655768  40.9718565  70.8191425  67.6590671
  40.4825638  70.3263101  69.0057562  19.8250341  52.3379704  67.1356768
  19.6507622  52.4854432  68.0591605  19.0585051  51.8306988  66.9092485
  49.8881685  60.7846817  69.5244437  49.0866740  61.1286292  69.1333370
  50.5538404  61.2028457  68.8468989  26.9598439  66.2215686  48.4956901
  27.6466167  65.5424824  48.1411076  26.2259231  66.0531297  47.8846145
  36.6274762  49.6246607  73.0874402  36.2892234  49.9497974  72.2258064
  37.6307029  49.6593215  72.8472903  44.7488658  70.5378606  67.8482625
  44.6540463  71.5042989  67.9928197  45.5783321  70.4492061  67.4139410
  46.7695003  72.2057992  70.5258577  46.1318000  72.3583949  71.2722837
  46.1141022  72.4626080  69.8060187  36.8050564  53.7835783  69.8263681
  36.2693216  54.4417222  69.2861972  36.5421713  54.1166310  70.7043323
  23.1796988  65.1508080  71.5510624  23.0383126  65.5620803  70.6077497
  23.6283753  64.3206611  71.2147118  42.2682234  70.8965381  78.5552248
  41.4999575  70.5523455  78.0845685  42.6946045  69.9941154  78.8393808
  39.5463109  63.4166648  66.5154920  39.0929558  62.6572206  66.1039487
  38.9663188  64.1894792  66.2920700  27.4449231  47.5050638  64.5325824
  28.3611777  47.8033509  64.6624715  27.2998111  46.8950697  65.3259842
  29.9701571  58.5901819  64.8054706  30.8973085  58.7878484  64.5662839
  29.6755007  59.5201660  64.9853473  33.6371196  61.8303301  62.2827257
  32.8879385  62.4726886  62.4426484  34.3942890  62.4345538  62.4808838
  37.3784944  65.3370369  68.7250961  36.8987970  65.4289036  67.8714201
  36.6787777  65.8050712  69.2838376  27.1314247  58.5328609  65.6823180
  28.0404680  58.3543635  65.4677408  26.8592881  57.6843247  66.0240831
  25.9278141  67.7761153  56.2505682  25.3287764  68.5957762  56.1372736
  26.8146106  68.2072610  56.2829495  36.1098564  79.0668610  65.2546137
  36.0970142  78.2046569  65.6748595  36.0874382  79.6213286  66.0691740
  44.2791342  58.0368153  77.2426205  43.9355528  58.0314195  76.3029430
  44.6908310  57.1588158  77.3081772  28.5466062  50.7371596  66.2163504
  28.8514471  50.0653538  65.6300846  29.1208841  50.5633406  67.0187080
  20.4679699  66.3368256  59.9910871  20.5735683  67.2734705  60.1347505
  19.4850218  66.3041055  59.8165670  25.6466811  59.8885705  61.2254761
  24.7295289  59.9515173  60.8286625  26.0635596  59.2304075  60.6192968
  46.2990633  74.9102463  59.8968574  47.1321331  74.5507144  60.2208513
  45.9700009  75.4462049  60.6192824  35.9297577  51.0314259  70.7021794
  35.9415650  51.9878944  70.6850982  36.0361027  50.8768755  69.7430536
  31.3095388  42.3715548  84.2358349  31.0962456  43.2882503  84.4726523
  31.0230738  42.4010611  83.2524574  53.1851295  70.2366095  72.5659682
  54.1063099  70.0489510  72.4779813  53.1058177  70.2487003  73.5805097
  37.7584715  64.9905131  74.9445866  37.4153427  64.8158573  75.8107940
  37.9868755  64.1364684  74.5482887  42.0491790  66.9936072  63.3868819
  41.8750623  66.7673351  64.3365056  42.7763261  66.3149608  63.2135515
  32.1097189  39.7257989  69.6995928  31.7960358  39.3380478  68.8961790
  32.4304578  40.5923230  69.4562179  44.6839014  58.4040265  63.1556690
  44.8612817  57.6613876  63.7650464  43.9642298  57.9257873  62.6186874
  53.2309313  58.6459153  75.3565460  52.8125478  59.3351933  74.8293219
  52.9594570  57.8507213  74.8821097  44.2763977  67.0818264  55.0771214
  43.8452644  67.8621814  55.5582399  43.8408416  66.3365017  55.5946930
  27.0930869  44.1598677  68.0347057  26.4596705  43.5017626  67.8881186
  27.4463108  43.9486374  68.9669198  42.4926305  58.0664119  65.5698178
  42.8735801  57.1973223  65.3367279  42.1039262  58.2545992  64.6484697
  32.1989048  51.7460422  71.2189310  33.1065702  52.1236349  71.2330631
  31.7211767  52.6101934  71.5449036  35.1020566  65.2194016  62.4062815
  35.2777764  64.4989126  63.0780961  34.3977756  65.7399156  62.9034220
  29.6951602  61.7531829  64.7042209  29.8170490  62.3180263  65.5115314
  28.9597101  62.2595260  64.2881223   8.4778841  58.6655155  64.8826183
   7.5070016  58.3730490  64.9419312   8.3916563  59.1169864  63.9738959
  15.8612309  65.2792820  56.2881372  15.3041206  65.8278138  55.6890688
  15.4662484  64.4051500  56.0529654  23.8096499  45.2469077  69.5922121
  24.0950110  45.2445517  68.6538862  24.6613272  45.3950831  70.0695095
  27.2335537  45.8962387  70.9070158  26.7152991  45.1541077  71.3626953
  28.0281313  45.3672722  70.6344076  56.8929340  67.1424560  64.5962687
  56.8630394  67.4104631  63.6694233  56.5711927  66.1707037  64.5123097
  28.9483636  55.9372221  80.6498358  28.5681436  55.7283203  81.5272046
  28.0813751  55.9090501  80.1349241  34.1704136  41.4559251  73.2086408
  34.3472343  41.2281721  74.1634186  34.0352061  40.5740784  72.8326276
  25.8150477  43.7354325  71.5301637  26.3774972  43.0231631  71.9299073
  25.2957328  43.2168889  70.9084942  50.3416396  67.5292214  63.5009948
  49.8731601  68.3450388  63.1175973  49.9461996  67.5643179  64.3950847
  43.3541044  52.9211074  64.1070871  44.3600783  52.8519684  64.0852653
  43.2030625  52.9607156  63.1308313  38.1634572  47.6728593  75.6820849
  37.1570430  47.8576631  75.8717416  38.0316473  47.0481460  74.9734738
  45.0974966  61.1669012  64.5743081  44.5980950  60.3812985  64.1687889
  45.2251879  60.9061253  65.4714884  31.3407675  60.6927241  81.0521322
  30.7438435  60.0884403  80.5122096  30.9325880  61.5653330  80.9211414
  36.0038029  61.9521360  69.1554871  36.3047443  62.3958165  70.0198961
  35.1075555  61.7190040  69.4016763  25.8738286  56.0006866  66.8917642
  26.0157853  55.4006475  66.1259361  26.5649153  55.7057220  67.5247344
  23.1121679  48.0211026  71.5034765  22.7575032  48.7647390  70.9664325
  22.4860224  47.3123177  71.2139343  27.1881468  61.3113998  78.3634571
  27.3183830  60.3460382  78.3630942  27.4973287  61.5104097  79.3084822
  32.4518894  54.8090843  83.6245903  32.2157841  55.6181380  83.1809267
  33.1920394  55.1216298  84.2089070  18.9212759  59.8841443  55.7788707
  19.3129036  60.5300843  55.0972892  19.4852041  60.1322005  56.5234433
  18.0134114  44.9825449  65.3378165  17.3739999  45.1298798  65.9935802
  18.6563034  44.3466691  65.8376730  32.2688008  59.8314970  73.0025856
  32.2441345  60.8674953  72.9077698  33.2194803  59.8188838  73.2801574
  18.6040905  65.8441617  62.6504342  18.5414779  66.3297288  61.7664345
  17.7020356  65.9141363  62.9530931  29.6789889  59.0959111  68.7230012
  28.6811929  59.2373067  68.7548337  29.6670029  58.3071484  68.1421544
  15.9569755  45.5245460  67.2372645  16.6077182  45.4748384  68.0162545
  15.4944955  44.7174195  67.3803532  41.9084342  63.3424417  78.7232311
  42.5674927  63.9135453  78.3945158  42.2801192  62.4594515  78.7804149
  32.7742563  69.9090864  68.6398775  33.6889996  69.6410202  68.6652472
  32.3624745  69.3045715  67.9592354  28.5997042  62.8587576  60.9905628
  28.4195881  61.9099021  60.8812685  28.7301112  63.1205125  60.0529886
  33.4220180  54.6022353  70.2200293  32.5833316  54.8449344  69.7586530
  33.8838990  54.1224040  69.4925775  46.5844305  72.4715287  50.4879504
  46.6483832  71.4671452  50.2655526  45.6874272  72.4016937  50.9091843
  43.5722458  64.7491151  62.6184691  44.0996183  64.8844619  61.7974230
  44.1155598  64.3563873  63.2340736  44.7647988  78.0253393  64.2010415
  44.3029272  77.7083009  65.0526253  45.4462978  78.6492400  64.6138207
  47.8920988  72.2275343  61.4947712  48.5089504  72.7101834  60.9000434
  47.3795265  71.7165844  60.8429290  28.3231204  68.3548188  59.1792344
  28.3263381  68.4303588  60.1476547  29.0155285  69.0104066  58.9493967
  35.4212836  69.1194106  58.9079331  36.2465325  69.1631938  58.3679094
  35.7798380  68.6431262  59.7017602  39.3412810  78.4346078  73.7963403
  39.8920296  77.6221813  73.8109618  40.0592140  79.1138535  73.9708506
  33.6232712  75.0369850  68.1263509  34.1880561  75.7186370  67.6902913
  33.0861190  75.6316935  68.6695744  50.7573137  80.0597760  65.2777777
  50.4267033  80.8108320  64.7275081  51.3384364  80.6545306  65.8398121
  50.7936669  75.6475904  55.5535541  50.8882721  76.3853213  54.9543794
  50.9752645  76.1139095  56.4453798  53.4705056  72.7553974  67.6607989
  52.6651461  73.0796656  67.9858168  53.8598589  72.3745677  68.4807762
  35.6493075  59.6974707  61.9358010  34.9827903  60.3701361  61.8387628
  36.4385324  60.2544530  61.5768068  48.3244969  59.1721054  75.3593242
  48.8466578  60.0051486  75.1641394  49.0880990  58.6614099  75.7818799
  42.4276704  64.3832996  73.7189382  42.8862450  63.5079866  73.8449933
  43.0472010  64.9617154  74.1971694  56.0930779  58.2800126  59.6921387
  55.5767122  57.6607985  60.2562130  56.4359489  58.8785942  60.3842585
  46.4375791  78.5977945  60.4180683  46.1751083  77.7817638  60.9407195
  45.8519153  79.2669109  60.8888250  50.0043649  56.5713952  73.2040060
  49.1034027  56.2914924  73.4338274  49.8542006  57.5060562  73.0111626
  51.7330133  70.9263661  61.5093455  51.3669696  71.2438587  60.6932840
  51.8887746  69.9839362  61.2193283  36.4103571  74.0176781  53.7836978
  37.3517535  73.7045379  53.9054580  35.9665276  73.1726963  53.9792753
  40.8854810  90.5351029  59.3047031  41.0408990  89.9339850  60.0848279
  41.7111879  90.9789880  59.2088198  63.2012310  62.8802866  68.2845154
  63.8766300  63.1834180  68.8732460  63.4218014  61.9450507  68.1696624
  59.1351437  72.5824883  60.1301921  59.8218534  71.9912064  59.7264238
  59.3801451  73.4761720  59.8259023  55.4696648  55.2184617  70.9427592
  55.0043386  54.7913343  71.7871824  55.1476534  56.1225753  71.1482780
  55.9823654  72.7299056  59.9639128  56.0957382  72.2256194  60.8190781
  55.0757635  72.4858513  59.7481696  53.7325627  62.5927071  69.1393453
  53.6401502  62.1741251  68.2117455  53.0000698  62.1258584  69.5547750
  55.4539167  74.9187647  66.8817118  55.5776080  73.9913499  67.0629537
  56.3779292  75.0848129  66.4675891  42.5436161  60.6949258  62.4270136
  42.2289343  61.1251097  63.2246147  42.5340772  59.7342368  62.6469191
  43.5658338  70.9796698  64.4677360  43.5342748  70.3586944  63.6805816
  44.4447930  70.7790689  64.8060967  39.4470759  74.3938262  62.5677134
  38.9817931  74.3598904  61.7303377  39.0342380  75.2036546  62.9968895
  35.6068983  64.4036100  54.8555862  35.6071190  63.5566173  54.3327224
  35.9529261  64.0488662  55.7001315  47.8558784  69.1106178  77.0501221
  46.9059411  69.2317371  76.9387088  48.1146200  68.7222250  76.2152216
  36.4519422  67.9456689  64.1535406  35.8707403  67.4973422  64.8351627
  37.2635180  68.0910701  64.6745705  49.2125719  67.7364880  71.4712849
  48.5659515  68.0953084  70.8520643  50.0526760  68.0432489  71.0643839
  53.9268097  72.5847197  56.3239671  54.2706983  71.8692483  56.9066829
  53.0025913  72.2489163  56.2234754  38.1737980  58.8564228  91.2067506
  38.3925841  58.1271409  90.6472545  38.4286240  59.6131087  90.6747233
  34.3397791  73.4540380  58.2502594  34.0625960  74.3811194  58.1210125
  33.5762654  72.9694599  57.8766286  37.9305816  76.6804654  63.5090519
  37.6461770  76.0064651  64.1947365  37.1024945  77.1077892  63.2669835
  44.5944997  61.8970170  71.5730747  43.6830716  61.8639511  72.0318936
  45.1613346  61.8841205  72.3835921  41.6573552  63.8196548  50.8276686
  41.6704757  64.1855735  51.7724398  40.6905622  63.8281944  50.6406778
  49.0091663  56.1834819  76.0502921  49.6771134  55.4973012  76.0689609
  49.0553208  56.5389267  76.9786575  39.5280813  59.8796257  69.0590779
  39.2681588  60.5839212  69.7047630  40.1719044  59.3672295  69.6067218
  40.6944455  67.1304443  59.6200322  39.7476143  66.8235583  59.5076936
  41.1109105  66.2311504  59.4238953  46.3602812  70.5374343  65.3827402
  46.5836935  71.1110425  64.5798499  47.0097300  70.9033519  66.0312016
  47.0665660  56.9577679  74.2174316  47.4248891  57.8431507  74.4969877
  47.5664398  56.4464282  74.9305142  47.1680756  66.6464618  52.7498019
  46.7273313  66.0058082  53.3114383  47.0022182  66.3434609  51.8625097
  56.4037229  69.8121230  58.2873637  56.2302088  68.9893647  57.8052624
  57.2643525  69.6751220  58.6178218  54.2895589  74.4476085  62.0976749
  54.3594254  75.1845674  61.4900964  53.7065799  74.7577696  62.7812650
  42.0965483  76.2607882  63.0990352  42.8689276  75.8425297  62.6453164
  41.9642905  75.6083253  63.8254020  46.6277665  87.1399411  69.9321641
  45.7222042  86.9943897  69.5861694  47.1078668  86.4965651  69.3820012
  43.9449706  57.9152126  70.2797777  44.6208901  58.5750338  70.2378000
  44.2692908  57.4469415  71.1029571  48.4174289  61.0734166  60.4932723
  48.0476040  60.2451796  60.8405883  47.9720700  61.6738067  61.1167123
  41.1622606  64.1597691  61.3895784  41.4596120  64.4779019  60.4958849
  42.0562585  64.1098474  61.8592690  40.9146044  60.8103825  54.6889722
  40.4843170  60.0777844  54.1963816  40.9793075  60.5235039  55.5709826
  27.5711312  67.2374252  52.3339825  27.2065595  68.1279117  52.4889012
  27.1428622  66.7592508  53.1262479  45.3158351  81.8206517  57.0528063
  44.5240262  82.0075583  56.5625281  45.1825818  80.8840824  57.2690926
  52.6362956  56.4935801  60.1461493  53.3174580  56.3195155  59.5208374
  51.8390360  56.5255130  59.6395031  45.4966572  76.7160817  62.0019869
  45.3592964  77.3485325  62.7435475  45.2147507  75.8912439  62.5156058
  40.8948696  69.8563515  56.8664940  41.0979632  70.3703422  57.6971310
  40.8382316  70.5708380  56.2267177  48.4303240  73.3946266  56.9108529
  48.5544596  73.3768589  57.9403054  48.5533570  72.4025634  56.8403335
  52.9759606  68.1093988  63.6472843  52.0681216  67.7390348  63.7337555
  52.9599839  68.7896884  64.3130889  49.5398720  72.7304308  64.6182943
  50.4345746  72.3997564  64.5275758  49.6614776  73.7234700  64.5018736
  43.0731405  51.1879295  70.7303144  42.4121754  50.7917678  70.0991635
  42.6517784  50.8626685  71.5675703  35.4065543  68.9555954  69.8166293
  35.9896191  69.1527436  69.0811972  36.0856734  68.7871256  70.4870914
  46.1323475  69.8940074  61.9923724  46.0848385  70.3406427  61.1199752
  45.1814690  69.7098445  62.1970974  37.4977314  70.3735583  61.6364173
  38.3124908  70.0307943  61.9568512  36.9233521  69.5607021  61.5822569
  45.0977419  71.5196857  56.3432566  44.8713564  72.3285964  55.8317989
  45.9554938  71.2872973  55.9015724  38.9395983  82.3046269  53.7111379
  39.7380639  82.9202202  53.8262488  39.4757096  81.4558168  53.6735426
  63.6760512  67.8445646  56.3548560  63.6756253  68.8101836  56.5376712
  63.0087642  67.7647351  55.6410459  36.9971858  59.9027308  67.7017046
  38.0080850  59.9749847  67.8929021  36.6341280  60.5024804  68.3723336
  42.6079275  69.2952275  59.8776072  41.9830108  68.5639803  59.9133595
  42.0817478  70.0389198  59.4918771  39.9740505  68.8835112  82.5365117
  39.3907776  68.1993299  83.0198408  39.7704611  68.6375357  81.6458495
  51.5837568  64.5517175  66.7800228  51.0643834  65.2299372  67.3379405
  50.9499061  64.5669578  65.9946214  46.2958607  60.2524051  76.6968275
  45.9934232  59.5643135  77.2557005  46.8683817  59.7361394  76.0704187
  45.7329172  59.7059209  79.5365123  45.3414060  59.3896916  80.3954435
  46.5808045  59.1707335  79.6628668  45.2014537  63.4118481  74.6355200
  45.7889967  62.7520868  74.2095581  45.6672390  64.2397546  74.4232712
  50.4894149  70.4486563  72.2589826  51.4732534  70.5848499  72.4430064
  50.1507080  70.2624525  73.1585784  32.8489134  81.4208231  52.6805710
  32.7036592  81.0326304  53.5598045  32.1145515  81.0148824  52.1988868
  43.0716937  77.5909099  66.6833594  42.7705135  78.5305959  66.5198064
  42.1910534  77.1793348  66.4721795  36.5271536  69.0219574  67.3671924
  35.7927646  68.4479369  67.0437624  36.2866305  69.8886154  67.0005333
  39.3418546  59.8635457  59.2443932  39.0518659  60.6458206  58.7044355
  39.4079226  60.3579210  60.1263518  49.2664632  78.3805515  66.6214620
  49.7322927  78.8368170  65.8520817  49.0218716  77.5661270  66.1271689
  43.3240679  68.1607518  67.9769917  43.7264964  67.7349442  68.7798274
  43.9095193  68.9433244  67.8877608  51.0437201  77.9019528  53.5628131
  50.5284904  78.7303533  53.7126717  51.6233296  78.2628377  52.8264558
  30.9626723  78.9749509  67.1061530  31.0250319  78.8031412  68.0550933
  29.9987689  78.8598762  67.0055759  52.1855608  69.6975650  75.2464899
  52.4837300  68.8622812  75.6740666  51.2490104  69.6645802  75.5586087
  39.6263403  90.3619479  67.2489855  38.9973882  89.7641295  66.8344852
  39.2783602  90.4182821  68.1669244  47.9720496  56.5606656  62.0171625
  48.0704834  55.6308390  61.6865848  47.3225839  56.4711931  62.7279287
  57.0644849  75.4878071  70.2162410  57.7851524  75.6438212  69.5632514
  56.3172546  75.3396862  69.5656731  61.7018926  73.4392117  56.2030980
  60.9216619  73.7853702  56.7584338  62.2043349  73.0697752  56.9194976
  58.3828228  72.0242338  75.2690331  57.5252366  72.3042403  74.8655061
  58.9734180  72.6254097  74.7448891  62.8135530  67.9115220  49.4682129
  62.8278352  68.8575037  49.3421928  63.5993532  67.6525689  48.9900938
  46.7388371  62.2740282  62.4158178  46.1983175  61.8872713  63.1381123
  47.0405781  63.1219646  62.8839915  54.1028487  53.2280105  79.5272155
  54.1451015  53.5786198  78.6042804  54.4433603  52.2925748  79.3155110
  53.9703725  61.1491524  59.9795918  53.4659165  60.3579522  60.2968153
  53.2701056  61.8093634  59.9991980  48.7708846  79.7867250  70.6601140
  49.1186549  78.9492148  70.9869513  48.1062638  79.4930000  69.9986327
  36.9446011  73.7655141  57.2527576  36.8848387  73.0395172  56.6495467
  36.0949384  73.7151224  57.7834719  30.6969245  69.9355065  58.7894304
  30.6254294  69.4590171  57.9384630  31.4144811  69.3831206  59.2238242
  40.9908160  71.9437516  55.2470268  41.4123373  71.5773835  54.4620072
  41.4575380  72.8188840  55.2686149  46.5904308  68.9920079  70.4901556
  45.7908646  68.8164776  69.9906285  46.6382382  69.9051380  70.5747442
  36.9289615  76.6519403  53.8362471  36.6229193  75.7197417  53.6710818
  37.5001836  76.5266328  54.5917431  34.1448325  55.6908931  78.0562584
  34.1867705  56.3272157  78.7868921  35.1384489  55.5823381  77.9246687
  31.1361196  78.7221763  53.3336648  31.7099971  78.7613762  54.0612164
  30.3737927  78.2133937  53.7409099  50.9434178  58.9820248  71.8468238
  50.8115787  59.6462293  71.1381360  51.2245870  59.5507178  72.5642000
  54.3369623  60.8404780  66.9718060  54.2858613  60.0016315  67.5383046
  53.5221986  60.7294076  66.5045198  41.0772043  75.1811135  60.6128530
  40.8023942  75.7961172  59.8820022  40.6828411  75.5777375  61.3722827
  37.9823682  61.5647788  57.5525977  37.2602384  62.2481217  57.6471818
  37.5823194  61.0261646  56.8379717  56.0846328  58.2224830  72.6846016
  56.9608698  57.8922912  72.4571944  56.3143078  59.1675363  72.8791396
  50.4779968  63.1762735  72.4193871  50.9498487  63.9234096  72.7928131
  50.8378019  63.1814823  71.4638992  46.8142416  73.0423168  64.1057953
  47.6757278  72.9873398  64.5970111  47.1006168  72.6017990  63.2585769
  49.2743871  54.8121365  80.3692969  50.1102214  54.2797797  80.3541343
  49.6256466  55.6324507  79.9531089  46.5040604  79.7505317  65.0795827
  47.1430502  79.7842899  64.3701736  46.6720576  80.4699238  65.6487088
  44.2932725  55.9719446  60.2716739  44.5742169  56.9341322  60.3341282
  43.5354334  56.0309338  60.9150362  48.1182154  71.5106837  67.1381847
  48.6135321  71.9684974  66.4404018  48.1888258  72.1427234  67.8738931
  40.6797580  80.8171296  64.9742007  41.4990058  80.5358088  65.4599008
  40.5502835  80.0070750  64.4327337  29.8227217  81.5091226  68.6773940
  29.0660837  81.1768624  68.1733678  30.3618959  80.7404025  68.8246505
  43.3773200  57.3885247  57.8768995  42.4068066  57.1359475  57.9802149
  43.7061304  57.0246022  58.7698050  51.2526013  73.2723847  69.3614339
  50.9816717  72.3418056  69.3687254  50.5152933  73.6263750  68.8232274
  48.0144744  81.0441556  57.6568273  47.2201145  81.5957011  57.4589951
  48.7057889  81.7062498  57.6495965  40.1123015  77.0985193  58.4388398
  40.2990364  76.2824263  57.9151357  39.1034354  77.2316431  58.2350938
  28.8478309  76.0517646  67.0972371  28.5874677  76.4750828  66.2476909
  27.9607761  75.9204793  67.4903960  54.8971514  79.4374054  72.4863808
  55.0062618  79.1738219  71.5464210  53.9536090  79.5943655  72.5232051
  48.8482537  88.3043198  66.4644806  48.4475449  88.6239979  65.6468992
  49.2742508  89.1124132  66.8716051  44.8737679  73.0543746  68.7822508
  44.8659006  73.6592408  67.9950178  44.2527358  73.3952710  69.3660815
  36.5358267  77.1210590  71.9630681  37.4004066  77.5920613  72.0895480
  36.2979801  77.4162520  71.0779196  41.4613994  85.2071759  62.5042257
  41.4708181  84.2440666  62.7077091  42.2490836  85.4500210  62.9993605
  43.7240725  85.5301858  71.4817397  43.6618422  86.2887532  72.1029684
  42.7694609  85.3584239  71.3227033  49.4147344  68.4872820  74.5891047
  49.1631347  68.1980010  73.7417838  49.6430422  67.6307248  75.0375514
  60.3539461  69.9083819  65.9060769  60.3607096  69.4197550  65.0621898
  61.0789990  70.6186816  65.7353675  37.1147396  74.5822478  65.2984788
  37.6369272  73.7713866  65.4698746  36.7817857  74.4147992  64.3807461
  49.8753514  63.8971718  64.7246746  49.8675632  62.9691329  64.6528170
  49.0718285  64.0139635  65.3162100  49.3712223  63.9530520  58.2884765
  50.0891103  64.1994502  57.6277648  49.5417248  64.6877158  58.9231978
  47.1942976  58.3835885  66.5858456  47.8129882  57.8097488  67.0726709
  47.3856139  58.2268874  65.6619770  46.1783646  74.7229983  57.2477159
  47.0365097  74.2555273  57.1185326  46.2063503  74.7318978  58.2618964
  56.5473232  69.1832297  66.5134909  56.6716371  68.8623941  65.6321507
  57.0383129  68.5277392  67.0391791  54.6617780  54.3518096  77.2485404
  54.4520764  53.7012804  76.5966937  54.7545777  55.1638822  76.7259966
  46.9872462  84.5573119  58.5241520  46.9713613  85.4789383  58.3200966
  46.4436144  84.1702619  57.7416668  45.4021376  80.5274864  62.1851965
  45.5138396  81.2425835  61.6154170  46.2385749  80.5136358  62.6935238
  32.3431976  59.8784080  64.3048863  32.9132603  60.1844758  63.5749264
  31.8146980  60.6355666  64.5160391  46.3694197  60.9579709  73.3853932
  47.1746332  61.0610232  73.9629312  46.7725093  60.4312760  72.6707955
  48.0910706  64.4858803  66.4144266  47.4814947  63.8638224  66.9153569
  48.0500272  65.2154762  67.0461902  48.9323596  57.9897405  64.2794773
  49.4342025  57.2267906  64.6697502  48.6785247  57.6881328  63.3870661
  35.7399827  77.1212618  59.4657037  36.3442389  77.6542847  58.9161564
  35.2520776  76.6620864  58.7090825  36.9680405  74.4064549  72.0060611
  36.8256499  75.3275574  72.0905619  36.2304970  74.0504777  71.5050495
  36.2337399  58.6872287  64.4146160  36.0957662  59.2194274  63.5777193
  37.1606789  58.5513218  64.4135628  41.8611496  67.8382076  74.3986845
  42.6689150  67.2875953  74.1684895  41.7059522  67.5772856  75.3223045
  41.4259628  59.9295351  57.5035297  40.6969094  59.5220580  58.0029218
  42.0009397  60.1696847  58.2839948  41.0994436  71.3694478  71.2385882
  40.8856910  71.7398366  70.3731567  40.3917360  70.7724418  71.3899295
  49.1881344  60.8549193  50.9803291  49.8089175  60.0944290  50.7049482
  49.7056986  61.5924121  50.5743710  61.3121946  52.3477421  58.1778993
  61.4408428  52.0139083  59.0642903  61.1782698  51.4947317  57.7007400
  32.7052171  70.8409038  61.9740519  31.7927791  71.1247153  62.2526898
  33.1735949  70.7896256  62.8118841  49.9928376  95.6668191  65.4101988
  49.5506080  95.0524551  66.0309140  50.7959833  95.1918771  65.2370461
  54.9197190  73.3096047  71.5979473  54.2359247  72.6785768  71.3157574
  54.3722638  74.1384977  71.3807053  58.1951515  70.0427011  69.7985540
  58.6392177  70.7291039  69.1843146  58.9226526  69.3888939  69.8435044
  54.0898894  63.3728479  56.5476516  54.7670844  63.9301049  56.8947327
  54.5020098  63.2047025  55.6608553  59.4598607  59.4935343  66.8072451
  58.5922936  60.0089572  66.7372438  60.0282187  60.2119599  66.3389944
  26.1211177  75.9701055  67.7393366  25.9840103  76.5841715  68.4342193
  25.5291402  75.2356873  68.0276554  40.3868375  74.4067340  57.4503501
  40.4223614  73.5675554  57.8681987  41.1083923  74.3332698  56.7800613
  59.3480955  73.9469098  53.2688448  59.3391686  73.1848333  52.7270564
  58.9418893  73.6133339  54.1130093  60.8671199  65.3576284  58.5019921
  61.1774419  66.0724809  59.0929814  61.2684795  64.6020093  58.9444104
  52.7680259  68.7820853  59.9306141  52.5466788  67.9777512  59.4218366
  53.4015229  68.4121433  60.5663562  32.8222703  65.9918989  59.6187174
  33.7556467  65.6608378  59.7212577  33.0002534  66.9467380  59.7196138
  50.3068710  64.7495945  53.3581250  50.3472698  64.1143396  54.0931959
  49.8573004  64.2457823  52.6928164  47.1989694  67.3140359  63.1211690
  46.6141300  68.0128437  62.6739291  47.8754011  67.9709566  63.5018541
  38.9787433  68.3961437  73.5008961  39.1293539  68.8486148  74.3242027
  39.8722338  68.1888372  73.1600957  37.8320272  57.6083799  55.4655963
  37.9239960  57.6639064  56.4514281  37.6759811  56.6189061  55.4296443
  41.2154886  79.3431604  59.7001449  40.7047572  78.7249781  59.1544966
  40.5469705  79.4932854  60.4421224  47.4653927  54.3881469  69.5609188
  46.7178297  53.7813980  69.4959316  47.3148518  54.7210085  70.4910748
  49.1964228  74.1979287  67.7388440  48.4729186  74.5851958  67.2579974
  49.9273976  74.4315014  67.0863955  47.4911612  84.5478823  39.4441546
  47.1020252  84.1020001  40.2100393  46.7004108  85.0198602  39.1045693
  48.6066933  78.7294562  58.7667828  48.2899327  79.6067742  58.4028935
  47.9469184  78.6703764  59.5093691  44.3077664  63.7827937  67.6294247
  44.2997876  64.0415782  66.7018259  43.3426641  63.9300127  67.8424238
  43.0419817  77.9727004  74.9942986  42.5239075  78.6786383  75.4425754
  42.3960431  77.2465219  74.9845692  57.6204987  81.3537691  58.1219973
  57.9585753  81.8946326  57.3976665  57.9549553  80.4660159  57.9336451
  35.7852737  69.4410224  52.6096418  35.3287940  70.0820332  53.1781403
  36.7156877  69.7540777  52.6952932  54.5702767  87.2399270  44.0733524
  54.5398369  88.1936223  43.8971485  55.2028463  86.9580492  43.3596079
  50.3404975  69.3588553  67.8709966  49.9682388  70.0216780  68.4837203
  50.9582643  68.8703971  68.4707808  41.3056057  87.3219683  60.6549513
  41.3415538  86.4479786  61.0988667  40.7144152  87.8370850  61.2140366
  34.0583482  69.2224402  56.1322633  34.4686883  69.1741727  56.9817886
  34.3164510  68.3021454  55.8328000  59.3316531  83.5191367  59.2029137
  58.8824503  84.2385487  59.6351943  58.5976575  82.8843421  59.0903843
  45.4749391  62.7025534  60.0686717  45.3086498  63.6537050  60.1496791
  45.9852040  62.5065032  60.9232995  37.3348200  79.2060261  54.0751265
  37.9402482  79.2413799  54.8662576  37.1248980  78.2451186  54.0221017
  47.3299519  76.2947881  68.9296785  47.0965965  75.6589727  68.2608681
  47.8821465  75.7398897  69.5135797  72.9330766  72.3395507  61.6981897
  73.1892161  71.6697098  62.3783700  73.2593615  73.1440921  62.0693247
  50.8892922  77.5689175  57.5991207  50.1395614  77.9283983  58.0864211
  51.4161978  78.4091793  57.5140238  46.8092540  83.1507398  72.2826733
  46.1142212  83.0953283  71.6217179  46.2227122  83.3597156  73.0793811
  46.2677318  77.4574173  71.3338587  47.0707540  76.9351341  71.1569423
  45.7593774  77.2372869  70.5193668  56.3483252  85.6044054  64.2355151
  56.1229871  86.1563556  63.4191477  57.1206091  86.0647683  64.5315992
  45.4302478  87.9720708  45.8388197  44.7476152  88.6286021  45.9341451
  46.2600896  88.5535034  45.6794010  51.1674101  80.4333463  60.6275430
  50.7595940  81.3219745  60.7054302  51.7879310  80.6057076  59.8673815
  49.6054863  77.9574054  49.2423188  49.5524460  77.3494864  50.0466907
  48.6893513  77.8165523  48.9062288  51.5299890  70.3168927  53.3108019
  50.6027448  70.0271831  53.3723790  52.0389646  69.5303606  53.3169168
  58.4924624  78.1610377  58.3651762  58.8790022  77.7731716  57.6494280
  57.9107042  77.5234670  58.7724830  15.6060241  -5.5025039  60.9089479
  16.5342585  -5.2134534  61.0485026  15.1620731  -5.1797622  61.7168879
  10.4636166   3.6671855  52.4512459  11.2180158   3.2117985  52.0062808
  10.6594915   3.6062655  53.4091549  14.5609694   0.8008212  45.1145078
  15.2641427   0.0912979  45.2920619  14.4950163   0.6515604  44.1305796
  11.1327354   9.4616644  71.0185597  10.2863650   9.5154963  71.5082583
  11.3860539  10.4096841  71.0266208   6.6769717  16.1028335  47.5132606
   7.5026547  15.7167491  47.8966047   7.0454135  16.1456459  46.5766830
  -1.3485476  21.5214915  38.9021512  -1.3758143  20.7012211  38.4293806
  -1.1997455  21.2228534  39.8144822  13.5161107  19.7275792  68.5592836
  12.8574669  19.1360898  68.9358576  13.2337793  19.7367722  67.6176896
   5.8949327  -0.4859601  63.5835634   5.7967584  -0.0988645  64.4995867
   5.8570371  -1.4592562  63.8953685  28.5161743   1.4688437  57.1419458
  28.4768815   2.1912663  57.8615161  28.3666390   2.0626936  56.3898715
  11.9370324   8.8834858  53.7480868  12.9281190   8.8553234  53.5701418
  11.9537669   8.1672973  54.4511513  28.4646074  16.6536269  49.3446142
  28.3977309  16.1386532  48.4588697  27.7715889  17.2987138  49.1393338
  14.7145166   3.4152970  46.6679561  14.0132174   3.9734171  46.2243494
  14.6471420   2.5940161  46.1220429  15.9503306   0.3533388  53.4459284
  15.8091696   0.9439638  54.2459514  15.1967729  -0.2559333  53.6059705
  13.1444683  -2.5046939  59.6570206  13.9821913  -2.2639100  60.1285565
  12.6834762  -1.6567140  59.5814944  24.4765822  -4.7111990  52.1647813
  25.0104495  -4.4209189  52.9645107  23.6281538  -4.2480802  52.4654143
   8.1752681  16.4791263  52.9608774   8.9094613  15.9328459  53.2025950
   7.4895884  15.7493955  52.7750965  16.2886183   8.1182558  68.1751319
  15.5897659   8.5930918  67.7011773  15.7941305   7.2966522  68.3945158
  13.2139870   5.6179198  46.1730312  12.3281807   5.3490593  46.5827860
  12.8600004   6.3943699  45.5966588  16.8289413  21.9072151  62.9405828
  17.7539866  22.0087725  63.1548566  16.7333810  21.0462685  62.4998586
  20.8657531  17.6931620  63.5958901  21.2676845  17.2010933  64.4093172
  21.6528322  17.7372355  63.0138235  26.0699712   8.5357699  49.4251455
  26.8128471   8.7436561  48.8806906  26.0363226   7.5378197  49.2767555
  18.3502157   0.9961153  60.5879162  19.1090176   1.5497761  60.3355060
  18.0801111   0.7011403  59.6891963   0.9659911   7.6643730  38.7001357
   0.5529671   7.8198259  39.5885244   1.5164965   8.4399882  38.6359244
  15.4953618   3.7270163  58.4763055  15.4992042   3.4131808  57.5249435
  14.6182874   4.1940438  58.4515462  22.2201738   2.3740322  56.3433438
  21.3570392   2.7624707  56.3927352  22.1124783   1.5542307  55.8109298
   9.7087454   3.5383259  60.4373947   9.4132285   3.6377079  61.3483765
  10.0281308   4.4100347  60.1565409  38.9777524  -6.6086060  60.3808362
  39.4474125  -6.9801214  59.6345147  38.0747974  -6.9157482  60.1943254
  16.6375014   8.3651401  42.4043700  16.3563005   8.5028434  43.3261415
  15.8188635   8.1618763  41.9399626   8.5323165  17.5077157  33.4800355
   9.4773624  17.5844952  33.7871935   8.2334901  18.4258484  33.5137213
   0.4722702  13.6947901  45.2125673  -0.0180710  13.3995591  46.0113037
   0.8252383  14.5888380  45.5691872  18.0784279  13.7356313  63.7303046
  18.5836394  13.9806072  64.5534502  18.4395800  14.4617219  63.1653527
  12.2068968  11.4397284  55.0384960  12.8298983  11.0379664  55.7088528
  11.9030896  10.6157456  54.5958344  25.8140458  16.7778966  65.7003091
  25.6945983  16.3106972  66.5539081  26.1138596  16.0681378  65.1201300
  13.9138463  -4.2404132  42.0651092  13.8444009  -3.4983214  42.6908378
  13.1120031  -4.7555835  42.3898025  31.3326257 -11.1657919  47.7215678
  30.7082264 -10.5426559  47.9349284  30.8493061 -11.9004137  47.3351227
   9.4662162  10.6564243  49.4695734   9.1217361  11.4147344  49.9545713
   9.3617969   9.9396168  50.0688209  22.1741158  -3.1076630  45.9234920
  21.5535198  -3.6750840  46.4440264  22.6883814  -3.8034560  45.4559068
   1.0586001  10.6526701  56.2130576   0.8210015   9.8438372  55.6927939
   1.7947185  10.9829067  55.6957740  20.5751251   7.1243829  60.4088932
  20.9768417   7.1221079  59.5301761  19.7502706   7.6554069  60.2868244
   3.6914658   2.7022802  41.4923218   4.3581527   3.2580614  40.9621744
   4.1829962   2.6369376  42.2730059   2.2701682  28.8450581  53.3099878
   3.1964524  28.7864840  53.4759348   2.1621365  29.8617657  53.4901457
  26.6750837  -2.6858402  50.6084037  25.7017845  -2.7792878  50.8183470
  26.8387528  -3.6018528  50.2732697  10.8650676   8.0411160  49.5534245
  10.7911927   8.5917452  50.3385702  10.0334951   7.5303388  49.5352927
  11.5660386   8.8396087  57.3442299  11.8506541   8.1071638  56.8016358
  10.6363584   8.8623789  57.1382756  15.4702662   6.9491361  46.7581941
  14.6565513   6.4983806  46.4484981  16.1202068   6.2310765  46.8252870
  12.7671151   9.0965239  47.5893474  12.3852504   9.1674511  46.7281122
  11.9998034   8.6105553  48.0299911  14.6612353   8.8288422  53.4203457
  15.2387672   8.0554404  53.4678260  15.0180640   9.3043895  52.6072752
  15.0589340   7.4117665  56.7355169  15.6941046   7.9631777  57.2792656
  15.6374502   6.9380312  56.0969517  15.7633139  18.5856196  43.4128137
  15.8148988  18.4037480  44.3663926  15.1495967  17.9059690  43.1208793
  31.0253366   5.5283694  49.8944335  31.3325538   4.6387593  49.7435771
  31.7340936   6.0985776  49.6008897  24.6617357   0.3471607  54.5635754
  24.8495845  -0.3957057  55.0796968  25.0194621   1.1007968  55.1240454
   5.9149971   8.5740459  56.1394546   5.0283140   8.2965373  55.7720537
   5.8858623   8.2014705  57.0143564  21.6407048  16.7756753  66.0116389
  22.1215207  16.0745955  66.4212068  21.0003259  17.0248939  66.7641687
  27.0388011   3.9904925  48.9633176  27.8472903   3.4181623  49.0196669
  26.3991376   3.2636240  48.7202629   9.9052038   3.0602790  56.3401295
  10.0644888   2.7155210  57.2775838   9.7701369   2.1958461  55.9036899
  16.7012538   9.1410021  57.8387396  16.9675298   9.9430915  57.2881097
  17.4127385   8.5340131  57.5137696  14.1530445  21.4691794  33.6631469
  13.5229957  22.1996729  33.6041967  13.6925068  20.9592207  34.4428875
  23.2453370  19.4586406  58.4077353  22.3736136  19.9460381  58.2754624
  23.4922917  19.3110222  57.4778623  21.0674927  10.3727888  36.2551978
  20.6522730  10.6266889  37.1491696  20.4593087   9.5616794  36.1300722
  23.1306599  15.4717765  60.4412805  22.4378983  16.1218587  60.1392251
  23.0038226  14.7583172  59.7895099   8.0560508  14.6052883  55.5282666
   8.2878185  15.5635175  55.7790109   8.9068009  14.5482806  54.9358791
  19.1602484  16.1520094  62.1599838  19.3085384  16.4833459  61.2969277
  19.7951383  16.6895835  62.6835497  25.5539585  19.2784080  59.6894355
  24.6104698  19.2606797  59.2778783  25.6898715  20.2508446  59.6442346
  14.0211037  17.2575960  52.3978651  14.0025773  16.4494998  51.7482658
  13.2233101  17.6901320  52.0621871  21.3351387  13.2479459  56.5324874
  21.3599469  14.1671714  56.8236932  21.7169045  13.3387820  55.5809628
  16.2770331  18.2790209  53.2215761  15.4751701  17.8764747  52.8865026
  16.6355611  18.7089801  52.3820689  21.4531822  -1.2625147  43.4556349
  21.6732907  -0.8533241  42.5798023  21.2987669  -2.1828322  43.1277412
  23.9922676  -4.6521002  44.1919484  23.9309370  -5.3326586  43.4977256
  24.9014665  -4.7164029  44.4819150  18.6108967  12.2556331  54.8992622
  19.1754066  12.4951346  55.6575534  18.6315466  13.0435103  54.3424680
  22.9662148   7.8816467  52.9170002  22.2466607   7.4226747  53.4061285
  22.4633636   8.7059068  52.6036951  27.8528146  -3.3515919  62.3269161
  26.9428944  -3.7077798  62.3352009  28.2226751  -3.7656755  61.5478322
   8.2621256  12.7365658  50.9683221   7.4376922  12.2321357  50.6959311
   7.8418317  13.4980091  51.3427323  13.4912308   9.4246720  59.1171849
  12.7294350   9.0462677  58.5649616  13.8431429  10.0089408  58.4272034
  18.1029728   7.0654823  56.8022939  19.0803939   7.0909934  57.0040826
  17.8310429   6.3367033  57.3875041  20.6840145  22.4179830  46.2433257
  20.5542062  22.1412002  47.1618903  19.9510928  22.9787072  46.0211071
  18.0219586  15.3059758  48.1935109  18.0324654  15.5131054  49.1437528
  18.2490211  14.3350571  48.2218339  27.8069695  14.8897237  66.7884362
  26.9072843  14.9029182  67.2257713  27.5608434  14.3223205  66.0084191
  23.0878248  13.6604429  51.2117567  22.4091340  13.1169914  50.7600385
  22.5209023  14.1516261  51.8348960  19.1352437  -1.7842309  57.2354462
  18.4053387  -2.1737444  57.8492751  18.9869762  -0.8482546  57.3896502
  20.8961039  10.9093777  54.1297844  19.9983177  11.2247910  54.1549029
  20.8364442  10.2487942  54.9005728   9.7990911   9.0305971  51.8098963
  10.5438267   9.1000270  52.4276184   9.5981323   8.0282103  51.8483925
   5.2234312  11.0313203  41.3703784   4.6902909  11.8252573  41.0230302
   6.1079300  11.3154667  41.0370620  34.9728132   5.5463899  48.1773193
  35.6369750   5.8353221  48.8771337  34.2616592   5.3544819  48.8745203
  14.7607199  30.0605201  56.2782220  15.7088460  29.8981540  56.3553955
  14.7940588  30.8924142  55.7880747  19.0703387   8.4431979  35.8827128
  18.1727664   8.1544888  35.5418560  19.6268562   7.8991834  35.2784943
  23.3515598  14.5321463  65.6130205  23.1673660  14.6568481  64.6273721
  23.8697255  13.6768223  65.6175916  18.0792316  19.3619322  36.9603962
  18.9345620  19.5194458  37.4383622  17.4450002  19.6547294  37.6492442
   9.8707032   1.1641890  63.0847485  10.8420867   1.4120023  62.7914931
   9.5547470   2.0980521  63.0591925  13.0033180  11.5666514  49.0680067
  12.7881696  10.8064414  48.4914175  13.6412281  12.0460017  48.4821002
  20.7409572   2.6625479  60.3281217  20.3555622   3.1082384  59.5575277
  20.5180552   3.3912017  60.9808170  26.5054285   7.4884004  59.7293892
  26.6182526   7.9210035  58.8207768  26.2388384   6.5931727  59.3751851
  18.5419629   9.5749372  40.8528707  18.1238079   8.8818420  40.2969572
  17.8133497   9.5548133  41.5565937  26.9050331   6.2839773  54.2991845
  27.3489728   6.4166908  53.4524939  26.2008181   6.9613046  54.2888837
  23.6798651 -10.5275482  40.8341267  23.0646702  -9.8419769  41.1890292
  24.5036621  -9.9677458  40.8289776  13.6277085  16.0857269  59.4642020
  12.9178540  16.7846773  59.4572212  14.1967542  16.5108236  58.7440139
  11.9701684  15.4581761  49.9658844  12.8364125  15.4207790  50.3991714
  11.7799057  14.4991005  49.8962039  19.2301847  -1.7523159  62.0659752
  19.8340919  -1.1181854  61.6760316  18.3651516  -1.3792489  61.9276467
   8.9999055  14.8083124  48.6721625   9.0391698  14.3898392  47.8258280
   9.3191387  14.1377929  49.3254620  18.6501332  -0.9851414  42.2032996
  18.5607016  -1.8246271  41.7210373  19.2890791  -1.2806407  42.9325432
  26.0262227   0.4364442  58.8334111  25.6703329   0.7827591  57.9797936
  27.0024886   0.3941197  58.5994494  11.1675801  12.9942393  50.1496047
  11.7555136  12.4410951  49.6030811  11.0573263  12.3686694  50.8908148
  19.4292784   9.0371445  66.9880925  18.9658334   8.3015466  66.4991277
  18.9258672   9.8113693  66.6931876  29.1058055   7.0147646  59.6730869
  28.2004269   7.2398256  59.9549909  29.3949982   6.6643139  60.6051306
  24.9061586   5.9106117  49.2306748  24.8830388   4.9409922  49.2490730
  25.0037292   6.0773769  50.1868891   3.9644787  15.4688895  47.7708922
   4.0192899  14.8072055  48.5714998   4.8743382  15.8268352  47.7739481
  23.6687582  -2.3137934  49.1857359  24.1702723  -3.0334759  48.6501795
  22.9204687  -2.8251211  49.4425873  25.5378282   2.4147613  51.5515199
  24.8752137   1.6046527  51.5540486  25.2185336   2.7398458  50.6758138
  14.6254853  -2.0274476  53.8337666  14.3732351  -2.4439116  52.9905708
  15.3541864  -2.4844587  54.1262426   7.7175924  25.3762456  59.6343561
   7.4794345  25.9903615  60.4183377   7.9398550  24.5731620  60.1740491
  -4.0652861  12.5522188  42.6155861  -3.9253837  11.7495533  43.1965842
  -4.9036422  12.2813419  42.1592480   2.3681520   4.1159882  36.0554581
   2.8516309   3.3017237  35.7053346   2.2632530   4.5307618  35.1071568
  14.6314537  15.0408742  50.9553638  15.6321110  15.0736047  50.9484035
  14.5606603  14.0596281  51.1521926  40.5102349   0.3244169  45.8072631
  40.7049927  -0.5858934  45.5843353  40.1438927   0.1297922  46.7544498
  11.6846257  18.3037565  51.6491677  12.0447430  18.5921618  50.7746383
  10.7471206  18.0527877  51.2815969  20.8288668  11.9910376  50.4926601
  19.8734485  12.1549200  50.5730674  20.9476366  12.0658955  49.5491040
  20.2329806   9.4063128  46.9704989  20.5127666  10.3622972  46.9814389
  20.7996268   9.1109009  47.7579167  13.4918432  14.0830180  63.6229635
  14.0065084  13.8968919  62.8194142  13.3566473  15.0365764  63.6229440
  14.2357253   5.8837803  52.7558565  14.4848997   6.3605075  51.9412149
  13.3165475   5.7172326  52.5599921  28.4973302   8.5137947  54.1104355
  27.6104580   8.9057156  54.3477749  28.4301784   7.6604647  54.6573036
  25.5302942  25.2886992  44.3998637  24.9057978  25.6710779  43.7068698
  25.5777791  24.3666026  44.0840273  23.9424889  34.7654496  42.1106006
  23.8794341  35.1450459  43.0143936  24.0262525  33.7919399  42.2344279
  16.5294264  33.3230710  61.0046676  16.0659782  33.7032494  60.2786836
  17.4334443  33.6491317  60.8693577  28.8134617  25.6870119  50.8771772
  29.5688458  26.3266782  51.0125417  28.0955269  26.3156106  50.8461043
  27.9613169  20.7959958  55.1195583  27.8089034  20.0533617  55.7065763
  28.7568814  20.4190475  54.6073550  30.6943884  25.2503447  44.4639062
  31.6695771  25.0767296  44.5637372  30.5755250  25.1463806  43.4637356
  22.5316576  12.9965423  54.1187021  23.4571961  12.6036105  54.1778271
  22.0030907  12.1850488  53.8899143  32.7071994  21.5956130  60.2653633
  33.5904416  21.6149586  60.7369539  33.0977066  21.5453185  59.3748773
  21.7382568  19.7796425  45.0076298  22.5942214  19.4624069  45.3618197
  21.5637076  20.5566446  45.5985594  19.7295077   5.4208064  46.1411589
  18.7851257   5.1093733  46.0067506  19.7681207   6.1445921  45.5228796
  17.6993073  23.6466333  50.3162613  17.9177677  24.1749097  51.1277144
  16.7430032  23.4022742  50.4970759  36.3586073   6.7391078  50.2339890
  36.0393516   6.3057325  51.0194763  37.2248044   7.0485969  50.4768331
  11.9371400  21.2194931  48.8488769  12.8279757  21.6577103  48.9164339
  11.6330058  21.6488586  47.9977148  23.8625413  25.1901787  53.9318231
  23.2803548  25.4421737  54.7076294  24.2000828  24.3266888  54.3148234
  25.4721011  13.9208806  61.6030748  25.8977670  14.7812165  61.3802813
  25.2339153  13.6247059  60.6810213  21.7948705   9.0047198  49.2355294
  21.5608975   8.7730659  50.1727641  21.9385351   8.1048936  48.8850653
  22.6319042  26.6804122  63.0576777  23.1965763  27.1213635  62.4457070
  22.4664156  25.8460014  62.5169673  32.3201281  18.6677710  59.4152441
  31.8357239  19.4793950  59.5557690  32.7598396  18.4967988  60.2733650
  26.6751501  10.1098710  51.9167719  26.2334576   9.5668906  52.5950673
  26.5978202   9.5111788  51.1460959  18.4327395  12.5249223  51.4983414
  17.6002220  12.5668098  50.9727037  18.2968627  13.1573801  52.1760268
  20.0736374  31.0154091  54.9337903  20.4513778  30.7108520  55.8123162
  20.5661094  31.8975058  54.9341416  22.5264569  22.5264206  59.8549203
  23.1755920  22.6210017  59.1437856  21.8688050  21.8877812  59.3678726
  32.9347161   4.3175137  58.5073903  33.0528453   4.5979118  57.5388668
  33.4517291   5.0299364  58.9632400  32.6157529  12.6428341  55.7032436
  33.3335058  12.1800704  56.1940037  31.8340377  12.2879922  56.0708693
  21.5225901  22.1982140  62.7066246  21.5269763  23.1286396  62.9977845
  22.1099639  22.2466364  61.9556074  12.1336125  22.1778627  55.6937877
  11.3805961  22.7574991  55.5709970  12.6464750  22.2934620  54.8473729
  27.4105999  21.0800375  73.0415842  27.8341773  21.4623905  73.8293648
  26.4961720  20.9239368  73.3801547  36.4122892  21.3527670  65.2073107
  37.1417663  21.4694633  64.4927652  36.7167913  22.0116137  65.8377805
  17.9360749  16.1123812  50.7996954  18.0943241  15.6576616  51.6300018
  17.9865749  17.0883420  51.0599970  34.9715796  19.0477400  58.9350358
  34.0880851  19.4675823  58.8204387  34.7523594  18.1861857  58.4572999
  18.5525733  20.6753966  42.2554018  18.7091006  19.9048976  42.7885249
  17.5931544  20.8267988  42.2306738  28.3258208  19.7122088  64.2702310
  27.4968537  19.3385291  63.8539082  27.8971129  20.3097663  64.9071752
  30.1524408  10.3809374  40.5814190  30.1062031  10.4703564  41.5320298
  29.1177451  10.2915139  40.4264070  24.7315267  29.8824375  47.4378796
  25.1578499  29.5829157  46.6076350  24.2113171  29.1011928  47.7041821
  25.2240636  21.8566055  52.4794740  25.7685772  22.4894391  52.0062053
  24.4502546  21.7323030  51.8760116  20.9871873  28.3680587  43.7989403
  21.8581044  28.7884679  43.6717237  21.2021121  27.5255796  44.1994704
  44.5573847  20.3174430  47.2342786  45.2818232  19.6622705  47.3791620
  43.7689541  19.8281418  47.5968283  29.2320290  29.6318950  50.7055029
  28.4654932  30.2748274  50.6820958  28.8476860  28.9293205  50.1004981
  10.4148502  24.6883394  45.6193678  11.0128427  25.3634093  46.0055510
   9.6625879  25.2700585  45.3147613  23.3866646  22.5479118  49.1457070
  22.8245162  21.7691489  49.2049996  22.8407882  23.2374843  49.5782510
  33.0500188  12.7387336  78.9372693  33.2486122  13.2817046  79.7468451
  33.7560077  12.0900441  79.0128576  10.4086444  18.0998201  64.0179775
   9.8280615  17.5690355  63.3371480   9.7201578  18.7155583  64.2732932
  23.7536839  25.5369566  46.3985547  24.1401329  25.2236515  47.2150435
  24.4228590  25.2785618  45.7112070  36.0214670  15.9203793  60.4018942
  35.3674628  16.0634638  61.0789183  36.8352847  15.7537765  60.9208506
  19.7030684   0.9609575  50.1828167  20.1200985   1.2744789  51.0200518
  18.7521083   1.0383640  50.4370189  14.2413810  20.5804018  54.2450530
  14.6571384  20.0949362  53.4537548  13.3232542  20.1756623  54.0911237
  40.1064846  20.7017504  49.1489084  39.9690780  20.3729280  50.0691666
  40.0309602  21.6667961  49.2469451  26.5177783  12.8589047  49.1564769
  26.2396378  13.6108449  49.6254035  27.2813233  12.5991477  49.6794475
  20.9794868   9.5585461  56.4042887  21.0358304   8.5956183  56.6980261
  20.9456489   9.9424016  57.3452272  42.2116413   2.0564709  59.2314623
  42.6299994   1.4746743  59.8325481  41.5271862   1.5042580  58.8488705
  38.6402580  20.0671783  44.1765539  38.5408309  20.7113893  43.4625873
  39.5223156  20.3557063  44.4926376  26.8380021  13.1687328  57.2935301
  26.5046513  12.4862449  56.6941090  27.7360073  13.3219302  56.9014023
  23.7265687  26.7073616  51.8288145  23.0262444  27.2875215  52.2572423
  23.9801496  26.1925697  52.5942375  22.3355295   0.6016714  46.5820636
  22.4377073   1.5633172  46.2844759  22.3621646   0.8048408  47.5548086
  33.2606112  21.2395453  57.7713540  33.6558451  21.7938326  57.0105764
  32.3273202  21.2336903  57.3719133  23.8170357  12.8547816  47.8247866
  23.7833438  11.8470507  47.9542840  24.5723622  13.0600052  48.3947762
  20.9921662   5.7785577  41.1689452  20.9510935   6.4771630  40.4755363
  20.2242035   6.0793096  41.7314731  23.9905179  17.2101556  41.5394337
  23.2875944  17.9142136  41.6752494  24.1352546  17.3765533  40.5474178
  33.8891148  33.9023459  37.2790496  33.6027934  34.4835975  38.0437937
  34.8165572  33.8538442  37.5250555  46.6842129  10.3860058  58.4878786
  45.9965927  10.5600032  57.8204537  46.9002739   9.4534551  58.3686824
  17.7662613  25.2247284  52.3535911  18.0210912  25.8625022  53.0339975
  16.9152814  25.6466616  52.0785709  23.0460215  24.7191067  40.7558775
  24.0400731  24.6127598  40.6859888  23.0104654  25.2410950  41.5862006
  34.0508930   1.7799138  58.5275659  33.4487324   2.5891535  58.6577250
  33.4302265   1.3590234  57.8227758  21.4473026  20.4885072  49.5125754
  20.5253305  20.8287331  49.2204924  21.4820133  19.6304570  49.0092514
  15.8581928  18.7971148  49.5193459  16.7643131  18.5479193  49.8860260
  15.7191416  18.0466314  48.8936961  27.1267561  18.7837346  56.8080075
  27.9562590  18.8580903  57.3071206  26.9459346  17.8141242  56.9812615
  29.2612839  13.2999641  46.0420698  28.9948785  12.6590201  45.3372025
  30.0895723  12.9540847  46.3085822  19.3085138  21.8061622  48.9689549
  18.7008937  21.7478453  48.2345436  18.6926710  22.3143048  49.5939120
  26.9824154  23.9091521  51.0218088  26.7670343  24.2975788  51.9237510
  27.6763601  24.5684597  50.7992569  18.2604204  13.0539625  68.3128319
  17.9780964  12.6516782  69.1451573  18.1359146  12.3972617  67.6283379
  36.4467718  22.2142078  57.0945977  35.5048151  22.3499615  56.7892104
  36.2894447  21.4190398  57.6553122  33.4961232  17.5365517  56.6463981
  34.4836158  17.5788617  56.4530080  33.1798927  17.5502488  55.6865993
  15.9948691  32.1450380  52.4650159  16.9604857  32.3435163  52.3927638
  15.7446857  32.4718447  53.3061573  22.5097965  24.6239801  50.6227309
  23.1464734  25.2753113  50.8609612  21.8810296  24.5885088  51.3684969
  15.8137442  19.8174076  56.4067065  16.3551517  19.2503349  55.7561178
  15.0138965  19.9075837  55.8843949  23.5986014   9.2899187  56.1151085
  23.6021563   8.5329430  56.7323022  22.6359423   9.5653892  56.1256874
  25.6855673  19.6028935  53.9871165  25.4821796  20.2948257  53.3404044
  26.5115663  19.9076214  54.3681805  21.1572903  11.9615950  47.6984911
  20.7547417  12.4915842  47.0115712  22.1361601  11.9633411  47.4079402
  20.4386925  24.0912257  52.2510828  20.2876299  23.5832030  53.0841959
  19.4957162  24.3331153  52.0353210  27.3412121  31.1995498  43.0789762
  27.9825484  31.8425281  43.5349250  27.6889026  30.3524675  43.4666753
  31.1690868  16.7899991  48.8931262  31.3485052  15.8352212  48.7475729
  30.2717851  16.7634044  49.2119625  25.9338315  10.9953191  61.5556572
  26.8106595  10.9336271  61.8890409  25.7217930  11.9262542  61.7152991
  17.5071683  28.9384902  38.0054664  17.2480408  27.9703586  38.0224696
  18.4442641  28.8365221  37.7418240  21.8534849  18.0132732  60.0386231
  22.5084245  18.5134172  59.4808705  22.3606275  17.9632431  60.9126670
  32.8268889  16.2363256  62.0780643  33.1913340  17.1259153  62.0103751
  32.5787675  16.1951472  63.0303689  13.7718101  29.2445802  58.6054675
  14.1762253  29.5131142  57.7537693  14.2866798  28.4527818  58.7649101
   9.8828112  19.9520453  40.8996630   9.1102721  19.5540317  40.4631600
  10.3660862  20.2163713  40.0382824  15.2573788  23.4335874  45.1190870
  14.4484717  23.9334194  45.0367842  15.2050350  22.7106429  44.5288205
  17.8691439  14.5851895  53.4184906  18.7552295  14.9416400  53.7281708
  17.3299523  14.9747114  54.1799120  33.3265679  17.9733403  47.2486166
  32.6758727  17.6010004  47.9547971  32.7182406  18.5712755  46.7764459
  36.6909492   1.9485732  59.1595986  35.7082027   1.8757565  59.0970398
  36.7474196   2.9466477  59.1554582  40.8173393  17.4668178  53.1001635
  40.6408266  18.3396246  53.3976357  40.2925914  16.8784797  53.6589041
  18.1818979  12.6393446  41.6336992  18.9728520  12.6256358  41.0533653
  17.4893024  12.3418673  41.0547943   9.4870750  21.1582138  53.8389713
   9.8123162  21.5399956  52.9937818   8.6210850  20.7298013  53.4971121
  41.2820643  13.6473095  55.4092400  41.3611604  12.7833546  55.9543323
  42.2490035  13.6503201  55.0909460  27.1573859  21.1306672  66.2884071
  27.1204283  20.4177365  66.9311130  26.2314754  21.2127963  65.9830634
  28.6298842  23.7123358  58.1994509  28.8224340  23.1702246  59.0389585
  29.2015585  24.4761740  58.3433431  22.4345791  30.7813797  46.2210829
  22.5407579  29.8110738  46.4304003  23.2608127  31.1305600  46.6408886
  23.5236133  26.3599001  42.8358037  23.1870742  27.1231372  42.2451134
  22.7483960  26.2226191  43.3704649  29.6161221  20.4937246  69.0548417
  29.9533922  20.1079555  69.9198239  28.6811638  20.2757326  69.1967460
  11.3194331  25.1301245  58.5061766  10.5977770  24.4948639  58.2651763
  11.4892963  25.4734538  57.5948052  16.7870349  29.4654278  52.3452369
  16.3022904  28.7454966  52.8178679  16.3045570  30.2256674  52.5648969
  19.3986915  22.1346448  54.0028772  19.2821360  21.2025155  54.1032375
  18.8871852  22.5122272  54.7824019  22.7989834  25.9098583  56.2165653
  23.7710628  25.8913540  56.4464860  22.5449952  26.6465920  56.8826214
  20.6356473  13.1619585  62.3241797  19.9641156  12.9601686  62.9707468
  20.3538070  12.7158591  61.4904949  16.7317967  10.4995281  55.3576053
  16.7420443  10.1956931  54.4151794  17.5328326  11.1507327  55.2591950
  25.4168215  16.9117984  54.2143514  25.5455673  17.8967753  53.9844087
  25.8610326  16.8154613  55.0506941  13.5557513   6.9910912  63.3020018
  12.6562761   6.6902142  63.0082037  13.3376969   7.9575690  63.3587570
   0.5916693  16.5912576  42.6782602   0.8996645  17.3059064  42.0042058
   0.7674105  17.0585508  43.5300127  19.8964692  28.2372111  46.7249897
  19.6208577  27.7777312  47.5423535  20.8318864  28.2359821  46.7611742
  23.1908364  13.4417176  44.1385617  22.5664614  12.9068750  44.6558883
  23.1793832  14.3298757  44.5477471  17.5311214  23.9637031  61.3167054
  17.3107889  23.6161483  60.4395328  17.0247250  23.2514449  61.8392525
  18.6949183   5.8895940  49.2218127  19.4431543   5.7652992  48.6293949
  18.3338280   6.7254652  48.8484868  23.9093521   9.6234144  45.6161949
  23.9939122   9.6684308  46.6309640  24.7549580  10.0444766  45.3642480
  21.6374393  19.6279525  55.0283315  22.4933113  19.3976795  55.4241631
  21.6141213  20.6118623  55.2482046  18.4513677   5.2722913  53.0285115
  17.5897483   4.8587303  53.2288360  18.9206290   4.6261097  52.5232346
  17.5489545   2.3329643  51.9378623  17.7787855   2.1515513  52.8936547
  16.9069812   1.6941740  51.7723357  22.8858879  15.8029585  54.5701357
  23.0871665  15.0514908  53.9794942  23.4947284  16.4726350  54.2400829
  24.3003788  22.9768726  65.5744644  24.7302709  23.4127561  66.3192864
  23.3795679  23.3365957  65.6556010  23.4673334  -1.5364849  57.5413157
  24.3477335  -1.5137205  57.1405639  23.6553034  -1.1007700  58.3953150
  27.7861762  -8.3823808  44.2122763  27.2102384  -8.3081874  43.4333923
  27.2911484  -7.8479404  44.8981091  13.6859791  13.3571444  59.3187578
  13.9767555  14.3208258  59.2342152  13.8130743  13.0657122  58.3832286
  21.3530808  27.5447634  57.6699493  21.2073621  27.8539791  58.6035523
  21.3109598  28.3781119  57.1639678  22.0230071  31.7838691  43.8406319
  22.2547188  31.3055091  44.6642877  22.7165825  31.3632495  43.2735796
  32.9262095  20.3676632  54.6946919  32.0746734  20.3445939  54.3567065
  32.8480526  19.9645280  55.5865033  10.9375919  30.8564538  45.4804338
  11.8378908  31.1173259  45.7424192  10.5850210  30.5897115  46.3728882
  25.2256961  12.0335229  53.5258494  25.5320659  11.7112092  52.6898090
  25.4862917  12.9443313  53.4698160  29.2101854  17.3462195  52.1586539
  28.9815345  16.3857604  52.2348529  29.0172173  17.5166112  51.2429157
  18.7390875  20.5186066  56.9521756  18.4037842  19.7318603  56.4884222
  18.3337792  21.2580944  56.4372156  24.3235403  20.3438795  64.9570855
  23.6268665  20.0498213  65.5860481  24.1892875  21.3117061  64.9481620
  36.5946958  17.9352504  66.6696490  36.7880456  18.7013046  67.2909767
  36.3417471  17.3096106  67.4312183  15.3344999   8.9585530  48.6902174
  15.4256628   8.0307482  48.3829106  14.4461925   9.1816042  48.3115393
  40.0571509  10.9524070  52.4763646  39.2001047  11.3187483  52.1742850
  39.7253290  10.7307109  53.4048520  20.0038587  16.5428913  33.9068262
  19.3089107  17.1695236  34.1461611  20.6926744  16.7226581  34.6243530
  33.1090677  -1.3586293  50.2916710  33.8977487  -1.6008650  50.7890409
  32.5583407  -2.2035098  50.3480221  28.1913064  26.1947747  44.9316121
  27.4676815  25.6906262  44.4679664  28.9332559  25.5659612  44.8271537
  27.6587557   5.4050748  51.7019766  27.8785398   5.5890048  50.7685453
  26.7049523   5.4930655  51.7240937  36.4021579   9.3603378  56.4327822
  36.5742320   9.2918544  55.4730047  37.1152334  10.0160128  56.6515455
  33.9174428  32.3370546  34.3014951  34.1823358  32.0525328  35.2044429
  33.7210876  31.4713922  33.9062885  32.8398765  24.4160626  59.8943070
  33.0806996  23.5454486  60.2136742  32.0107937  24.6011355  60.3079218
  25.6688441  15.6115644  43.5895578  26.5945477  15.8789212  43.4604297
  25.2695958  16.0366013  42.7715436  43.5622679  20.6185350  64.2918820
  43.5734949  19.8613148  63.6414913  44.5257455  20.8864607  64.1357382
  27.6722055  -0.5832161  49.1641351  27.4585630  -1.1019566  49.9783926
  26.7795098  -0.3099806  48.9494583  26.6493532  14.4806232  52.9385519
  26.2060976  14.6679044  52.0969079  26.2919874  15.1901522  53.5179829
  36.5745276  19.6774788  45.7036176  36.3275063  19.0657624  44.9430428
  37.5409471  19.8054730  45.3793428  26.4166048  13.6281484  64.7237887
  25.8850322  12.8653871  64.9969267  26.0654196  13.8676356  63.8520756
  15.0157600  16.8622113  57.2946856  15.1198278  16.1810324  56.5798954
  14.2908782  17.4293766  56.9442479  31.7142387  11.8185029  43.3224817
  32.1439280  12.2997978  44.0550757  31.8505895  10.8792866  43.5190536
  37.0914966  -1.4067575  58.1815687  36.7788981  -2.0628460  57.5188108
  38.0345230  -1.5161262  58.1637698  26.6561959  18.8975748  67.7957763
  26.0787633  18.5203132  67.2240639  26.2859617  18.8331679  68.7009827
   7.9294726  16.1201466  45.2496949   7.8142725  17.0040925  44.8503294
   7.9499868  15.5751809  44.4228049  15.4511042  13.2002983  55.9840963
  14.9393415  12.9709369  55.2232762  15.2628375  12.4370885  56.5720339
  34.4601734   3.7619486  50.9852093  34.7590856   4.3387801  51.7122487
  35.3921291   3.6440905  50.5738966  30.2861546   5.0043477  54.9868857
  29.7096807   5.7279857  55.3960615  30.4929231   5.4050059  54.1550072
  24.9038530  28.7790262  71.9635822  24.6358887  28.2258531  72.7449787
  25.4706235  28.1956259  71.4854416  14.1860328  24.9855430  47.9975534
  13.3790558  25.1393667  47.5672884  14.8784048  25.4068613  47.4104391
  13.1989504  30.9451227  53.0863879  13.6370772  31.6278918  53.6218455
  12.4171996  30.7206340  53.5231282   9.1441462  24.1385559  51.9266961
   9.3034980  24.4135702  52.8320544   9.2073440  24.9324824  51.4033150
  38.6699863  18.2873364  60.2108032  37.9339265  17.9739233  60.7861370
  39.4058288  18.0374944  60.8515159  39.6556980  12.5286536  45.1580251
  39.7918725  11.5672092  45.1380194  40.1949229  12.7868670  44.3296441
  34.4699985   3.7640906  55.1026592  33.6311389   3.2008284  55.1975155
  34.0152980   4.6024219  55.4232907  11.9961335  39.9307441  48.5534020
  12.8875027  39.5105292  48.7915097  12.1335346  40.8592669  48.8885852
  34.8214089  21.4166248  44.8491950  35.3094383  20.8148877  45.4469070
  35.5239047  21.4824546  44.1257246  21.4076052  25.8848119  44.9415277
  21.9940007  25.3049169  45.4529183  20.5432206  25.4301615  44.9901578
  42.8799222  15.5998204  57.7283848  41.9174988  15.7263360  57.5232828
  42.9854324  14.6477183  57.5965860  46.4360493  18.6751573  48.1824170
  46.6097777  17.9985335  47.5284997  46.2205538  18.1300699  48.9881840
  23.1085384  31.0673561  52.3950687  22.9756188  31.8454693  52.9388872
  22.2027707  30.8202648  52.1843072  37.7172055  17.3863080  47.9859478
  37.0802574  18.1303171  48.2113309  37.1860772  16.9771884  47.2443668
  18.3075068  16.9255604  45.8597876  18.1035086  16.2077989  46.5171468
  18.0358033  16.4909958  45.0483446  13.6719641  24.7027263  70.5664754
  13.0144757  25.4077309  70.4605183  13.3569974  24.0784148  69.9126025
  21.9943448   2.3226756  41.0175220  21.5322590   2.3883044  40.0862287
  22.1454678   1.3685308  41.0329529  23.7965533  29.2906403  43.4653741
  24.1156339  28.7502329  42.7416516  24.7046268  29.4822099  43.8693991
  20.5299637  19.4777573  38.0545301  21.0496813  18.7047541  38.3218886
  21.1901373  20.0004718  37.5656048  28.5379880  15.3573819  75.7200070
  28.2520125  16.1047029  76.3146612  27.9142647  14.6950987  76.0322042
  38.9901961  22.8842226  57.4391135  39.4706010  22.6104325  56.6076232
  38.0787391  22.5080940  57.1903354  63.4041872  45.4187546  53.6435048
  63.5283261  45.4108134  54.5944131  64.3157527  45.3197147  53.3452309
  46.7179356  62.5506204  67.9412388  46.6001976  61.7064693  67.5480494
  45.7851074  62.8586694  68.0315421  63.8771997  51.1119704  59.1711257
  63.6561150  51.7603926  59.8966794  64.4988732  51.6766993  58.6565329
  63.4240200  44.3187718  62.6087150  62.7211010  44.8719645  62.9871246
  64.1763702  44.9622144  62.5235165  46.2609946  54.3606226  57.2475821
  46.1696570  55.3520971  57.4785652  45.7937532  54.0131341  58.0603831
  63.5026201  51.6854931  65.3296430  62.5172484  51.5252520  65.3266695
  63.4889542  52.5535319  64.8217011  52.5163562  55.4994141  62.9397378
  52.6152233  55.8065492  62.0139490  53.1181738  54.7663820  62.9934877
  58.4444395  56.5775625  56.0718490  57.9166329  57.3929865  56.3774487
  57.6936167  55.9183264  56.2583641  54.7858725  47.0340370  58.2890085
  54.0757802  46.3877529  58.4061297  55.4867354  46.4229230  58.0530381
  49.9875230  65.9114536  75.3606400  50.8335501  65.9835561  74.8543890
  49.8785536  64.9746885  75.3860978  54.4291522  53.3773839  62.2564997
  54.6554830  52.5146273  61.7410917  54.5790456  53.0154664  63.1396588
  56.6900007  62.2489346  60.1107242  55.7370243  62.0382205  60.0356302
  57.0808151  61.4071636  59.9084200  49.7726283  66.1768776  59.9180687
  50.1045381  65.8198666  60.7638050  50.6003146  66.4004774  59.4954118
  44.9086476  69.0077402  53.2393360  45.0266234  68.6458809  52.3583599
  44.9216339  68.3049225  53.8713157  56.9781521  53.1475050  47.2552707
  56.7236907  53.9882977  46.8490730  56.5994968  52.4868379  46.6328820
  50.5243083  65.1890242  62.3338216  50.5476691  66.0839075  62.8343371
  50.2107798  64.6140974  63.1021606  52.0857479  66.5309041  58.3017207
  52.0082517  65.7953953  57.5814757  53.0586356  66.4869599  58.4096090
  43.1574508  53.3399582  61.1755669  43.9792707  53.5381280  60.6770114
  42.5263183  53.8786490  60.7174791  49.8471370  64.4990829  47.9960136
  50.3165259  64.9539080  47.2691841  50.1933316  63.5604647  47.9202225
  57.6873204  67.2928208  49.4171599  58.4123710  67.7765645  48.8799996
  58.0131575  66.4020788  49.2173534  59.9341252  59.4967372  49.3831400
  60.5637235  59.3721872  48.7146289  60.2887958  60.3348558  49.8155318
  57.5807469  51.6106393  57.1977841  57.0387529  51.8092911  56.4526654
  58.4411724  52.0992535  56.9939895  54.9694418  58.1779023  56.5535196
  54.8024873  58.9911683  57.1081317  55.9928594  58.2626311  56.5584724
  54.3466971  62.6794440  48.5587327  54.2922010  63.6157250  48.4017828
  54.6084101  62.2985045  47.6996616  70.1287524  49.4645832  70.9864838
  71.0789764  49.6065286  70.9698390  69.9695688  49.2682804  71.9323009
  56.8667592  61.7407630  40.9978401  56.2715626  61.2771854  41.6119152
  56.7675658  61.2154926  40.1691520  51.3496836  61.5141560  47.9721334
  51.8797344  62.0395953  47.3642045  51.9095544  61.3919796  48.7658785
  58.5370091  53.8920324  61.2358500  57.9402179  53.4484030  60.5714017
  59.1025069  54.3804288  60.5945956  75.0468617  75.6667273  52.1021814
  74.1990260  75.7682351  52.6534230  74.5874025  75.8983937  51.2356719
  49.4025048  56.4763578  47.1778462  48.6049884  57.0764389  47.3156778
  50.0947689  57.1275208  47.0459160  46.4967632  61.4485219  51.4264258
  47.4021167  61.1959333  51.4537377  46.4179651  61.8029517  50.5046184
  57.4632284  78.5154599  49.4522180  57.1106818  79.3801876  49.6641963
  58.4088410  78.6834933  49.2456735  58.9968845  49.5031913  70.5099260
  58.2872239  49.5044248  71.1987309  58.5690623  48.8850784  69.8752058
  68.1712936  54.6501022  43.8785241  68.2679277  54.3726718  44.8248863
  67.3360206  55.2296277  44.0388285  59.4708085  56.1224525  42.8847863
  59.0085045  56.9338280  42.5704877  60.2607363  56.5476431  43.3116192
  60.0273217  62.7596243  54.4853728  60.2342908  63.5404874  55.0834586
  60.0428269  63.2254658  53.6321242  52.5166867  58.2145222  55.3612134
  53.5122036  58.2758130  55.6013323  52.2077435  58.8790033  56.0341253
  48.8874581  55.9993869  67.7280198  48.7212523  55.4372624  68.4945082
  49.7787845  55.7889826  67.4779482  52.6069887  58.1270183  49.0611983
  51.8089296  58.5869279  48.8260587  53.2808224  58.7660407  48.8317459
  67.2889904  65.8608727  36.1544446  66.7263920  65.1523250  35.8121705
  67.0498034  66.5558489  35.4696167  48.1594235  57.1374328  70.2421744
  47.7993458  56.4568988  69.6486088  49.1196369  57.0536813  70.2033960
  55.6969654  79.5847014  56.4601073  55.3009943  78.7337807  56.1914495
  55.3906824  79.6247851  57.3725626  66.9560456  48.3186644  53.1602223
  66.5990852  47.6286512  53.7598445  67.8241328  47.9430851  52.9606790
  49.4646546  60.2073918  55.8960169  48.5543316  59.9713414  56.3142673
  49.9776595  60.0863521  56.6987214  43.2616326  73.7346387  58.7240394
  42.5079556  74.3077066  58.7869654  43.9566047  74.3492564  59.0927474
  58.6474817  56.2251826  47.5562843  59.3833194  56.5964854  47.0418613
  58.1131921  55.8599669  46.7525788  55.3460676  55.5275436  61.0771635
  54.7379287  54.7881251  61.2816462  55.6555788  55.7222562  61.9753047
  52.0147204  67.0314164  52.8723082  52.4394283  66.8773925  52.0445666
  51.4621130  66.1720003  52.8996663  48.3122202  59.1518224  58.2730479
  48.9724796  58.7760191  59.0017616  47.5370260  59.1971175  58.8340678
  59.9257680  75.7590317  50.9293992  59.4460734  75.2631399  51.6170954
  60.6809157  75.1518041  50.7585629  40.8751587  56.4188576  57.6600432
  40.6804973  55.9032981  56.8629327  39.9532591  56.4806738  58.0103272
  60.2975443  58.0022883  62.8174174  60.5090088  57.6202370  61.9530331
  59.6850322  57.3875678  63.2214440  52.9600630  52.3727873  42.7018693
  53.2292027  51.4288529  42.5438841  52.0362358  52.3361637  42.3530633
  50.9124125  49.2848041  61.2419696  49.9467017  49.3660389  61.3787086
  51.1488361  48.6684568  61.9569068  42.9414037  62.4646912  54.7640016
  42.1034439  61.8799156  54.5738231  43.6156433  61.7419564  54.7832811
  46.1306570  64.6032318  44.9197330  45.1566367  64.6831663  44.9608040
  46.2110831  64.0112477  45.7304397  47.9515569  52.7078076  66.3127102
  48.0729959  53.3078345  67.0455535  48.6977195  52.6996871  65.7673410
  38.9783255  59.0374511  64.4819449  39.5168974  59.5312064  65.1080233
  39.6251117  58.6943024  63.8432919  49.3510327  83.4622980  58.1407593
  48.5584639  83.9815463  58.1951326  49.9051403  84.0965790  57.5293684
  51.6280543  73.3826291  52.3530575  51.0945410  72.7823127  52.9556960
  51.7148596  72.7461878  51.6092580  67.4611629  71.8833018  49.8236539
  67.7764617  72.2100983  48.9408467  67.2238601  70.9636797  49.6576908
  63.2150278  68.3007377  62.7616415  64.0025491  68.4303980  62.1959448
  63.6355039  68.1067544  63.6150206  59.1465923  55.6914425  63.4148181
  59.3102522  55.1257465  62.6568944  58.2057678  55.4580623  63.6094039
  52.6461608  63.0883288  46.0664922  53.4349746  62.4990970  45.8833733
  52.9923232  63.9417133  45.7439645  61.2606381  60.9328531  58.2351426
  61.4331776  60.7088262  59.1731380  61.9017707  61.6589490  58.1376081
  52.4631258  57.0213035  66.7223028  52.2228448  57.3022323  67.6553982
  51.6559969  57.1816073  66.2626136  63.4044212  52.2278525  61.8356675
  63.8668751  51.5813897  62.3767909  64.0648990  52.9683585  61.8887189
  50.9959555  50.8664954  67.3151104  51.9231790  50.6685155  67.2665747
  50.8163091  51.1414730  68.2407556  54.2255145  58.8932500  41.1523598
  53.4494910  59.4419588  41.3859392  53.7790959  58.2564218  40.5271800
  58.3787575  49.9409761  51.0452804  58.1913575  50.4393840  50.1725037
  59.0346742  49.3157044  50.7026886  52.1292315  56.4429495  51.1024423
  52.1861150  56.8754995  50.2310307  52.2863462  55.5201231  50.7979478
  51.1081186  68.1950783  48.2722895  51.1084622  67.5353629  47.5851139
  52.0708816  68.4696355  48.3228140  68.2949996  46.3385309  60.6457454
  68.6339145  47.2543899  60.3808891  68.4551108  46.4090941  61.5998398
  49.7346542  52.4704568  45.9566680  49.1296449  52.9060575  46.6115372
  49.2685122  51.6797698  45.7447589  56.3733973  49.1514055  52.6231953
  57.0250089  49.5992487  51.9801726  57.0273781  48.6255340  53.1232832
  58.8471883  61.9663811  43.1735994  59.0713160  61.5051656  42.3843216
  57.8373379  61.8676850  43.1480755  59.8250247  74.0639725  43.9175316
  59.0638769  74.6132026  43.6862134  60.4252197  74.2314100  43.1387243
  46.8219481  64.7814644  63.9994435  47.2386582  64.7771461  64.8810162
  47.1294033  65.5869055  63.5875246  55.4552433  64.1449018  52.1815748
  55.9111046  63.7128488  51.4409923  55.3676266  65.0270607  51.7857765
  44.8502364  73.8437021  55.0007677  45.5148149  73.3524377  54.4815224
  45.3888477  74.2734792  55.6871499  58.9460600  73.4805191  37.2390306
  59.7850775  73.0019769  37.0466109  58.8007857  73.9628122  36.3769917
  70.6513049  61.0611213  55.3256820  70.4568257  61.7429602  56.0439434
  71.1692223  60.4319601  55.7929159  67.4642029  64.0400009  42.0917310
  68.0394175  64.8237318  41.9801055  66.8040508  64.1446814  41.3947229
  63.7393253  44.4073238  49.3826338  64.6647103  44.7365665  49.3971347
  63.6568766  44.3870698  48.4225790  44.2578584  67.8201883  46.4321076
  44.8722267  67.3206479  46.9762162  43.9005415  67.0230143  45.9068528
  56.5514718  60.1279783  53.3200119  56.2886999  61.0542799  53.4653274
  56.9727323  59.9368772  54.1673356  54.9475562  67.0239200  46.2621208
  54.4809162  66.3827944  45.6107305  54.6978836  67.8706759  45.7651850
  61.0044727  51.4561138  60.9093705  61.9400343  51.7127335  61.2242910
  60.4795670  51.9591646  61.5099503  54.0147787  65.4124247  44.5331195
  54.6486951  65.4055524  43.7954807  53.1914331  65.1205178  44.0808909
  61.1062078  56.4422120  60.8469522  61.9853674  56.1976714  61.1848594
  60.8982935  55.6783320  60.2800852  58.2435354  64.7756809  53.3562084
  57.3461540  64.5918244  53.2195472  58.2858734  65.2252454  54.1920992
  57.5559612  68.3747772  52.0872488  57.5048835  68.0222800  51.2147121
  56.6131207  68.6353978  52.2528129  53.9786753  58.8099125  45.0027724
  53.7771900  58.1773806  45.7400376  53.9845627  58.1960334  44.2538480
  47.1056132  66.2366819  60.6151585  47.1953391  66.4274606  61.5843726
  48.0516603  66.1571758  60.3331088  54.6879604  61.3094422  45.9970325
  55.6246618  61.2950316  45.9380549  54.4199160  60.5136812  45.5157262
  45.8624521  53.7711798  60.0240581  45.5431983  54.7067968  59.9688800
  46.7784417  53.9114157  60.3565201  59.0373268  52.0645054  63.1318879
  58.1728725  51.9089383  63.6130404  58.6604645  52.8217094  62.5885947
  50.0251076  62.5814485  54.9763151  49.0501313  62.7250768  54.8071438
  49.9770623  61.6526313  55.2966428  54.7966736  71.5460950  65.4201285
  54.5065471  71.7878961  66.3803245  54.1388741  70.8622797  65.3143866
  45.2306697  60.1633653  69.9036243  44.9021959  60.8194829  70.6085059
  46.1294480  60.0342293  70.2935993  53.8950152  72.6320558  41.3820088
  54.4250831  73.4410989  41.3432135  54.4372398  72.0451473  41.9543050
  65.6368701  64.4109332  45.7660239  64.7378359  64.5578700  45.9061003
  66.1104184  65.2355371  45.9359306  66.8183771  80.9358329  55.7284693
  66.1299066  80.3006567  55.8505482  67.6448362  80.4291273  55.6828222
  49.3965067  63.8056779  50.5045733  49.4513303  64.2197761  49.6043909
  48.4304884  64.1051682  50.6489973  60.9705731  56.7088517  28.5954919
  61.9450013  56.8595778  28.7230247  60.6687188  57.6132282  28.5810700
  41.8318458  64.8633591  58.8163751  42.5157292  65.1264480  58.1625631
  41.5019006  64.0183219  58.4310261  54.0039664  79.1753990  61.7299071
  53.3723033  78.8251417  62.4125809  53.4151964  79.7970385  61.2682841
  52.4536081  59.0146172  61.0849167  51.4930485  59.0761460  61.2912260
  52.5095938  58.1553707  60.5535356  48.7847678  69.7032838  62.7975797
  49.2622211  70.5326567  62.6132768  47.9122259  69.8969471  62.4249479
  51.5192709  71.9234085  58.6311498  52.5092720  71.7402041  58.6809786
  51.4159397  71.8565575  57.6315580  40.3794289  55.2285208  55.4850685
  40.4572272  54.2689856  55.4693831  40.0580539  55.4157092  54.5801825
  57.8235264  87.1913261  54.6153490  57.1273899  87.0219229  53.8746946
  57.9348640  86.3417507  54.9808702  55.8019408  70.4730112  49.1103703
  55.7764104  71.4179267  49.4351213  56.4431239  70.5062219  48.4235307
  64.0708429  53.8625843  50.8144722  64.8821099  53.3328152  50.6557211
  63.8903394  53.6885636  51.7774772  55.7644632  46.2024552  63.3484747
  55.2212741  46.8216026  62.8390722  55.3433454  45.3500225  63.1513555
  54.8923455  68.8578316  52.3308792  54.5931877  69.7321561  51.9558778
  54.5848130  68.9403587  53.2434926  53.5769171  68.0040090  54.9548740
  52.8320955  68.3317464  55.4788539  53.0470842  67.5122739  54.2357487
  64.3419403  67.8626640  53.1271841  63.4208423  67.5926132  53.3281921
  64.1215552  68.6664627  52.5687567  49.6312811  67.8250298  50.5244650
  50.2260891  67.0600058  50.7038968  50.1618946  68.2461430  49.8049203
  57.8056463  66.1282537  55.6515102  57.0854449  66.6681309  56.1312008
  58.2096279  66.8911201  55.1543631  58.9741496  68.1435511  54.4367497
  59.5290200  68.9054631  54.3903416  58.2934846  68.4014910  53.8641030
  74.5189214  62.7279755  43.9920694  74.4083537  63.5970387  43.6108425
  74.1359795  62.1912985  43.2366521  54.9703571  62.5456594  54.2416067
  55.2405882  63.2117000  53.5440714  54.3077503  62.0592970  53.7541674
  57.5856814  80.3820312  54.4793520  57.8109653  79.5503714  53.9715829
  57.0161530  80.0146776  55.2012875  55.5060565  72.8685646  54.0816871
  55.1064173  72.8740825  55.0189033  56.3991717  72.5988632  54.2748909
  50.5671635  56.0003264  64.7867259  49.9853763  55.3027332  64.4304595
  51.4040608  55.8803097  64.2477723  51.5432409  57.5746885  69.3579381
  52.3689861  57.3902791  69.8916223  51.3056126  58.4036455  69.8026753
  54.3131527  71.4142857  52.1719139  54.7281760  71.9019541  52.8895306
  53.5790855  71.9159291  51.9133042  53.9083193  75.1440268  55.5967177
  53.8952826  74.1464799  55.8068946  52.9410544  75.2854227  55.6862599
  46.4481179  56.9148091  57.9043533  45.8533188  57.6513818  57.9556495
  47.2505893  57.3254919  57.6895815  51.7532105  59.7836008  57.6914829
  51.4851250  60.5007209  58.2961562  52.7247369  59.9170219  57.6121225
  62.2918234  76.0002409  47.7850007  61.9787368  76.8643261  47.4963643
  63.2300501  76.0646694  47.5930280  65.5188757  63.4115989  52.2427774
  64.5412979  63.3992857  52.3298733  65.7247434  64.0943111  52.9009828
  48.9659296  53.4889342  56.5743899  48.0761135  53.7187566  56.9708506
  49.2081700  54.4275344  56.3405019  57.7399319  66.0379469  58.7332830
  58.4841454  66.2840552  58.1204543  57.8808439  66.7850795  59.3943124
  54.2815887  53.4943042  52.2585215  55.0980444  52.9693678  52.2386530
  53.8055625  53.2418744  51.5130380  68.0542938  83.9327152  50.2322373
  67.1627929  84.1439883  49.8777418  68.6308637  84.6180454  49.8356387
  62.0226787  51.6697612  52.8091381  61.6226023  52.4322175  52.3401066
  61.2778540  51.3733370  53.3930935  61.6338082  59.1179065  68.4104965
  61.1843704  59.2202398  67.5847047  62.3682539  59.7280641  68.3100064
  53.5108613  55.7975676  57.2209712  54.2801651  55.2350108  56.9877132
  54.0238781  56.6866485  57.2736384  58.1110674  52.6662897  54.5573629
  57.9976609  52.9132765  53.5887169  58.7067714  51.9008884  54.3965856
  56.9520367  54.2413031  49.8967215  57.1106253  54.0215953  48.9717875
  56.5660068  55.1367274  49.7499006  50.7787895  58.9448336  47.0735154
  50.5638683  59.2229506  46.1191100  50.6971218  59.9182988  47.4235175
  53.0465372  55.4262373  53.8095843  52.9246267  54.5101785  53.5197573
  53.9388844  55.5563348  53.6207612  56.6819951  62.7861401  49.9542553
  56.8481688  61.7954778  50.1028374  55.8532476  62.6000967  49.4403931
  59.3498587  60.7019551  62.7098321  60.1620423  60.9454636  62.1746767
  59.5717808  59.7426735  62.8409935  55.4564325  50.2212435  54.8635493
  55.3711957  49.3767079  55.2908321  55.6937479  49.9627797  53.9182794
  65.5988347  46.7837905  66.4284028  64.7862106  46.2596649  66.5770675
  66.1743205  46.1047158  66.0497954  72.8446882  61.2352187  57.3173852
  72.6027335  60.3935001  57.7470449  72.2275237  61.8483669  57.7276374
  64.4697764  60.1130149  49.4250352  64.4566730  60.9586307  48.8981514
  65.4544096  59.9968195  49.5674863  50.1500788  55.9935465  58.8855845
  49.8718077  56.1605650  57.9657279  50.0992053  54.9814691  58.8873988
  70.3836535  73.8534117  45.0135202  70.0544908  72.9367026  45.1244257
  69.4732420  74.2752864  44.6624707  57.0889737  77.5070350  60.4753977
  57.3955554  76.7515791  61.0843250  57.5072543  78.2298910  60.8960566
  43.7314505  83.5475979  65.4712143  43.8012145  82.9220728  66.2314617
  43.7609310  82.8959877  64.7139750  53.1540058  74.7011326  45.5326727
  53.5538995  73.8311405  45.8497896  53.6915310  74.6604298  44.6555516
  45.8509652  66.2254147  47.9792036  46.7983858  66.5141813  47.8137113
  45.9715747  65.2453662  47.7774575  44.7722452  65.3299810  60.1948417
  44.4286193  65.9948534  59.5708794  45.7114251  65.6958857  60.3146391
  50.6307518  58.8533872  76.7526937  51.5109628  58.4123517  76.6368054
  50.9075723  59.7005795  77.1356964  66.7685723  60.6604745  63.0747863
  66.6634412  60.6260881  62.1123470  67.4598577  61.3379346  63.1467396
  54.4870764  76.6425520  60.3982454  54.1432874  77.4193222  60.9361833
  55.4058152  76.9060910  60.3149155  55.5904620  66.5863720  50.8024645
  55.2861222  67.3515113  51.3048241  56.1730863  67.0060829  50.1524633
  62.1547266  54.0319560  66.8614482  62.7030445  53.2361182  66.9012921
  62.0906849  54.2541260  65.9516398  50.5685942  60.0224569  53.2538391
  49.8247898  60.4823030  52.8003052  50.1320901  59.8996847  54.1509690
  60.9139358  61.3966412  65.5148802  61.3011675  61.1616192  64.6695626
  60.7854843  62.3507949  65.4618355  69.7315828  69.7647253  47.7189000
  68.8040006  69.5622119  48.0036010  70.2022962  69.3275491  48.4219556
  57.0291111  63.6297991  57.7524959  57.2404484  64.5500196  57.9109869
  57.1471588  63.2401070  58.6543484  52.7482112  53.4828681  49.6849803
  52.2987302  52.6953632  49.2308221  52.3793104  54.1902538  49.0391191
  62.3628391  40.4411930  65.8515213  62.8456583  39.7477940  66.3521279
  63.1067641  40.7940992  65.3268357  58.6719834  44.2513308  48.3598302
  58.8241311  43.6606005  47.6078970  58.0357751  44.8725006  48.0298402
  49.1331757  70.8700235  45.9375606  48.5821903  70.0283963  45.7997426
  49.3290370  71.0549795  45.0074440  63.4958392  55.9793085  62.1120538
  63.2985845  55.7750700  63.0264695  64.3338871  55.4573858  61.9528331
  63.0455880  43.8735160  78.6756106  63.4300825  43.0017061  78.9930272
  62.5283079  44.0832794  79.4918320  55.5135206  68.6376207  28.2615201
  54.5672304  68.2459913  28.1251233  55.2556037  69.0074813  29.1432124
  61.4434899  78.0920207  38.9185519  61.1214029  77.9834400  37.9760308
  60.9729559  78.9118940  39.1254882  61.9243856  58.0745580  65.5539273
  62.1848135  58.6544414  64.7957389  60.9961591  58.0919114  65.5110658
  51.5496010  57.6832586  43.0038239  51.0174925  58.4561200  43.3696883
  52.0075829  58.1431153  42.3099845  62.8949120  53.7734447  56.0151836
  63.3869917  53.3584176  56.7807233  62.2471052  54.3350250  56.4736163
  68.3778587  53.9342075  46.5910897  67.5873912  54.0972335  47.0953428
  68.5805074  53.0300664  46.9860933  68.7684540  64.1606963  53.6198940
  68.0029516  64.3193547  54.1963425  69.4404982  64.7349118  54.0409702
  64.4744152  56.6089155  53.4506675  64.8644903  57.5259981  53.5085704
  63.7354581  56.8178202  52.8563874  65.5793965  68.3820113  61.4863101
  65.3002885  68.0475475  60.5700380  66.3804212  68.8362727  61.2466502
  49.9102570  58.3308387  50.1898331  49.6372089  58.0933176  49.2667297
  49.4819361  57.6694491  50.7247811  47.6848718  65.3265794  72.5361653
  48.3564733  65.9621486  72.2077855  48.0813581  64.4678491  72.3426379
  61.7337194  49.4155943  55.3838657  60.9190190  49.7153282  54.8466006
  61.9934570  48.6537404  54.8153650  59.8274926  47.8792450  50.0020442
  60.6062092  47.3067310  49.9794241  59.8531366  48.2470399  49.0492654
  69.4536886  48.6437377  64.1282420  68.5133626  48.9461066  64.2912969
  69.2505400  47.7568832  63.7219748  53.1526365  63.5700662  42.0911352
  53.4609912  62.6891989  42.2778160  53.3005347  63.6103446  41.0976273
  40.6990172  63.2232066  57.0950748  40.4026370  62.4045073  57.3155067
  41.3724788  63.1504494  56.4280753  58.5377701  57.4268842  50.1868241
  59.2770608  58.0815347  50.0612907  58.5875897  57.0179151  49.2842830
  60.8415319  53.6693386  51.5701232  60.3839801  54.3430124  52.1629356
  60.5261145  53.9339255  50.6981463  58.5097976  60.3516237  59.2807131
  58.8669208  61.0251949  58.7057025  59.1230164  59.6225316  59.1133882
  44.8660683  67.7536825  50.4930283  43.9592199  67.3146457  50.6972693
  45.0565001  67.2429742  49.7089636  51.5737531  64.2473956  56.7163727
  51.1001304  63.6089758  56.1098727  52.4774921  63.8205091  56.6008557
  38.3844869  57.5582926  58.1618339  38.7330019  58.4428483  58.4727509
  37.7226133  57.4372966  58.9191076  57.6471356  53.0449924  51.9776893
  57.6803023  52.2891412  51.3762476  57.6049517  53.8019930  51.3275232
  65.3990554  58.8229921  43.9000999  64.5247396  58.9137748  43.4923592
  65.1884948  59.2569385  44.7788265  57.7880998  57.4792614  52.8200795
  57.1198095  56.9837350  53.1868455  57.6894864  57.4285870  51.8641668
  66.4033453  61.2378300  54.9922782  66.5626168  61.5454063  55.9030450
  65.5810726  61.7483339  54.7801363  66.8785958  59.8132082  50.6323285
  66.4106876  59.5288636  51.4031225  67.6534129  60.2647690  51.0158858
  68.9189569  58.0173591  44.5772611  68.1731769  58.3789131  45.0876172
  69.6668284  58.1755270  45.2274479  64.5415740  60.5553636  45.7207595
  64.9300365  60.9153518  46.4907876  64.2807514  61.4316130  45.2629114
  66.9980792  66.7794367  52.6105664  67.5982640  67.3660503  53.1895955
  66.1423211  67.0917190  53.0474127  45.6268958  79.7975740  53.1490440
  46.1145643  80.1176913  52.3431731  46.3317256  79.4094733  53.6958847
  66.2600341  62.4479289  44.0449258  66.2038411  63.0068462  44.8754870
  66.8548596  63.0474561  43.5415411  65.0946790  73.3176714  49.5680778
  64.3306938  72.7419178  49.6992944  65.8593628  72.7011111  49.6459381
  51.7597047  53.3659708  55.5643310  52.3847197  52.7230022  56.0270786
  50.8943477  53.0084647  55.9041353  47.1483425  72.8095137  53.9079912
  48.0157918  73.1472211  54.2357678  47.4430740  71.9536847  53.5454742
  51.0458043  68.6104138  56.5448165  50.2499008  68.1464882  56.2392340
  51.3011230  68.0875371  57.3155518  56.6646000  73.9150296  50.4339659
  55.9160799  74.0643596  51.0442722  56.5818080  74.6696459  49.8438413
  46.9201249  46.7901884  78.6278216  47.5763406  46.1139382  78.3711897
  47.2989701  47.5449409  78.0965720  79.2319322  72.9186337  59.7040526
  79.5641778  72.8621564  60.6473775  78.7729777  73.8090050  59.8502801
  63.7609111  80.4009512  48.8302440  63.6552682  79.7604002  49.6316928
  63.0411503  79.9834496  48.2687647  71.6048150  78.6191832  47.6813377
  72.4159195  79.0614929  47.3950949  71.6650923  77.7886975  47.1881293
  71.1819118  81.0266752  50.0282739  71.5842785  80.2076704  50.4685559
  72.0059000  81.5513463  49.8457177  55.4447918  87.7785129  62.3911134
  54.9424078  88.1376019  61.5657810  56.3479320  88.1358321  62.2204858
  66.5337423  71.8034463  60.7364895  66.8552713  72.5875431  60.2420070
  67.1980036  71.7243708  61.4289302  64.4049766  69.8742656  41.1454415
  64.8908217  69.7480458  40.3350389  65.0236672  69.8964322  41.8518086
  63.7415089  70.2882667  51.4186426  63.8295440  70.4584328  50.4371297
  63.0482299  70.9572737  51.6204771  71.8635103  64.6487388  55.5263982
  72.3165094  65.4562153  55.3565190  71.8740461  64.7629401  56.6015762
  62.2921909  88.0421870  53.8911933  62.9288628  88.7152267  53.5648125
  62.6505769  87.2273268  53.6735722  66.0550764  63.7387234  67.7796899
  66.8343738  63.2404315  67.5126822  65.5587599  63.6805844  66.9201546
  62.4441344  84.4464325  47.0471937  61.5143054  84.7290633  47.2210807
  62.5652305  83.8350231  47.7738144  57.3381297  74.8418635  61.5407969
  57.9844397  74.1192580  61.6729013  56.7966611  74.3972676  60.8332296
  76.9505702  67.7980993  59.5382337  76.2017363  68.3780947  59.2213066
  77.7291073  68.2451070  59.1420975  56.0771338  86.3213369  52.5470887
  56.0465302  86.5776881  51.6212608  56.3873567  85.3941023  52.4908539
  55.1969064  79.1306926  66.6158017  56.0822841  78.9318309  66.7387659
  54.9124521  78.4529397  65.9766915  59.7034766  77.4459458  56.0593191
  60.3740615  76.7243364  55.9106494  58.8948562  76.9140194  56.0869329
  66.4585815  92.2281383  56.7611772  67.2126874  92.2760550  56.1100042
  66.3542599  93.1626080  57.0086386  62.6065415  78.7422003  69.9392636
  62.1933786  78.5871272  70.8416331  63.1404196  79.5783449  70.1946305
  72.6286238  71.2670997  55.9812897  71.9973217  70.8841877  56.5186015
  72.9601208  70.5297924  55.4062933  65.4698471  68.9019668  46.1931041
  65.6460436  69.3320454  45.2693980  64.6691927  68.3451712  45.8829128
  63.1208110  75.8429194  43.7113091  63.2624797  74.9758802  43.3047574
  62.5183981  76.2072419  43.0076797  55.6642253  85.7274387  68.2904411
  54.8212057  85.2888826  68.1555663  56.2971698  84.9374327  68.2680133
  66.2063557  78.1164504  43.3675596  66.3251023  77.2525221  42.9151919
  67.1104435  78.4764444  43.0667598  67.3230942  77.1490079  55.3267283
  67.0661731  77.2765059  54.3899470  68.0984868  77.7042106  55.3083598
  55.7472678  76.7772933  45.7946783  55.0854189  77.4217287  46.0998282
  55.5396942  76.6130658  44.9052829  62.3199795  65.5209304  50.7396257
  62.7192841  66.3943587  50.5076610  61.5224158  65.8579909  51.2716874
  66.9004182  64.3311997  60.5159083  66.1167347  64.4201747  59.9830179
  67.5099670  64.9787651  60.0862397  59.0826579  71.1379172  52.0966870
  58.9309894  71.6082006  51.2290411  58.5305329  70.3194224  51.9488943
  64.1241015  70.8876485  67.3846366  63.5891372  70.2405521  67.8534820
  64.8472063  71.1341670  67.9172985  54.6598721  67.8244038  61.8024976
  55.4356908  68.1163956  62.3655257  53.9539536  67.9671753  62.5152292
  74.1232589  69.1703598  54.8512063  74.5406581  69.4734312  54.0191121
  74.5871693  69.8394297  55.4825257  61.3468383  77.9126209  53.2084046
  61.2755635  77.0649677  53.7450888  60.4784555  78.2728445  53.3816419
  56.3241702  70.0868561  34.6021649  56.3697428  69.1470139  34.8135029
  56.7203813  70.4860931  35.4602959  63.3085472  64.0288673  48.6143562
  62.7888324  64.5364303  47.8942769  63.0847770  64.6147426  49.3776397
  69.9878272  77.6700174  50.4077106  69.6597657  77.3461561  51.3134807
  70.1721684  76.7145494  50.1035709  61.0630665  74.5864932  58.7663914
  61.8943210  74.9949618  58.4189665  60.8620396  75.2173721  59.4972645
  61.6157015  73.8907040  49.7932541  62.0178508  74.5844099  49.2630930
  60.7031869  73.8660956  49.3668169  71.4928061  68.4600388  49.6383882
  72.0032171  68.1616518  50.4322708  71.4714552  67.6106133  49.1122752
  52.0062078  78.4437622  63.3010424  51.2331982  78.3687352  62.6713088
  51.5675821  78.8234594  64.0932139  63.5725515  62.4324402  57.2120181
  63.4218532  62.1713079  56.2471333  64.5608558  62.3049768  57.2800751
  68.9157858  71.4658247  45.3094555  69.1759881  70.5108633  45.1119918
  67.9954067  71.3758551  45.0037007  51.5493540  71.2912303  50.4622142
  50.8237055  71.3694310  49.7657646  51.6760621  70.3273530  50.3324849
  65.4709822  72.7284058  37.5455147  66.1265736  73.3083216  37.1499011
  64.9291352  73.2678246  38.0929928  71.4231182  73.2153232  53.6822114
  70.7023755  72.7425059  53.1845585  71.7662226  72.5013797  54.2262835
  68.7487599  68.1362043  53.9016381  68.2398057  68.2509571  54.7290416
  69.6739104  68.1305234  54.2258857  65.9559796  57.5860668  63.0332215
  65.5759012  58.0055476  62.2535569  66.9207338  57.8116975  62.8200913
  57.4670370  70.8261248  46.9834240  57.4395451  70.9533502  46.0084433
  57.6610658  71.7794449  47.2413180  69.3532145  77.8649183  60.0158700
  69.4718023  78.5669360  59.3625297  69.6708346  78.2644385  60.8353525
  53.9400380  65.2722925  48.5821278  54.1736279  65.7126497  47.7562957
  54.5151964  65.7788904  49.2010673  63.6726835  71.3137837  56.6294223
  63.9577639  71.3609909  55.6865036  63.9708660  72.1915260  56.9077322
  67.5864279  69.0926822  56.1979123  66.8503940  69.6550741  56.6835026
  67.9912300  68.6968886  57.0146068  57.0495296  79.9195742  45.1311188
  56.2771815  79.4148474  44.6906123  57.7808163  79.3221924  44.8250260
  74.1758612  71.1948936  63.6060819  74.1774481  70.8833226  64.5357036
  74.2027865  70.3048479  63.1512642  57.5686935  72.9220315  70.7196412
  57.5313407  73.9003608  70.8362905  57.0642064  72.6203391  71.5058831
  59.3607808  65.5606345  72.3790752  59.7862095  66.4191756  72.1991359
  59.9382745  64.8636628  72.1015367  65.5507567  83.4782306  70.4473882
  65.7424597  84.4554006  70.6927875  65.0397404  83.6668225  69.6042178
  62.8912226  83.9229300  54.7655917  62.3472282  83.1375040  54.8695130
  62.9620912  83.9524427  53.7730352  65.2211255  90.6879272  61.2797983
  65.9769392  90.4122861  60.6812809  65.0256049  91.5846711  60.9003743
  75.2076139  69.5753004  58.5410930  75.8860095  70.2877985  58.7847273
  74.4250390  70.0631896  58.5920358  69.7602447  66.0070981  41.6485019
  70.6031077  65.7103387  41.2819523  69.9567207  66.9786503  41.8314502
  60.5553159  70.7950395  54.5886582  61.2942976  71.3823127  54.6763424
  60.4305672  70.7111456  53.6401551  51.9493078  70.3532832  46.5439797
  51.3490529  70.0895602  47.3263114  51.2233228  70.4896327  45.8804389
  73.9923679  66.0047021  72.2800091  74.3089936  65.1605388  72.5417880
  74.3129096  66.6446095  72.9165380  68.6616919  73.1404808  47.5822204
  68.6853420  72.5117202  46.8084621  69.5803143  73.2567156  47.8271713
  64.5102249  74.9889118  62.9676506  64.5203275  75.9535972  63.0932286
  64.3164834  74.8734377  62.0278601  63.6653923  83.2645697  52.2047206
  63.7859599  82.3407872  52.4822315  63.4629951  83.1063408  51.2386648
  60.8847283  84.7650425  65.6812930  61.4539086  85.5838080  65.6117815
  60.0691685  85.2152764  65.4292935  44.2793381  84.9024600  42.0342586
  43.7317025  84.9284099  42.8908489  44.4579938  83.9332943  42.1037714
  53.9768070  71.2201317  58.6521210  53.3199411  70.5793998  59.1005057
  54.6918029  70.5036930  58.5328571  60.0982928  66.4626496  52.0465573
  59.6376572  67.3127822  51.8970850  59.2992668  65.9569707  52.3659406
  61.3729281  71.0719247  47.1021490  61.5645554  71.0247666  46.1515410
  61.0506549  72.0176255  47.1933926  60.7333933  86.8101006  59.1926938
  59.7962373  86.9951408  58.8835268  61.1517447  87.6252006  58.7441070
  61.3395284  69.8512514  57.0061589  62.1289177  70.4064712  57.0313059
  60.8841647  70.0181647  56.2151363  49.3469614  81.2749982  46.3978321
  49.9185979  81.6791054  45.7031094  48.8813313  80.5895784  45.8335101
  71.5079668  76.8120940  45.5865371  71.3615614  77.3113221  44.7313974
  72.5234378  76.8722900  45.5602893  72.0018708  77.4136048  58.0256264
  71.1430368  77.7322323  57.6138171  72.5777864  78.1860995  57.8640651
  54.7974201  65.7707013  58.6644716  54.2773519  65.0820959  59.1490117
  55.6606325  65.6206793  59.1255497  71.7351920  74.8469023  31.4014946
  70.8394861  74.9008849  31.1148697  72.1269776  74.2350434  30.7784474
  67.0520590  83.7047149  55.4829404  67.9224319  83.8149327  56.0213526
  66.9237880  82.7519230  55.6040761  58.0805220  71.9097673  54.7868441
  58.8898751  71.3629400  54.5435454  58.1303479  71.8695056  55.7273886
  60.4778294  65.0508944  55.6624955  60.8050781  64.9289881  56.6016808
  59.6378330  65.4936009  55.8254076  61.8191022  72.0790549  51.8699745
  60.9596835  71.6586815  51.7540059  61.9034471  72.6559634  51.0801299
  49.0765472  73.6251809  59.3741838  49.4498780  74.5742111  59.2982227
  49.9649870  73.1839927  59.4238959  68.2809894  63.0228520  62.8516141
  68.8884921  63.7342104  63.1459730  67.6034917  63.5816015  62.4266899
  66.3233189  68.7058225  50.8016855  66.9586038  68.4239933  51.4506250
  65.6013433  69.1159140  51.3622339  67.1624973  81.4359702  58.6954183
  66.5218500  80.6918211  58.6506853  66.6470094  82.1802538  58.4640780
  53.3741894  89.6743695  41.0759717  52.4671490  89.6341308  41.4311441
  53.2304726  89.6632306  40.0774463  51.4046340  89.6938136  45.3018227
  51.7531804  89.9142177  46.1662524  51.8056962  90.3721485  44.7238108
  65.7138445  84.3433194  41.3142283  66.6701376  84.3589778  41.2691003
  65.4605332  85.0586715  40.6949621  66.9209542  77.1329332  59.9921649
  67.8517440  77.3433929  59.8296779  66.7371443  77.8279676  60.7146139
  61.1004170  79.8723791  56.4490200  60.6230958  79.1335607  56.1144785
  61.3269549  79.5671098  57.3341741  68.0921870  68.9837680  60.5967305
  68.3179791  68.5036375  61.4225776  68.6120853  69.8216385  60.7739877
  61.1276353  75.7003141  54.5022813  60.4561675  75.0247641  54.2689984
  61.8893765  75.1010767  54.6394379  70.9876736  70.0068832  58.2665752
  71.8932779  70.3035768  58.4520662  70.5186492  70.8395816  58.2952944
  77.1463981  77.8829731  59.4961566  76.4500916  78.3794565  59.9600275
  76.6689032  77.5246774  58.7739930  77.4649432  81.2381531  58.8285858
  76.9747976  81.8872225  58.2365235  76.7536156  80.5674199  58.8796010
  61.0813725  74.9631306  41.3909153  60.9350243  74.0593353  40.9454035
  60.6912842  75.5876610  40.7556281  79.6755921  72.4034691  62.1962071
  79.0849059  72.9655303  62.7491831  79.7312265  71.6283556  62.8140593
  62.9792288  78.1231988  50.6881276  63.8272141  77.6768039  50.8420554
  62.5161691  77.9268359  51.5175496  74.6473292  65.0467125  47.3284697
  73.9340635  65.6797386  47.0656905  74.2913499  64.2676556  46.9104408
  49.9810392  81.0575043  50.6732218  50.2918220  80.4212228  50.0577311
  50.0839238  81.9254140  50.1922867  58.4762767  87.3420720  57.8228614
  58.6190399  87.4172203  56.8311797  57.5979930  86.8689335  57.8694140
  75.5302903  70.3024656  52.9500561  76.3435432  69.9743875  52.5118480
  75.8415481  71.1978060  53.1466668  60.3329002  69.0832878  41.8461950
  60.0913256  69.9743898  42.1842800  59.5050866  68.6352446  41.7546768
  62.9193919  78.2291619  45.4896421  63.6386864  77.6425082  45.8304112
  62.7701937  77.7937494  44.6071002  54.6250780  82.2716434  56.2359454
  54.1659783  81.7412707  55.5795350  55.3236526  81.6034251  56.4660193
  71.1441537  73.9573039  47.7001772  71.2681711  74.3353837  46.8391183
  71.5723194  73.1193994  47.6512817  66.0854038  78.6235873  46.1687626
  66.2627789  78.4285785  45.1940275  65.7479585  77.7216677  46.4208667
  51.9458312  75.4524021  50.1927880  52.5214502  75.1998554  50.8980825
  51.1414859  75.7871980  50.6465253  57.7878807  88.8452197  61.7811298
  58.0208945  88.8826931  60.8428098  57.7591600  89.7569735  62.0375913
  43.5610713  86.0154158  64.2206318  44.4597701  86.3630753  64.1534788
  43.7029700  85.3035364  64.8733730  61.4456178  71.6422974  37.9051931
  61.8027530  70.7331633  38.1332666  60.9985503  71.4374466  37.0519068
  71.4666994  62.0332415  60.6829355  71.8713970  61.9045698  61.5781066
  71.6993243  62.9474589  60.5377761  72.6099612  74.1295056  51.4423146
  72.7704038  73.2558509  50.9866378  72.2520549  73.6657790  52.2833096
  54.7208950  83.5062487  63.5971719  55.4408325  84.1190195  63.8514035
  54.0635512  83.7087825  64.2850654  44.9962053  79.4190845  58.0236674
  45.2854199  78.6454228  57.4188149  45.4732967  79.0632052  58.8367102
  67.9704679  62.9285950  48.2131890  68.2871245  62.1832722  48.7302138
  67.6980859  63.5076682  48.9681027  84.7139713  76.3384361  35.4120790
  84.7588349  77.2674116  35.0516640  83.7418260  76.3079634  35.5180509
  53.4579342  76.2769999  47.9235748  52.8910529  75.8543552  48.5781905
  53.3267753  75.6691825  47.1148163  21.9735382  -9.8415070  46.1326200
  21.7074798 -10.0237866  45.1739643  21.6080360 -10.6205289  46.5561410
  26.8417630  -1.3677733  44.7824066  27.2610092  -0.5847532  45.1131841
  25.9739610  -1.3429407  45.2891794  30.4590932   3.6997277  37.5895997
  30.2215972   3.4825118  38.5590848  30.3086997   4.6297278  37.6168111
  24.5274389   5.9363955  51.8894348  23.8237988   6.4434468  52.2654577
  24.5330446   5.0959679  52.4324389  25.8647166  -0.8516580  42.3073976
  26.3375838  -1.1600895  43.1183906  25.0496874  -0.5233111  42.7157746
  33.0450147  -0.3681325  29.5167923  32.5042673  -1.1905739  29.6812190
  32.3388989   0.2959097  29.3627673  18.7419060   2.6063775  32.4783757
  19.1781347   3.4645954  32.2428481  18.4276406   2.2938739  31.6518702
  31.6427906   2.0206983  63.0789699  32.4978694   1.7042680  63.4996401
  32.0252955   2.6385529  62.4154997  25.1562571   3.0215445  39.0612495
  24.2071563   3.3167420  39.0266552  25.2290133   2.8485995  40.0443740
  36.3652851  -4.4064484  37.4696474  36.8209115  -4.4856888  36.6011396
  35.7167970  -3.7115352  37.2667339  36.7339863   3.9207709  38.6455877
  36.6673316   4.6261028  38.0250129  36.9728521   4.4050356  39.4558769
  15.0275933  -2.1020578  34.5291608  14.6372348  -1.7541156  33.6599855
  15.8678257  -1.6362127  34.4915183  27.9270792  -2.6513029  53.1214908
  27.6333430  -2.3258367  52.2387592  27.0992835  -2.8435178  53.5649367
  26.9309197   7.9909365  45.0105988  27.3709301   7.1677944  45.2308304
  27.3298936   8.6182245  45.6544549  30.4463991   7.9303804  35.8530639
  29.4870190   7.9227851  35.5122003  30.8207571   7.3596331  35.1041777
  21.6841810 -10.0364686  55.3267094  21.2898679 -10.4332159  54.4653251
  22.1849243  -9.2886837  54.9127655  30.2162683  -5.6442548  38.7027509
  30.3461882  -5.5450487  37.7021707  30.2789679  -6.6135633  38.7141730
  21.5920005   4.4513613  53.8954181  21.4824148   4.9194343  53.0484068
  22.5316087   4.1633625  53.8374665  21.6069702   0.0431626  54.9979842
  20.9966463  -0.7438602  55.1433133  22.4429413  -0.3671033  54.7674358
  10.3385447  -0.6448358  46.1970392  10.8744878  -1.4516449  46.1679688
   9.8951392  -0.7023950  45.2876271  19.8556544   1.7534257  39.4389565
  19.4801404   0.8242819  39.6522162  20.2133650   1.5575992  38.5514645
  35.7405280   1.0733248  40.4941872  35.9091019   0.9704691  39.5260128
  34.8131010   1.4003759  40.4325771  20.6028536  -3.8232141  42.5100612
  21.1962873  -3.8858701  41.7632143  19.7360951  -3.9702719  42.1231574
  18.6364992   4.7437222  38.1372737  18.1959786   4.2982022  38.8914388
  17.9303823   5.3187740  37.8283852  31.5364876   0.6336729  50.5186035
  32.2275418  -0.0870482  50.5375752  31.9632366   1.3510983  50.1435901
  29.6578814  -5.6543521  46.8309100  29.7193786  -4.8992568  47.4761198
  29.3006232  -5.0825662  46.0581243  55.5483906  -5.4367155  40.0554948
  55.7673759  -4.8898700  40.8620400  56.4037301  -5.5755435  39.6724794
  24.4213264  -1.2885417  45.9255325  23.6513140  -1.9497705  45.9665717
  23.9988149  -0.5779915  46.4343646  25.5166276  -3.6499031  36.9019988
  25.8285568  -3.3914435  37.8232907  25.8540812  -2.8455032  36.4418551
  21.2611801  -3.3058114  49.3326513  21.0631403  -3.8522268  48.5524184
  20.7175229  -3.7314283  49.9903500  31.4638967  -7.5666521  47.0761616
  30.7954510  -8.1170486  47.5195213  30.9167100  -6.7265466  46.9767665
  33.7415393   2.3336598  36.9429454  33.3975572   2.8383656  37.6181656
  33.2964405   1.4879247  37.0372724  33.3911265  -6.0903447  39.0217125
  34.2383164  -6.3644230  38.6263591  32.8795978  -5.7712541  38.2266748
  34.9390638  -4.8245914  32.6444173  34.1668879  -4.2623227  32.4593805
  34.8947708  -5.3819703  31.8107189  18.6879403   4.6714504  29.2676564
  19.4683314   4.9317448  29.8171257  19.1486018   3.9781171  28.6951294
  41.6563912   3.9398265  24.9514171  42.4370161   4.0734839  25.5541664
  41.0121400   4.4912031  25.4546792  32.4343927  -8.3949378  34.9504974
  31.8305023  -7.7404119  35.3277905  33.0988131  -7.7748191  34.5501334
  35.0507490  -2.4667794  29.8801058  34.7230938  -2.0907396  30.7389693
  34.2406073  -2.6593802  29.4324815  21.6700492  -1.2343703  36.6310113
  21.4244272  -2.1506627  36.6736170  22.5314582  -1.2068986  37.1347554
  46.3869457  -4.9700162  43.5846315  46.7918536  -4.1228868  43.2603203
  45.5280375  -4.6672534  43.8506297  16.8002402   0.7171965  37.0553969
  17.1285064   1.1944506  36.2706654  17.5641697   0.1286300  37.2276023
  34.8692231  -8.3019784  32.0840195  35.8125564  -8.2481107  31.9552415
  34.5223132  -7.5298819  31.5776196  25.4930754  -9.6659461  52.6362934
  24.9290017 -10.3937696  52.8081244  26.3549855 -10.0981726  52.3806823
  34.5686800 -10.1232234  44.6244221  34.1781113  -9.7952682  45.4679458
  33.7399748 -10.3843691  44.1330482  37.3425323  -5.8633668  26.8486142
  36.7977835  -6.0309440  26.0689129  38.1113135  -6.4549468  26.7135929
  35.9490928   4.7497242  45.8279385  36.5170209   3.9926156  45.9850695
  35.6468656   4.9050523  46.8000993  31.4359672  -2.8918318  43.8893029
  31.2213827  -2.4644697  44.7236536  32.1534591  -2.2651395  43.6165051
  35.4161411  -6.8118624  43.0075622  34.8058735  -6.1576017  43.3961029
  35.9701778  -7.0071121  43.7460280  19.8664710   0.4762385  33.9649087
  19.7784725   1.2356398  33.4156337  18.9438544   0.1051801  33.9975101
  25.8150495  -9.4085040  49.6955074  26.4691409  -9.6167855  50.3867562
  25.4983914  -8.5141197  50.0191046  28.1730818   1.3868837  36.6761126
  28.0924117   1.2611332  37.6684222  28.0153877   2.3131627  36.5801827
  29.4631693   2.8270021  47.9517955  29.4502895   2.2774749  47.1712710
  30.3766721   3.1662638  47.9593409  21.5698603  -7.3434411  47.7903153
  21.7156269  -8.1327865  47.2261738  22.4718971  -7.0153050  47.8850291
  31.2990302  -3.2211824  35.1323375  31.9417313  -3.1708383  34.3424864
  30.9704221  -2.3646438  35.1393406  31.3156058   3.9837369  42.6354006
  31.6767003   4.8406629  43.0194272  31.4679272   3.3845327  43.4093502
  30.3750037  -1.3277690  46.0243395  30.5827889  -0.9645202  46.9273158
  29.9498171  -0.5463461  45.6378780  24.7200539  -8.5675638  45.0105529
  23.9252185  -9.1526836  44.9831819  24.3630809  -7.7175179  44.8758341
  26.0104742  -0.1691426  38.3900721  26.3023791   0.7567965  38.6517977
  26.8762281  -0.6049924  38.3820366  31.0843534   7.4517118  29.5680936
  32.0703959   7.1771184  29.5333944  31.3497507   8.4104302  29.6198151
  29.9076619  -7.2491182  27.0096020  30.1117977  -7.7908877  26.1788118
  30.6906128  -6.6428058  27.0497744  26.5912019  -1.5297322  35.6359403
  26.4726322  -0.6318396  35.9606915  27.3292237  -1.8673658  36.1815228
  21.8357894  -3.6639241  53.1662574  21.5839190  -2.8722837  52.6305030
  21.2570008  -3.4835938  53.9594946  35.2371452 -13.3838149  45.5892746
  35.2496958 -13.2534146  44.6068612  35.9535243 -12.7402647  45.7986389
  35.2261472  -0.5470394  28.0235978  34.4151828  -0.2621794  28.5312039
  35.4001533  -1.3710372  28.5590630  41.7226149  -2.7736171  43.0316071
  41.4672588  -1.9522575  42.5986153  41.7369267  -3.3822337  42.2517543
  27.7933928   5.0821106  33.2433410  28.1675199   4.2184145  33.0534137
  26.8493624   4.8648665  33.4825450  29.8184617   2.8879877  34.9448296
  29.3176955   2.0969920  35.3204494  29.8297764   3.5075573  35.7004474
  33.2366882 -10.9841697  49.7708021  32.6522880 -10.8812748  48.9631576
  33.7266196 -11.7927459  49.5664303  29.9078201  -3.7313796  49.3415692
  30.0902884  -2.7843012  49.1611476  30.6754213  -3.9802054  49.9122652
  17.5811478   2.4588484  34.9840997  16.9294199   3.1922418  34.7810159
  17.7820880   2.2814021  34.0573193  41.0222657  -7.2605036  30.9860891
  41.7315103  -7.9658717  30.7958823  40.8910062  -6.9646941  30.0690938
  21.4678523   4.2618962  38.9470068  20.5872104   4.4765931  38.5015239
  21.2929768   4.5596562  39.8764134  30.8567493  -3.8343732  40.6035654
  31.0252360  -4.7248826  41.0013933  30.6473768  -4.1947746  39.6749770
  25.0926162   0.0173251  49.0583985  24.7922477   0.2082191  49.9839534
  24.7712221  -0.8782238  49.0064640  32.1117479   1.0265478  44.1844522
  32.6051208   1.5503801  44.8251293  32.6530716   0.2618661  44.0103663
  31.6122984  -1.1314649  32.5419189  30.9413492  -1.1111380  31.8017681
  31.5406577  -0.2107739  32.8238991  29.4429619  14.8726738  52.8501768
  28.6282698  14.5150148  53.2533829  29.8395916  14.1280762  52.4633575
  22.2394981  -0.5209644  33.7550129  22.2910992  -0.7862267  34.7290010
  21.4153861  -0.0511832  33.8034128   2.2212634   2.5245109  29.7661728
   3.0940794   2.4505037  29.4621769   2.0205393   3.4497575  29.7518070
  31.3185365   5.9837183  52.6948505  32.2762064   5.7817439  52.8505009
  31.1724120   5.4692210  51.8560182  28.1499963   1.1269503  39.6550070
  28.6343157   0.3624731  40.0306942  27.7037268   1.4521744  40.3994793
  20.4081776   4.6896148  31.6346155  21.1933185   5.3462545  31.6159264
  20.9802076   3.8913762  31.5904532  28.2444801   3.7801403  45.0370222
  29.2202670   3.6546990  45.0655148  28.1525352   4.5884857  45.6244122
  29.0041601  -3.5371939  42.6663634  29.6832574  -3.5096225  43.3526439
  29.6096573  -3.5247911  41.8476387  24.7155350  10.3966241  42.1073943
  25.1273745  10.5988675  42.9146002  24.9797527   9.5199931  41.8636482
  25.4415909  11.9030325  44.1747527  24.5979844  12.4263609  44.1562704
  25.7595207  12.1581255  45.0630887  26.3349196  -5.0245539  45.5827002
  27.1367402  -4.4326253  45.5803444  26.7349522  -5.8465545  45.9498220
  31.6447163 -12.2253514  22.4551757  32.3573952 -12.1330744  23.1291005
  30.8590746 -11.9934185  22.8859600  25.6057553   3.5993311  44.7147347
  26.5903396   3.8523562  44.7150946  25.6299585   3.0642893  45.5324389
  20.0962226  -0.7483426  48.0525522  20.5169921  -1.3626036  48.6713806
  19.9852926   0.0193799  48.7103997   5.8984873   1.9613184  36.6133139
   5.1902556   2.5249602  36.3629903   6.6991868   2.3980560  36.2408710
  21.7123167  -0.4150376  40.8512858  21.0375264  -0.9499601  40.3957057
  22.4554859  -0.4384915  40.1714201  33.7282197   4.3956459  32.6547913
  34.2931215   4.1034145  31.9099180  32.8971772   4.6477632  32.1290089
  40.6731172   2.5445038  50.5366547  41.2668638   3.0682787  51.1208957
  40.1944339   3.2295681  50.0585954  30.3452330   0.0270843  60.4074810
  29.5411006   0.1023698  61.0097283  30.5170966   0.9870967  60.3115749
  17.3444790   4.6887329  25.4546384  17.5990405   3.7403499  25.6466734
  17.5172227   4.6912803  24.4765583  33.4926554   3.6569187  44.8634576
  33.7762971   2.9292181  45.5252657  34.2930777   4.2440208  45.0183317
  52.9673655   7.7711574  43.9836891  53.2157544   8.5951998  43.5807717
  52.4173453   7.3361985  43.2965425  36.4162713   2.7216675  33.7529642
  35.6254794   2.3370106  33.3214832  36.0307419   3.1091067  34.5370385
  28.6337726   6.5675069  42.0153083  28.4099080   5.6511181  41.8267806
  27.7070259   6.9393344  42.0850009  26.1206945   0.6181188  26.4602943
  25.3913724   0.1951992  27.0396596  26.7287447  -0.1172732  26.4972894
  20.3501667   1.1334239  36.8635377  20.2161543   1.2068860  35.9312741
  20.7932621   0.2213301  36.8607382  17.2575900  -7.3510286  29.0243161
  18.1277060  -7.4931075  29.3833135  16.7771350  -6.9919891  29.8401285
  21.4706042  -8.8496709  42.0948747  20.7220647  -9.4903920  41.8571675
  21.0935759  -8.4976042  42.9283350  29.5505129   6.4890235  38.2118718
  30.1637910   6.6420161  38.9471287  29.8636324   7.2636892  37.6231703
  41.6567438   8.0083718  39.1918017  42.0595253   7.4117911  39.8860653
  41.8679824   8.8810674  39.6608447  25.7826674   5.0492327  58.6553497
  25.8952951   4.6574150  57.7461405  24.9061424   4.6630763  58.8715069
  17.8900924  17.9172226  55.3349585  17.5328579  17.0452049  55.6556798
  17.4133064  18.0001259  54.4929621  24.0268092   5.6589064  46.4457591
  24.9032223   5.7872466  46.8170755  24.0060134   6.3931839  45.7921522
  28.0186458   2.8080716  52.1213544  28.0086221   3.7603777  51.8386136
  27.0631321   2.5277823  51.8785683  -1.4200639   0.4196138  42.4993491
  -1.9457497   1.2086157  42.6745722  -1.8582946   0.0690276  41.6812449
  27.3801971  -5.1814530  26.1502536  27.7829087  -4.4011322  25.6296650
  28.1546146  -5.3352821  26.7329768  34.3015986 -12.3926080  34.4099556
  33.3916392 -12.0365856  34.2110705  34.1651313 -13.2758333  33.9252664
  26.0232110   1.9290432  41.6476099  25.8729855   0.9756482  41.5722482
  25.3504548   2.0909230  42.4079540  30.9821340  -1.2507027  39.4613825
  31.2821271  -2.1319374  39.8383570  30.3073398  -1.0266482  40.1555192
  15.5191228  -3.8324317  39.7672301  15.2133010  -4.2138970  40.5798463
  16.5280367  -3.8446813  39.9212780  31.8046523   7.9200282  44.3974719
  32.3403368   7.4731852  43.7102615  32.1125525   7.4204658  45.1950681
  17.4556779   4.2658807  42.9836709  17.8998105   5.1485134  42.7860570
  17.4726070   3.8963152  42.0850631  22.1506898  17.4921033  35.2837029
  22.8393166  18.1443216  35.2566581  22.0480879  17.3600555  36.2484023
  52.6472017   2.8145970  36.4358360  53.3105923   2.7134524  35.6221599
  52.6700244   3.7874896  36.4716188  34.4796450  12.4132535  41.1730623
  33.9086984  11.5538375  41.2052560  35.3114580  12.0877471  41.4964710
  27.1129613   6.5660519  36.8523058  26.7706184   7.1507045  37.5442057
  27.8038523   6.1067419  37.4628951  32.2951108  12.3505747  52.8378234
  32.7688605  13.1710026  52.4946321  32.5073659  12.4005498  53.7826940
  25.3127016  14.8559631  50.7541166  24.4708310  14.3706311  50.9610101
  24.8585909  15.7180970  50.5690716  39.8511439  14.9047177  37.2420181
  39.7277067  14.1949623  37.8729481  39.2955937  14.6288906  36.4728316
  30.4273239  29.3728121  38.8859291  29.5012548  29.6409865  39.0447447
  30.2944611  28.4109190  38.7763523  21.1436204   9.5391786  51.7878298
  21.2758253  10.0183876  52.6158444  21.0535969  10.3112045  51.1883685
  28.4058180  18.2937372  41.7799096  28.2625076  17.4656203  42.3359142
  28.7504577  18.9055701  42.4757812  25.2959582  15.1957788  35.3259650
  25.3858623  15.9346204  35.9608125  26.2269663  15.1001093  35.0374582
  42.5807248  10.8714097  33.8650714  41.7188284  10.6599385  33.4392409
  42.3775195  11.7139127  34.3239031  36.8653099  25.0458672  27.0458006
  37.2369916  24.6489678  26.2318075  37.4830058  24.5817183  27.6928925
  40.7323348  15.9055028  33.0937960  40.3584841  16.7215967  33.4869901
  41.6216647  16.2108260  32.8009800  34.1453995  20.2191439  33.6213769
  34.6067791  20.6581298  32.8927994  34.2215980  19.2974095  33.4173778
  21.3748019   5.5613869  51.2130080  21.6944159   5.7207911  50.2894690
  20.6904120   6.2303399  51.2384238  48.3370979  -1.9907854  52.3507771
  48.0421957  -1.0593633  52.4962638  47.4899270  -2.4529269  52.4078537
  54.0871504   5.3529756  25.9688626  53.4744460   5.6470878  26.6590892
  53.6993834   4.4906045  25.7124982  39.9319367  15.2855439  42.8355907
  39.1879182  15.4439804  43.4499879  39.6324880  15.8835809  42.1465326
  29.3184931  10.3105174  36.8233160  29.8244814   9.5653032  36.4112836
  29.6247256  10.2147550  37.7272977  40.8558260   8.2218933  42.4259268
  40.3913115   8.8420101  41.8259187  41.7009425   8.7049991  42.5656435
  25.7808332   8.0788997  38.6111365  25.1774266   8.4677841  37.9777832
  25.1658419   7.4826853  39.1385746  13.5670571   8.6852805  42.2033662
  13.5776473   9.6390239  42.4744594  13.3254563   8.2415128  43.0393817
  31.2761666  19.0732230  36.9245953  30.5329421  19.1626804  37.4957777
  32.0342370  18.9031409  37.5058206  30.4970313  21.4973725  56.6026081
  30.0626751  22.2372980  57.0373900  30.3522384  21.7666508  55.6420853
  38.2771724   6.5168058  45.2244734  37.4929146   6.0791520  45.5576759
  38.9818414   5.9146916  45.4721922  35.3980129   7.2658397  31.7988526
  35.8757632   6.4606113  31.5627414  34.8586107   7.3692085  31.0029779
  32.3899644  19.5391478  43.0359320  32.2991513  18.5753363  42.8791569
  33.0280485  19.7256925  42.3300426  38.5950959  23.4897570  44.2780856
  39.0359749  23.3340248  45.1377901  37.6647720  23.4061780  44.5626366
  33.2290847   5.9260428  42.3574859  34.1153395   5.8589450  42.8277748
  33.4630081   5.3496854  41.5625022  42.3510753  15.2536012  40.6707016
  41.6229337  15.6143938  41.2261036  41.9076586  14.5335472  40.2501785
  38.8694437  12.9171089  49.4949084  38.3508814  13.5158880  48.9956848
  39.0352733  13.4100470  50.3431076  37.1773490  13.0557568  45.9752149
  36.9054865  12.1204161  46.1996668  38.1156866  12.8973950  45.7124298
  21.2592658  11.3680431  58.4700853  21.1321786  11.9790358  57.6991457
  20.5435262  11.7759141  59.0679862  30.2779972  16.1907404  33.6561215
  31.1836408  16.4408244  33.9411267  30.3760068  15.2209092  33.6925695
  20.7409972   7.5095372  39.0038895  21.0686945   7.4114708  38.1042962
  19.9132971   8.0239486  38.8920509  28.8398086  15.8289318  46.6739820
  29.7789767  16.0324339  46.6833851  28.9296134  14.8645106  46.3407028
  26.0784501   1.7853550  47.1582682  25.7674986   1.1396351  47.7756049
  26.9096052   1.4127921  46.8178872  27.3510721  12.3795462  40.2186724
  26.5821573  12.2383887  40.8165775  27.5157976  11.4285467  39.9724098
  22.9723310  13.4165950  36.5950709  22.2828901  13.5716946  37.2785532
  22.6640807  14.0875321  35.9522001  34.4913196  30.8120530  38.6632026
  35.3269562  30.8012565  38.1612509  33.8522268  30.5585049  37.8940780
  19.8396867  -2.9782067  54.7614071  19.1830025  -2.5497123  54.1789744
  19.6136696  -2.4683591  55.6068285  28.7575283  10.5955334  29.5698956
  28.2024161  10.1115243  30.2332006  28.4104057  11.5130096  29.7286309
  32.0544153   0.3580428  56.9100667  31.1291584   0.3879962  57.2102490
  31.9438915   0.4017345  55.9073770  20.8571415   9.9089898  30.9145143
  20.6253343  10.8682270  30.7482725  19.8900414   9.6231819  31.0652093
  15.5769507  26.8171925  41.1280984  14.8540889  27.3589039  40.8350148
  15.8319300  27.3615181  41.8982211  36.9370373   7.6525129  54.0686511
  36.9094504   7.0252041  54.8408662  37.6620856   7.2030981  53.5328537
  24.0401883   3.1519896  49.0049817  23.9105016   3.1353662  48.0635620
  23.1204318   2.9709820  49.3430076  32.4046844  17.1212472  51.2263536
  31.8999690  17.1190736  50.3642347  33.1307397  17.7632825  51.0426026
  28.0391468   7.4890167  34.5258210  27.5011175   7.1903431  35.3684005
  27.8738902   6.6763430  34.0049775  19.5284980  11.2417999  38.4912183
  19.8377035  11.9273439  39.1053119  18.7551060  10.8778302  38.9839680
  35.2203429   8.8585790  43.3579894  34.9087240   9.7397410  43.7052754
  36.1242661   8.9469741  43.4868679  29.4820226   8.9041908  43.2208885
  29.2917246   7.9736199  42.9644358  30.3603026   8.7398291  43.6408613
  43.6893983   7.1662542  33.2985610  42.9071569   7.4283667  32.7501373
  44.2019315   8.0000368  33.1169188  30.1995747  -1.0539745  48.7183118
  29.2061595  -0.9493837  48.8002159  30.4985537  -0.5727290  49.5428401
  46.2643872  15.2975726  36.2904565  46.5361957  15.5335105  35.3677493
  45.2799771  15.3034397  36.1562279  41.3146158  12.6212365  38.6444172
  40.5474504  12.8889574  39.1778169  40.8355574  12.2948226  37.8339524
  40.9684938  13.1420652  30.0734447  41.8288825  12.6165957  30.0018732
  40.4974138  12.7918704  29.2993334  34.3269004  17.4366000  32.8734258
  33.5632337  17.4145648  33.4992739  34.0825463  16.6843043  32.2701949
  16.2355824  11.6051506  39.6801170  15.7362431  10.7943547  39.8328642
  16.4783742  11.4179518  38.7318645  46.5861630  15.5631700  29.6420777
  46.5505492  15.5741430  28.6664539  47.1772822  14.7556867  29.7358590
  22.0379949   4.4111499  43.2875150  22.7036301   4.0987846  42.6475467
  21.7515879   5.2091255  42.8029200  31.5834634  -6.3015721  42.0351390
  31.6695973  -7.0427235  41.4073032  30.8880336  -6.6699919  42.6204553
  22.0671012  14.9862533  27.4315025  22.6287143  15.8032442  27.5782662
  21.6709550  14.9184865  28.3301450  43.3218708  16.9354145  29.7535717
  42.4157440  16.8033494  29.3994208  43.8658988  16.3979579  29.1304468
  37.2798936  11.3863922  42.1927385  37.8910132  11.0790978  41.4749098
  37.5642473  10.8104017  42.9348680  21.2604918  21.5087973  33.0143716
  20.8072506  22.0961575  32.4212574  20.7262919  21.6682628  33.8353229
  40.0753888  16.7501209  40.4204859  40.0360670  17.6931552  40.1948223
  39.5169396  16.3338076  39.7462487  53.7378515   0.3637078  36.9395624
  53.2785842  -0.0697495  37.7060812  53.2289798   1.1734373  36.8535352
  29.6661192   1.1673407  43.0908031  30.6037049   0.9008581  43.3399439
  29.8366954   2.0270022  42.6663750  19.3923147  16.7978398  42.0443121
  20.1190431  16.6740655  41.4683953  19.8624356  16.6879083  42.9386362
  27.6768105   4.0259537  41.8882726  26.8259705   4.4513427  42.1425078
  27.3634836   3.1202356  41.7690531  42.3941701  19.3146372  32.1919770
  41.5294672  19.4135308  32.6429572  42.1537459  18.7403792  31.3984006
  38.4507406   8.7273828  31.6531991  38.3948630   7.7667463  31.7812500
  38.7559567   8.7680228  30.7138867  32.2835604   8.1424383  38.5246586
  31.8824612   7.6494007  39.2578198  32.3550851   9.0447052  38.9964084
  32.7512597  17.3966012  54.0760122  32.4510972  17.4397333  53.1571207
  33.6815515  17.0463673  53.8740076  32.8300168   4.7870543  35.7233081
  33.4635323   4.8084732  36.4706131  32.0756250   4.3425879  36.1462077
  28.3104122  15.8384835  43.5000190  28.7704902  15.0897900  43.1146905
  28.4968275  15.6559837  44.4592500  42.7782867   9.5567110  43.2300681
  43.5953077   9.0789038  43.3414190  43.0577555  10.4018610  42.8714432
  35.7388363  13.1238269  34.3164301  35.5153462  13.2058677  33.3332138
  34.8912282  12.7584959  34.6424106  21.4871691   3.0436118  49.6652902
  21.5023843   3.5367347  50.5030066  20.7107091   2.4684165  49.8214075
  22.2846143  10.7619863  63.6527820  21.7817538  11.0194270  62.8961806
  22.3817298   9.7830004  63.4959200  27.9938503   9.5489506  47.1750794
  27.7428781  10.3938402  46.9163570  28.8661891   9.4327099  46.7072616
  40.4111911  17.4348177  47.2831096  39.4434167  17.3339053  47.4632442
  40.5280141  16.5252498  46.8734636  31.8145178  14.1704470  48.7811313
  32.6280414  13.6600113  48.7310808  31.3505398  13.6270975  49.4690969
  34.7001584  21.2274330  38.6056631  34.6949634  22.1395140  38.3286019
  34.6700364  20.8263150  37.7062670  39.0569605  28.9541387  27.2178782
  38.2137509  28.6209909  26.7053200  38.8610039  28.5115622  28.0654263
  31.9179531  16.0167327  45.1507443  32.2122093  16.4977918  45.9425499
  32.7268170  15.5907259  44.7949071  27.0478149  17.8535684  46.1706417
  27.9510059  17.6400259  46.0025853  26.7498643  17.9382665  45.1871262
  35.2617032   9.1715485  35.4739418  34.4170670   9.4245599  35.9259373
  35.0368646   9.3427190  34.5440594  32.9357129  12.5189286  38.5543286
  33.8334533  12.9175912  38.5393293  32.4430166  13.0569285  37.8845187
  26.3349216  18.2767976  48.5642828  26.4636719  17.9057230  47.6863911
  26.2362706  19.1793684  48.3632489  31.8621626  19.7149422  46.1472739
  30.9082337  20.0069828  46.1627759  31.9867188  19.6510407  45.1846475
  37.2370621  18.1877819  32.7038063  37.5323726  17.5170204  32.0710158
  36.3563999  17.7855447  32.9771465  15.8550310   5.4711880  54.9177696
  15.8192703   4.5522712  55.0648262  15.2600911   5.5653202  54.1628478
  26.7953216  12.1802643  46.4807781  26.4233809  12.4875364  47.3615427
  27.6441623  12.6032072  46.4781280  35.5193076  16.6712537  46.1455297
  34.8260360  16.8537705  46.7720745  35.4093280  17.2110153  45.3597141
  38.6083085  10.3563110  39.9462345  39.2326346  10.1667982  39.2276073
  37.9281908   9.6630385  39.7690256  42.9054129  -0.7880314  33.6365966
  42.0000770  -0.6767996  33.3137554  43.0585739   0.0852935  34.0596690
  33.6566350  11.7464031  49.8558293  33.4748244  12.0292265  50.6831959
  34.6294776  11.7393869  49.7606212  32.2476971  12.5023956  45.8170000
  32.5444689  11.6717900  46.2555963  32.9646116  13.1208338  46.1793482
  23.6206562  16.2419759  45.1975561  24.4984640  16.1162725  44.6631855
  23.8082632  17.1386103  45.5089595  39.9706512   9.6346041  33.4456493
  39.1256195   9.9382068  33.7626711  39.6791522   9.0986650  32.6663207
  34.7912994  17.2421035  40.2656535  35.4575061  16.5219452  40.4272926
  34.7625926  17.1959159  39.2802017  32.8403708  10.3983496  40.0866793
  32.9395850  11.2138629  39.5373407  31.8129022  10.4565068  40.1589004
  33.0579159  10.2865272  47.4747894  32.9362715  10.6061676  48.4308862
  33.9834996   9.9544788  47.5042676  35.9421372  27.1355026  38.0087034
  35.2420762  27.2304952  37.4231207  35.4113203  26.7598874  38.7834090
  40.6419940  18.3964998  66.0045851  40.2292666  17.7095935  66.5851002
  41.0994102  17.8794029  65.3433328  32.7320418   6.5967044  46.5394384
  32.7074320   7.1403622  47.3346681  33.5697849   6.0839737  46.6480349
  34.6865517  23.9992024  38.1370887  34.6535269  24.6731217  38.8537738
  34.3217226  24.5297970  37.3600146  18.7850056  -9.8349156  42.1406307
  18.5653100  -9.5803667  41.2270754  18.4668691  -9.0747159  42.6675665
  37.6628328  -3.1876236  52.4193698  38.4803985  -3.5048983  51.9918391
  36.9892545  -3.4234251  51.7529094  24.0057417   0.1004513  51.8339020
  24.2503424   0.0315846  52.8136361  23.0634380  -0.1131842  51.9092482
  30.7084754   9.8447105  55.7172420  30.2419042   9.4631099  56.4612337
  30.0464666   9.7690359  54.9837947  32.2139971  14.1996774  42.1235475
  32.6373063  14.1146674  41.2400002  32.0791329  13.2657661  42.2903766
  32.5069135   9.5124687  32.9532573  31.6376292   9.8958682  33.1824894
  32.3786628   8.5949694  33.1798036  31.3524981   9.8109340  50.5517446
  30.5568954   9.2807434  50.7373962  31.0018958  10.6874256  50.3655598
  37.8192701   2.3936564  41.6152665  37.2131119   1.6858582  41.3619265
  37.3731285   3.1653725  41.1736091  35.8227288  19.2579565  48.2947428
  34.8810225  19.1053762  48.2154878  36.0624269  19.5023268  47.3926669
  19.6329758   7.7338083  44.9435856  20.0794366   8.1873906  44.1861771
  19.7407964   8.4128048  45.6367003  41.9964861  15.4135729  49.6778192
  41.7480110  14.5444941  49.4254814  42.6041235  15.7276016  48.9231572
  53.2715849  -6.8141375  40.8850395  54.2159014  -6.4367094  40.8765140
  52.8444603  -5.9196280  40.6409740  36.0150432  14.5547620  40.0803225
  36.1311447  14.3722788  39.1346398  35.3099405  13.9826230  40.4431463
  35.1446389  20.1339385  36.2746055  34.8249624  20.0684801  35.3213478
  36.0678262  20.3969172  36.1310413  29.0237144  -0.9124979  41.5064663
  29.2751959  -0.3063627  42.2022320  28.8823109  -1.7566858  41.9132997
  20.8498512   1.6543398  52.8472213  21.2714831   1.0516013  53.4664742
  20.8338229   2.4521241  53.4050512  35.3184522  18.1658648  43.7352506
  34.5102928  17.8347789  43.3302389  35.9476954  17.8708607  43.0904719
  29.7419481  14.1227590  39.7700488  29.9203644  14.4113100  40.6732702
  29.0432790  13.4507960  40.0057501  30.9792536  14.0285953  37.4055554
  30.6313503  13.8855005  38.2789290  31.3683988  14.9459695  37.5000790
  27.3648722   9.6651325  40.3446267  27.0582640   9.3233984  41.2431394
  26.7743311   9.0516079  39.7974284  49.2432735  13.5032497  36.3248154
  48.9991974  13.9842906  35.5142616  49.8756428  14.1092923  36.7785372
  31.4276307  22.6921361  39.0366413  32.0496756  22.5412346  39.7995155
  30.7566377  22.0247957  39.2644715  24.6043647  23.8882687  34.1351516
  25.6257003  24.0491340  34.0609798  24.3139852  24.7168863  33.7626540
  22.1401279  19.2086685  41.7155518  21.6832079  19.3632854  42.6047771
  22.0114197  20.1007363  41.3479542  18.9002761  24.3984251  44.9223982
  19.2671854  23.8358463  44.1783602  18.2019522  24.9049511  44.4836617
  38.2342395   9.2453903  43.7415144  38.2910941   8.3011125  44.0006585
  39.1570021   9.4887355  43.8798661  33.6337178  14.5604697  51.8163287
  33.3122564  15.5044322  51.9683706  34.2715314  14.7622129  51.1413997
  30.4513910  25.0884545  34.5546191  30.3898973  24.6183641  33.7530615
  30.8350319  24.4650430  35.1952697  32.6510043   9.3965468  36.1588347
  32.5057487   9.3534755  37.1508827  31.8049346   8.8748238  35.9287482
  40.3620272  16.1685742  57.2221851  40.2963642  16.0336542  56.2510477
  39.9591130  17.1055883  57.1928579  30.7976745  16.8245267  57.8261874
  30.8214981  16.5232162  56.8779472  31.6710395  17.3470948  57.8637326
  28.7328313  17.9499476  39.2178645  28.7016961  17.9929295  40.2229540
  27.8321331  18.3234198  39.0682958  46.1428372   4.6170707  45.9093972
  45.5013242   4.0931304  45.3898815  46.9133271   4.5747258  45.2752142
  38.3888544   5.8162440  30.9623458  39.2772128   5.6374988  30.6123152
  38.0980233   4.8587444  31.1449779  46.6009222   6.0904930  36.8933245
  45.9227490   5.4185038  37.0104770  46.4269061   6.7212785  37.5994602
  37.8783571  21.6917888  33.0054548  37.4072592  22.3799911  32.4935179
  38.4892025  21.3801167  32.2892505  30.5993613   9.6235215  46.4184885
  30.8282609   9.0759256  45.6459569  31.4572054   9.6845462  46.8912516
  37.2880173  10.3907351  46.3330432  37.7695249   9.9492402  47.0524083
  37.4642488   9.8441961  45.5637577  38.7598292  18.0178344  36.9442656
  39.0091483  18.9479181  36.7005177  38.1279329  18.3457480  37.7037996
  46.5707167  17.2040530  33.9873264  46.2797598  17.1107874  33.0794941
  46.6187091  18.1096075  34.1564679  49.3575000   1.7904779  41.9931975
  49.2599198   1.1106458  41.3379452  48.8188889   2.5039864  41.6326666
  22.1831829   6.5491428  30.7697430  22.0387144   6.9838856  29.9050341
  23.0112498   6.0923912  30.5959815  43.8697268  11.7046129  42.1757638
  44.3715508  11.9498982  42.9621279  44.5080727  11.9792257  41.4844614
  42.8745518   3.7975168  37.7179099  42.9824495   2.9851349  37.1995495
  43.1282573   4.4540536  37.0813398  43.6075889  14.2104559  45.5722073
  44.1859879  13.3630243  45.5137953  43.5923466  14.3995591  44.6081828
  39.8973523  19.9049069  54.6161803  39.1087248  20.1627663  54.0835122
  40.1792855  20.8135850  54.8518226  39.6914516  11.7653986  36.1690173
  39.5928400  10.8845427  36.5731046  39.1891792  11.6153517  35.3388190
  18.4271212   8.9008446  51.5135029  19.3574534   8.9546579  51.5259305
  18.2043734   8.4787808  52.3818900  32.3876432  22.6369055  43.9901143
  32.5411799  23.3805742  44.5783973  33.1440720  22.0452806  44.2002988
  32.8205054   1.1236674  40.4816775  32.4985312   0.5376143  39.7766114
  32.4960421   0.7220456  41.2718983  47.8515738  -6.2121219  45.3081004
  47.5222481  -7.1289503  45.3430426  47.2521079  -5.7446265  44.7054063
  14.8054746  20.4555281  58.9654884  15.2229599  20.1938705  58.1323514
  14.6746742  19.5415240  59.3600871  37.0038575   8.2364279  38.9500628
  36.2079410   8.4935957  39.4522218  36.6638043   7.6555462  38.2715729
  17.0143848  22.5841958  47.1419563  16.7804815  23.1851559  46.4598756
  17.1366620  21.6819309  46.7226363  46.7815344  11.0778048  33.1594713
  47.4075207  10.7997974  33.8599577  47.0518289  11.9941910  32.9976976
  44.2975576   5.4659382  43.0371384  43.7705054   4.9481446  43.6303408
  44.7894135   4.7429630  42.5867743  32.0033904   2.6642249  54.8486781
  31.2836139   3.2984911  55.0924374  31.6497412   2.3180840  54.0202561
  28.4872263  11.3077466  44.1919113  27.5489993  10.9360478  44.1530068
  28.9934972  10.5113585  43.9927109  34.6389013  13.6662978  46.3962316
  34.4985205  14.5822875  46.3385260  35.6328095  13.5565168  46.2812999
  29.3717637  13.4374773  42.6443555  28.6983042  12.8545797  43.1349806
  30.2090962  13.1218455  42.9647077  42.3268490  14.4965158  26.5051259
  42.5862944  14.9614281  25.7050478  41.5695634  13.9950734  26.1428510
  40.4842660   5.5339236  29.3974489  40.3990520   4.8548443  28.7300714
  40.9727883   6.2528142  28.9513601  32.6275525   2.7733767  48.9809127
  33.1535132   2.2833413  48.2936356  33.3248721   2.8573122  49.6991452
  25.9465992  18.5247749  43.8021846  25.2094897  18.4283458  43.2175121
  26.2065652  19.4521074  43.4900353  38.0687727  23.8324951  29.0107787
  37.4577147  23.5859871  29.7118525  38.9293050  23.7064059  29.4250486
  33.5391398   4.5532267  28.6162209  34.4604179   4.2544705  28.7802276
  33.6593443   5.4937505  28.9193481  42.5914598  10.4566257  39.9959517
  42.2857627  11.2172388  39.4746383  42.9904226  10.9104625  40.7605975
  33.4438049  25.3241453  44.6818297  33.6756938  25.5734120  43.7378729
  34.2306846  25.7189668  45.1061012  37.6138126  20.8714274  35.5060319
  37.7415589  20.9999907  34.5456291  38.4638213  20.8186652  35.8350380
  58.1005131  -3.9445323  41.0144031  57.4546757  -3.7602557  41.7242932
  58.7338644  -4.5021281  41.4876207  14.3487606  12.2447366  51.6090526
  13.7807457  11.9702461  50.8875318  14.8899136  11.4253910  51.7017782
  37.5846106  13.2828642  55.0380021  38.0375648  12.9335604  55.7982518
  36.7119126  13.4924764  55.3162661  35.3428757  13.5319520  37.5623093
  35.5189121  12.5543247  37.2879693  35.5962339  13.9791796  36.7729383
  33.8871862  19.9030743  40.7786921  34.0488139  20.4470785  39.9788919
  34.2089384  19.0070043  40.4694125  40.1400978  23.6596343  48.6614785
  39.3313421  24.1969331  48.4991150  40.3142259  23.9048658  49.6101850
  47.0824045  -9.2453924  51.2211023  47.5770611  -9.3619309  50.3989267
  47.6731877  -8.6921671  51.7449136  35.5146755  19.7605731  53.8634112
  35.3206740  18.9487977  54.2816070  34.6948642  20.3023351  54.0648089
  60.2113713  26.3022476  56.6163360  60.7081092  25.5641167  57.0593298
  59.7943406  26.7656518  57.3309564  38.0494102  20.3536674  52.8317443
  37.1430837  20.1021853  53.2128055  37.7537682  20.4674604  51.9117932
  67.8876603  42.7641151  42.8552148  68.2837133  43.2100875  42.0436137
  67.7310491  41.8489196  42.4332174  49.4351071  40.4797027  37.9012725
  49.7908303  39.8438431  38.5690705  48.5408381  40.0313287  37.7435395
  70.5019497  39.3122218  37.6423212  69.8993602  38.7436845  37.0744211
  70.2478591  39.0340978  38.4946957  66.0711705  56.9354229  35.3442658
  66.3930337  56.6286825  36.1897775  65.1864880  57.3137380  35.6293281
  75.8958148  42.1065719  44.4461995  75.8406493  41.3039826  44.9844185
  76.1437984  41.7682476  43.5673116  57.6969963  61.5216686  55.6740165
  57.1212369  62.1777722  56.0986274  58.3318476  62.0257368  55.2131138
  62.6256900  57.9302256  30.5717099  63.5925262  58.0382208  30.7531822
  62.2889225  58.8166904  30.7267092  66.0588131  54.0276302  36.6136511
  65.5717551  54.5467737  37.3048959  65.5249675  54.2141748  35.8496833
  81.9748491  52.2842726  44.4040802  81.6247339  52.8686386  43.6816163
  82.3840204  51.5849143  43.8356193  62.1764455  65.4080939  39.9280379
  62.5981379  64.9048196  40.6475510  62.3754726  66.3298486  40.1870705
  54.9499510  50.2256205  49.0523520  54.5470131  49.3373198  48.9384924
  54.1463908  50.7925406  48.9894718  70.4993952  55.7714014  47.7964245
  70.2955144  56.5786279  48.2557346  69.6617283  55.5296423  47.4197445
  65.2059995  61.9600513  32.7410642  64.7381376  61.3246791  33.3606400
  65.6593655  62.4537175  33.4513813  71.7497592  63.3200284  24.7082498
  72.0871970  62.5012022  24.4033577  72.5146633  63.6993592  25.2364090
  67.9814376  73.4336048  27.9502241  68.0464323  72.4587697  27.6815463
  68.0226924  73.8551066  27.0502885  76.2575350  70.1208430  35.3071727
  77.2010510  70.1803606  35.0240162  76.3419609  69.3401379  35.9241853
  66.3462279  60.6099371  42.1826380  66.4191453  61.4141821  42.6965155
  66.0856773  59.9677069  42.8752587  61.0964280  56.0378931  39.4244232
  60.4301392  56.4235867  38.8505807  61.4935748  55.3472690  38.8655549
  66.7141083  48.1442492  38.8560029  66.7802990  48.9991387  39.4085766
  65.9621848  47.7359068  39.2858669  64.6095696  54.1144582  34.2815497
  64.8608889  53.6725926  33.4889107  64.0618891  54.8421348  33.9807552
  78.1308973  55.8496327  40.9637669  77.1609388  55.9182894  40.7401336
  78.0434940  55.5201782  41.8676971  64.0775019  47.3603886  39.4356986
  64.3104838  48.0877461  38.7774719  63.4985696  47.9386960  39.9813792
  73.2326280  49.3347312  31.9042782  73.5446570  49.0280677  31.0194179
  72.7580495  48.5229218  32.1413577  67.3882834  60.0465466  39.5998848
  67.1018754  60.3122751  40.4837354  66.8674558  60.7107956  39.0898966
  56.5798163  70.4147401  39.9064746  56.6766462  70.5761482  38.9382562
  56.7332332  71.2794273  40.2480141  68.9743876  52.7360330  50.3501709
  69.9090876  52.4985992  50.0015550  68.9332009  52.1898001  51.1348304
  82.5303259  51.9283095  38.7395197  82.9956915  52.3168348  39.5656896
  83.2331884  51.5318465  38.2140636  80.0311965  45.2680858  34.0509995
  80.0673992  44.3326362  33.7329419  79.8096046  45.7474626  33.2525248
  61.4128060  53.7429054  45.6352581  61.8401922  54.3571098  46.3001672
  62.0111493  53.9756245  44.9067426  75.1140472  65.7036949  50.0550488
  76.0021263  66.0482497  49.8629586  74.8375714  65.5021256  49.1288117
  62.1639651  59.6762907  47.1203991  62.9635008  59.9480420  46.6166841
  61.9356436  60.6146194  47.3627248  78.8732855  55.1227891  43.8395045
  79.5328791  55.6396558  44.3183696  79.5718129  54.5273925  43.3351585
  78.6895021  58.6086620  34.6432249  78.4398829  57.8092344  34.1387522
  77.9940620  58.5276329  35.3568819  76.0561637  50.7066013  46.5461578
  76.5107582  49.9801723  46.0217402  76.3788635  51.4998841  45.9984455
  70.5122908  56.4259284  40.2456817  69.8145033  55.8404302  40.5557656
  70.7752866  56.8975869  41.0454973  76.5516649  53.2506015  48.5413542
  75.8977525  53.9750744  48.3365543  76.9680751  53.0928348  47.6988354
  62.8888284  59.0146346  37.8442888  62.7338821  58.1320109  37.4243220
  63.8406468  59.0796986  37.5885562  61.7752266  57.0332836  51.8120995
  61.0468907  57.6683107  51.9053059  61.3366986  56.2011673  52.1078646
  77.1702450  49.2055877  37.9859566  76.7993464  49.4128135  37.0841576
  77.1008160  50.0804219  38.4062712  63.3875820  53.8349488  40.7354537
  63.7168072  53.3494381  39.9157785  62.5945147  53.2805298  40.8712860
  71.8264695  58.6834622  48.7999266  71.0902494  58.3248359  49.3610009
  72.2091230  59.3601204  49.3687216  57.5840999  57.7137134  44.8836070
  57.4928825  58.2029252  44.0345914  58.4859306  58.0008410  45.1386854
  67.5408462  60.0989342  34.8273206  67.3372534  59.2476900  34.3335484
  68.4292412  60.2266081  34.5262044  73.5339976  51.8249430  37.1080985
  73.2924493  51.0455641  36.5298337  73.5389758  51.4208694  37.9782140
  64.8632202  62.6389208  40.9264315  65.1146599  62.6282549  40.0024646
  65.0980175  61.7112672  41.1735695  61.2938251  51.3270974  47.2580446
  60.9546051  52.1463531  46.7893006  61.7210607  51.7758834  47.9932966
  51.5737722  54.9537329  47.7571537  52.1315646  55.6879637  47.4430960
  50.6981828  55.3749858  47.7486494  67.3208419  66.9065094  46.4179494
  66.9849975  66.6525047  47.3159732  66.6415039  67.6351034  46.2875993
  72.9800636  57.2561916  46.4374945  72.7935223  56.2668681  46.3775477
  72.1282865  57.6156476  46.5517488  62.3604648  52.1326572  49.5330695
  62.7186537  52.9831254  49.8892233  61.7846613  51.8531413  50.2855208
  66.1087196  64.3264512  54.6123024  66.0568735  65.2412911  55.0882548
  65.5906042  63.7916441  55.2107117  55.6963765  59.8508467  38.6707513
  55.1710487  59.6737308  37.8719481  55.3145042  59.2508811  39.3156568
  82.5602254  63.1898282  53.4986721  83.3089658  63.5669424  52.9446096
  82.0159193  62.8947512  52.7369550  66.2649809  66.5974503  48.9367528
  66.3852823  65.8258385  49.6125971  66.3706808  67.3350351  49.5661236
  80.1973320  50.4513583  38.7028750  81.0380293  50.9486720  38.8114018
  79.8812136  50.7541331  37.8856993  65.8070762  56.2185952  43.4867812
  65.4678987  56.5237455  44.3563556  65.9725433  57.0743068  43.0180530
  60.9120023  50.9985065  31.5013524  61.3368969  51.4216567  32.3228368
  61.7274092  50.6513907  31.1134712  61.5360543  62.1008469  48.1002486
  60.8936729  62.8040314  47.9701985  62.1882157  62.6177851  48.6233980
  68.2756871  44.7320535  36.7618797  68.5602376  45.1718340  37.5987510
  67.6410427  45.3662745  36.3845161  87.1907824  52.2299135  38.6291984
  87.4804839  51.3274930  38.8495263  88.1602561  52.6010106  38.6638196
  74.0615467  49.0986448  25.6390549  74.1646310  48.1116363  25.4606441
  73.3026762  49.0516103  26.2424279  71.8323286  71.3212841  31.3217306
  71.4008640  71.7533450  30.5744060  71.3706213  71.7606090  32.0861579
  78.4708701  61.7980947  57.3891171  78.1892301  62.4129123  58.0657960
  77.6173503  61.2870337  57.2449330  81.9431798  39.2882510  30.2928013
  81.7023870  38.6220703  30.9482740  81.5266467  38.9917157  29.4953854
  65.3407669  50.5551844  46.8404131  65.7449123  49.7383694  46.5396587
  64.7244435  50.2413135  47.5635102  65.2208365  48.9373733  34.6700134
  65.8022412  49.7736811  34.6967370  64.4905973  49.2817944  34.1172885
  69.4947012  57.7184514  36.7209840  70.2710514  57.5020074  37.3056808
  69.8946461  58.2908369  36.0662432  63.9328269  66.8047134  19.3943134
  64.8133414  66.4028379  19.4310521  63.6724153  66.5714147  18.4889563
  74.3684267  51.7113067  33.3672242  74.3169353  50.9062699  32.8127230
  73.9322908  51.4269233  34.1716134  76.7981029  62.8504804  37.1549203
  76.1764996  63.5399558  36.8176346  77.3771929  62.7900752  36.3622750
  66.8426046  73.1354387  31.9395796  65.8816416  72.9253030  31.7314086
  66.7332586  72.7552396  32.9251686  73.2542512  70.3731769  42.0775118
  72.4474137  69.9490815  41.9018086  73.2408008  71.1056486  41.4135678
  70.1165158  46.4459994  34.5771360  69.7457564  45.7511486  33.9950973
  70.2605536  45.9584282  35.3807465  77.3942281  62.5853971  44.0213175
  77.4777569  62.1170777  44.9485175  76.4025833  62.7948701  44.2198632
  62.4271598  49.2699790  40.7388653  62.1512171  50.2354064  40.6480113
  61.5699297  48.9166761  41.0402394  62.4895628  51.9751200  33.6879713
  62.7083770  51.8052682  34.6219151  62.7035345  51.0307809  33.3078681
  68.4968412  69.4193945  32.1876969  67.6631619  69.5563017  32.7076134
  68.3506610  69.9571021  31.3796892  65.3813044  58.1116755  30.8550714
  65.7231228  57.4265123  30.2053929  65.9627460  57.9335118  31.5788476
  65.5332385  65.8317502  40.1867227  64.9726982  65.9400129  39.3852781
  66.3644722  65.5103129  39.7983709  71.6590324  52.9638032  41.0452767
  71.6348703  53.4910425  41.8890748  71.1299472  52.2168807  41.2925624
  76.4542283  58.6371988  40.1918439  76.7548108  58.5041112  41.0887742
  76.9273421  59.4939067  39.9612294  79.8313352  58.1787938  41.8374580
  79.3284456  58.8635461  42.3632276  79.0824163  57.5899916  41.6518435
  63.5470536  54.5820094  43.6369774  63.3686042  54.2719637  42.7167476
  64.4127570  55.0318878  43.5149733  62.3097230  55.5823577  47.4121877
  62.4792337  56.1476524  48.1860948  63.1352530  55.8335300  46.8616359
  81.4458766  69.4994076  46.5797252  82.0909364  69.5929761  47.3381077
  81.2419902  68.5762377  46.5688236  60.5300741  48.7378602  47.5259845
  61.4157508  48.4317542  47.6859476  60.6842162  49.6771273  47.2593399
  73.3161519  71.2858822  51.1239728  72.6167040  70.5930647  51.0522675
  73.8993162  70.8214243  51.7586149  73.8260909  44.2696235  40.2455170
  74.7341809  44.0453388  40.4269027  73.3793331  43.4160074  40.5695562
  64.8756866  55.8862755  46.4504894  65.6732115  56.3900994  46.8058849
  64.9794244  55.0211830  46.8121719  69.9236657  66.2835818  37.8915408
  69.8831863  67.2796777  37.7414630  70.3921054  66.2799308  38.7305776
  78.1302564  59.2253114  49.5232970  77.2870231  59.7397789  49.5159181
  78.0023979  58.7220686  50.3799275  67.4566024  67.2985896  13.6289866
  66.6069643  66.8813581  13.9019425  67.2186101  68.2262220  13.7437472
  63.1705127  57.3647449  49.4264702  62.7833147  57.3038343  50.3519498
  63.4298485  58.3043804  49.4882230  85.4390476  49.7116610  36.6139819
  85.1617102  50.3740524  35.9419140  84.6262067  49.6903247  37.1587279
  76.6342327  47.9605402  45.9139614  76.9826616  48.0183890  45.0073142
  75.6704978  47.8231797  45.7110216  52.5807334  61.0004014  50.4382599
  53.3105174  61.4421215  50.0304241  52.7728746  61.0546275  51.4053365
  66.5673707  52.0296279  30.7493123  67.0281770  52.5460001  31.3974144
  67.2530408  51.7660578  30.1050622  77.5912473  52.7348030  45.6641786
  78.4622982  53.1078773  45.6811048  77.1292555  53.1989667  44.9359743
  70.0647381  60.6282517  39.2345724  69.0872027  60.3680098  39.1987081
  70.3888576  59.6684443  39.3030568  53.0814499  78.5200871  46.2787813
  52.5995405  77.8952601  45.6886604  53.2295134  78.0135194  47.1217790
  82.1579964  54.8242485  50.8004731  82.3137225  55.3228672  49.9944662
  82.1798248  53.8931306  50.5439779  76.5968721  58.6339676  46.9333360
  75.7153288  58.5123314  47.2481530  77.1456506  58.5677796  47.7593005
  69.3163487  62.2084104  42.8392595  68.8321114  61.4381970  43.1242302
  68.6522979  62.7794059  42.4873832  63.8985883  48.8027343  42.9287647
  63.4772123  49.3167845  43.6737589  63.3048166  49.1302690  42.2294844
  65.6810538  45.4839363  40.7007147  65.7498640  45.9929672  41.5647921
  65.0551817  46.0778824  40.2230104  86.0635869  57.3887579  40.5891670
  85.3965293  57.7050111  40.0244556  85.7298079  56.6076114  41.0184784
  61.6001592  61.2408639  43.0322111  61.9283677  61.8457583  43.7485183
  60.6610987  61.5011393  43.0674338  73.4441221  61.4251160  42.0228617
  73.7168915  61.2487095  41.0256367  72.6000950  61.7890965  41.8180334
  68.7105623  52.7709190  38.9565898  69.1742272  52.0343319  39.3886708
  68.9127125  53.4948390  39.6221674  76.3612153  43.6135021  40.4579321
  77.0383887  44.3394996  40.6976683  76.8343169  43.3308320  39.6391207
  65.3544297  81.2247755  46.8579785  64.8920278  81.0718439  47.7018733
  65.6275506  80.3583223  46.5826972  61.6245877  58.6629707  40.2638790
  61.1842565  57.7368536  40.1011902  62.1150143  58.7641827  39.4320919
  80.0579533  51.0433068  54.8446135  79.3256880  50.9739930  54.1932276
  79.5647937  51.0850108  55.6559121  57.4152427  60.6053494  47.2330057
  57.9166128  61.2440460  46.6320465  58.1607318  60.0278733  47.4664380
  59.4114420  57.7945966  59.0812329  60.1049445  57.6746373  59.7462362
  58.7933425  57.0870493  59.3500549  69.3622278  68.5061837  45.3265777
  69.7175364  68.6115714  46.2255009  68.6841110  67.8458479  45.4963519
  55.4267374  56.2566034  51.9194347  54.8005073  56.4823385  51.2041878
  55.2693885  55.3173180  51.9796030  74.3252696  62.1471993  47.0822347
  74.0755210  61.9125280  46.1617181  73.5079548  61.8744304  47.5482326
  65.4521053  66.4633286  42.8754354  66.3589652  66.7385246  42.9068885
  65.3240240  66.1397108  41.9687505  73.1136175  61.1171268  50.2261515
  73.7149312  61.8151699  50.6053800  72.2686189  61.5245495  50.5164612
  73.3154802  57.1908975  53.7447891  73.9935695  56.4882776  53.9678334
  73.5518996  57.8811093  54.4023744  74.5457708  64.5984081  41.9716694
  73.8477459  65.2816144  41.8941364  74.8322403  64.5634543  41.0138819
  66.7462200  43.8691190  45.2714930  65.8246277  44.0228714  44.9768765
  67.1146326  43.6253404  44.3934720  58.1551096  55.6217915  33.2682034
  58.9004264  55.9171112  32.7700509  58.3619252  55.8539856  34.1919469
  56.4819651  55.4194034  45.7707913  55.5932830  55.3984156  45.3325734
  56.8077285  56.3146494  45.4395371  72.0440489  62.9084722  53.5855924
  71.5916281  62.2557533  54.1855197  71.8583310  63.7245412  54.1447533
  75.3511982  44.5537845  56.7193667  76.1702547  44.4297301  57.2263438
  75.4267481  43.8731396  56.0240119  75.4943069  60.6417198  34.4383512
  76.5295881  60.6473450  34.3898697  75.4355586  61.6279508  34.3634844
  68.3714418  45.7508292  30.2426024  69.3033313  46.0583523  30.4445771
  68.1891178  45.2743924  31.0921041  86.0788147  65.5358157  37.3315606
  85.5344256  65.0858890  36.6612183  86.6394875  64.7111958  37.6088372
  65.4278960  56.0121281  38.5231389  66.0490320  56.8069969  38.4773600
  65.7783617  55.5997088  39.3144015  61.9185281  56.7834946  44.0185320
  62.3200955  57.3516721  43.3283416  62.4815779  55.9929540  43.9905081
  78.3171390  64.0295060  32.1394916  77.8193351  64.8298199  31.8434878
  77.7333880  63.3116678  31.8209770  66.4452198  62.4040849  38.5282920
  66.0251073  62.8759608  37.7223099  67.0791682  63.1316509  38.7685450
  67.3931555  68.3138834  41.5338237  67.0837407  68.9546890  42.1898691
  68.3610316  68.3799598  41.7056558  52.3698175  60.5289082  41.9812190
  51.9848498  60.4977045  41.0363559  51.6996066  61.0599797  42.4053602
  75.5058741  54.7168356  40.2328947  74.8607103  54.8480867  40.9997812
  74.8526745  54.7608315  39.4960282  57.6112163  51.1216741  48.9426564
  56.6484912  50.9368599  48.9245205  57.6489024  51.7984534  48.2254121
  62.9359062  49.1177359  51.7068615  62.2599696  48.6636007  52.2116947
  63.0505317  49.9766657  52.2024249  64.4599656  54.0519496  53.7690084
  63.8594163  53.9650174  54.5518562  64.5605245  55.0662562  53.7833862
  68.7226877  46.0414856  42.9412719  69.6712186  45.8009808  42.8079107
  68.2831950  45.3970735  42.2774121  54.9536480  62.3818684  37.5762529
  54.1817907  61.9086082  37.1699782  55.3083323  61.6865751  38.1969918
  85.4284678  56.4080778  49.6452222  85.7164213  56.7758021  50.4960578
  84.5225916  56.7487183  49.5750633  67.9310764  56.1302382  48.7529446
  67.4070501  56.9691012  48.5459458  67.3051271  55.8051974  49.4248483
  71.4499031  59.3952083  59.7657635  71.7119983  58.7606542  60.4855328
  71.1568165  60.1712188  60.3246296  74.2391924  58.3672602  36.1527338
  74.9525827  58.1314251  36.7893866  74.7866969  58.8054637  35.4719216
  76.7081215  49.3384468  48.5668824  76.5799915  49.6286872  47.6604262
  75.9014104  49.6799939  49.0382602  64.3551690  56.3655200  28.0840926
  64.9443792  56.5920087  27.3647992  64.9994467  56.1152948  28.7718119
  68.1645676  49.9028326  56.9070043  68.0753058  50.3317123  56.0689814
  67.2296571  49.9629056  57.2560969  70.2234189  42.8795596  36.7848296
  70.2225179  42.1594636  36.0972308  69.3089801  43.2404750  36.5755220
  64.5004209  73.2206202  30.2294490  64.7511674  72.7249884  29.3847516
  64.6714889  74.1019035  29.8421897  73.9593408  39.6263934  49.3647480
  72.9931604  39.5845068  49.1749530  74.3179310  40.0198312  48.5365059
  68.4551694  54.6877434  41.1179286  67.5214534  54.5475108  40.9797609
  68.5633064  54.6112926  42.0840107  70.2889048  68.2483606  24.1441094
  69.9789065  67.8740294  23.3130434  69.8729865  67.6694580  24.7966379
  60.9125554  72.1785308  16.2034081  61.7135349  71.6187742  16.1232923
  61.2985108  73.0765330  16.1320611  75.9076654  55.4038095  44.4185718
  75.6372891  56.3126529  44.5792935  76.8677270  55.5317991  44.3787079
  75.1774237  58.2717462  20.8420210  76.0455205  58.0560012  21.1646326
  74.7339533  58.4171289  21.7237114  72.8756697  51.8568274  44.0408853
  72.1780125  52.4058708  44.5176738  73.6924948  52.2678851  44.3605355
  66.7067199  47.0073150  35.8324503  66.0940073  47.6811269  35.4842130
  67.3570945  47.6102996  36.2427300  83.2548203  59.0462197  43.3916104
  82.7679562  58.1856088  43.1715089  83.2342848  59.5110757  42.5621981
  80.2513544  49.9935362  44.9496124  79.8931624  49.5905438  44.1579448
  80.7267285  50.7344675  44.5867927  55.3293647  56.4412647  48.9686407
  54.8858806  57.3288389  48.9130796  56.0987554  56.6186986  48.3651425
  64.1186549  49.2508552  37.4528926  65.0040518  49.5153674  37.0109812
  63.5114559  49.3418467  36.7556714  80.7655656  55.5106752  29.9452125
  80.4309213  54.9243838  30.6800947  81.6851907  55.5037324  30.1315354
  71.1421992  48.8361743  55.5807818  71.2188468  49.4841757  56.3013964
  71.9300728  48.9334408  55.0859387  63.9092443  45.7542165  28.1768318
  63.4621832  46.6315417  28.3267809  64.8500975  46.0069948  28.1506053
  68.3163880  49.3358971  36.7112601  67.6046660  49.8597341  37.1149230
  68.9933202  49.3128292  37.3986600  63.0668626  50.4402914  44.8686305
  62.4056708  50.9004002  45.4476604  63.9411154  50.7033298  45.1748802
  69.9864669  53.5501409  57.4633602  69.2736404  53.9945731  57.0265344
  70.4871112  54.2114421  57.9340144  51.2431049  64.8231541  43.2493853
  51.9396321  64.2690854  42.8068325  51.3601675  65.6842431  42.7019549
  60.1490411  57.9023263  46.0669380  60.7464603  57.3946057  45.4477992
  60.8439410  58.4834219  46.4907346  51.7032850  54.1496163  45.2334537
  51.8124678  54.3768812  46.1538897  51.0089370  53.4457207  45.3556929
  63.7082264  49.5968795  48.9557728  63.3915366  50.5332994  49.0634098
  63.0868077  49.2031680  49.5977536  79.9505138  50.9531741  28.5844498
  80.8739854  51.3172034  28.7730788  79.4855609  51.7723749  28.5522275
  73.3759426  45.1305895  43.7834563  74.0123593  45.8149860  43.4733933
  73.8931053  44.8740715  44.5674904  64.5388809  71.5953119  46.2384963
  63.6878497  71.4029645  45.8124824  65.0868990  70.9884219  45.6255781
  68.3013209  61.6447922  29.6483109  67.6032588  62.1227897  30.0414736
  68.1801693  60.7133011  29.9425752  77.8887231  54.1452667  37.6171189
  78.8215673  54.1321081  37.7383687  77.7341690  53.6232640  36.8487547
  77.8643175  65.0982824  28.6055398  78.8370027  65.0744581  28.8535650
  77.9984358  65.5113711  27.6902109  83.7087408  61.2478446  41.5156195
  84.6570128  61.0946038  41.6306450  83.6355750  61.4330894  40.5699132
  62.6880919  62.8973117  45.2778140  62.9649858  63.7474223  44.8296597
  62.4951174  63.2437074  46.1459551  74.8559910  64.2717491  36.1909111
  74.0979298  63.8459528  36.6237784  74.6389815  65.2019272  36.2598320
  72.4406297  55.5661141  29.1004371  72.0550221  56.4071900  29.4840318
  72.8642130  55.2531789  29.8936078  70.5963367  46.4100185  47.6076302
  70.0779323  46.2607401  46.7563790  69.9854968  47.0899189  47.9876116
  57.4179730  58.9853144  56.9290888  57.3898853  59.3069536  57.8728168
  57.7830909  59.7889391  56.5077645  60.6505834  54.1139346  41.5739418
  61.0055068  54.5583352  40.7738999  60.1301496  54.8282146  42.0111513
  73.1422339  46.8108957  39.8845396  74.0459466  47.1797905  39.8002258
  73.3869056  45.8687598  40.1257349  65.5024438  41.8750639  49.2682659
  66.1380730  41.4846128  49.9248848  64.6877116  41.8590854  49.7850504
  79.1672895  62.8865778  25.7369308  78.8768313  63.1196252  24.8730588
  78.4973610  62.2909940  26.1036469  82.8735107  73.4525045  45.6412291
  82.3828591  73.9812291  45.1163375  83.5235935  74.0534100  46.0169553
  67.5106477  60.1908955  46.6077564  67.0479952  60.7884853  45.9672596
  68.2986274  60.7133479  46.7935111  70.3626813  75.0678877  49.8486756
  71.2279404  74.9363190  50.2982622  70.5730551  74.7469034  48.9590952
  62.8814941  82.8684172  49.4526095  61.9412395  82.6414436  49.6232812
  63.2726401  82.0112149  49.2661409  63.4614307  81.3156792  30.8905255
  63.2786224  81.6495046  31.8189914  64.2830114  81.7733460  30.7173623
  78.3163512  87.0290939  48.3513321  79.0830396  86.6186056  48.6769129
  77.6224200  86.6026643  48.9035375  75.5430051  71.5465292  56.0265019
  75.6391237  72.0652484  56.8484403  75.0261909  72.1851752  55.4535779
  64.4474793  75.7940734  51.3850237  63.8045860  75.2757128  51.8781840
  64.8750783  75.0760570  50.8337192  94.4898208  67.1219548  59.2412168
  94.4481938  67.9635918  58.7185124  93.6367793  67.1796909  59.7050216
  79.4145198  69.0434367  34.5545093  79.0139004  69.7984074  34.0025058
  80.2379275  68.9158748  34.0367689  73.8962085  63.9484741  26.1688140
  74.1000423  64.6043015  26.8716807  74.3299473  63.1716005  26.6280061
  77.8074047  74.3860717  29.2704415  77.6137454  74.8531973  30.1168743
  77.6291526  75.0724203  28.6214142  70.4523651  72.6532955  29.5739510
  69.9167463  73.3319878  29.0314566  69.6343495  72.1085943  29.7922554
  70.3057602  78.2964649  39.3702951  69.8490072  77.4413503  39.5291893
  70.5670324  78.1016975  38.3816181  73.4547246  74.1045171  45.1679611
  72.5183298  74.2862943  44.8965839  73.4246782  73.1497753  45.2258938
  63.7694637  61.7808563  54.3879102  63.4028065  62.5791735  54.0178503
  63.5830380  61.1267700  53.6463705  60.9584079  73.7306755  46.5198403
  60.7978593  73.9069823  45.5706476  61.4873721  74.4826667  46.7793871
  74.3889362  61.0257591  39.6225485  74.2246776  60.1269253  39.2721372
  75.3793623  61.0142021  39.6761381  80.9857902  62.1868496  41.8029419
  80.4741211  61.5731173  42.3001981  81.7396976  61.6326990  41.5163632
  71.3188268  63.9665935  44.6140636  70.8556162  64.1766568  43.7691555
  70.8362496  64.5776489  45.2180831  66.0754704  75.2144055  39.7736551
  66.0549835  75.6095822  38.8911449  65.1010846  75.2333691  39.9483605
  66.3168986  89.9514566  44.3995310  66.0642178  90.7809259  43.8409357
  65.4244962  89.5355636  44.3279302  84.7185976  67.3712416  29.7859086
  83.8169727  67.4179718  30.2046292  84.6167743  66.5399861  29.2917282
  70.8951875  62.4439817  51.3172379  71.3574966  62.4914317  52.2039737
  70.0064478  62.3499194  51.5270449  66.8240221  51.0335540  34.7073030
  66.8363838  51.9577011  34.9642366  67.7871736  50.8308377  34.5772623
  68.2469835  75.8240314  48.1797114  69.0185570  75.6111899  48.7458566
  68.0431832  74.9189350  47.8517789  74.1413064  77.8504097  44.9676375
  74.0885109  78.3515031  44.0794180  74.1908519  78.6217848  45.6101882
  76.1409051  55.2097669  51.0884265  75.4639149  54.4427845  50.9696189
  75.4846316  55.9800287  50.9364654  74.2757479  80.7675815  35.7087520
  73.8100817  80.9758553  36.5334869  73.7084766  80.0643962  35.3791565
  74.0756390  59.1390251  55.7241230  74.0855796  59.9865428  56.0835751
  75.0395432  58.9914781  55.4996190  69.6890005  65.4582516  46.5167769
  68.8369561  65.9280813  46.3858222  69.3698220  64.5722029  46.7359129
  80.6242653  63.4891004  48.3935962  80.3074345  63.8993901  47.5692802
  81.5603988  63.8208130  48.3882404  70.9890990  70.2492915  34.4535623
  71.0681562  69.8040478  33.5393974  70.7522518  71.1722727  34.1549736
  84.7423110  64.2300193  35.2180599  85.1217536  63.3646105  35.1464086
  85.1598203  64.6803714  34.4346506  78.9841773  64.7549643  43.1977205
  78.5613406  65.1067847  42.3503458  78.4082591  63.9321136  43.2418099
  82.3142106  67.8760610  37.3283867  83.2292685  68.2293321  37.4634865
  82.5475926  67.0094648  36.9752775  70.7249212  59.0781704  46.4585689
  71.0965477  58.9836902  47.3440039  71.2712580  59.8459942  46.1091459
  80.7113313  73.2803730  41.6750437  80.2351247  74.1139639  41.9286704
  81.5962506  73.5503710  42.0362905  74.0521014  66.1498823  32.5862730
  74.0702626  67.1184294  32.9149844  73.3273449  66.2785915  31.9043759
  71.1064707  64.4181835  31.4034842  70.3670702  63.9406439  31.9626831
  71.7695081  64.3545063  32.0941822  77.2052852  52.6231703  30.5495384
  78.1183627  52.6503971  30.8355476  76.7185693  53.1005399  31.1908357
  89.5803430  80.5824825  30.6802666  89.3986674  79.6311123  30.8046156
  90.5832460  80.5109621  30.8207210  87.0141414  61.6587361  46.8391536
  86.5772892  60.8482352  47.0557043  86.7077706  61.8011427  45.9239508
  81.7665418  65.1423504  42.1078733  80.8064885  64.9755586  42.2140312
  81.9599027  64.6554331  41.2915376  86.9392894  67.5030863  19.9290398
  87.1853500  67.0280829  20.7675893  86.0829034  67.8564542  20.2533558
  75.9748989  64.6568510  39.6736732  76.5735071  65.4064921  39.6852286
  76.0600960  64.2700347  38.8000751  50.6577875  74.4573165  44.6358428
  50.1147108  74.5070581  45.4598880  51.5203375  74.7130099  45.1360078
  72.6248195  75.3975034  36.7719234  72.6065648  75.4782275  35.8014394
  72.0004154  74.6519246  36.8965088  78.5172042  70.1022994  47.7444078
  78.8290430  71.0211309  47.6458689  79.2557102  69.5783753  47.4864877
  72.9867770  62.7399261  37.5902952  73.5350493  62.1441522  38.1300155
  72.1188458  62.2989621  37.6015070  79.6366877  51.5133695  41.1880763
  79.6469704  51.3444358  40.2343869  78.6813880  51.5872684  41.3655343
  63.8116286  67.1491292  33.9170627  63.3345455  67.5113491  33.1536392
  64.2941682  66.4263312  33.5285247  63.2459387  60.6131220  34.2144918
  63.6046407  60.5703530  35.0854331  62.5100554  60.0605489  34.2366735
  75.3272107  72.2256024  38.9884869  75.7352742  71.4948910  39.4821416
  74.6527021  72.4769677  39.6954567  78.5208152  64.8455346  53.0727901
  78.0554231  64.1513683  53.6017486  78.2456061  64.5208367  52.1495855
  58.9720059  71.8198992  42.4240495  59.0307656  72.0752529  41.5537242
  59.3932493  72.4925274  42.9821719  65.9387456  80.1693410  39.2268621
  66.2748916  80.2070932  40.1707711  65.2118999  79.4534489  39.3726861
  73.0797857  76.2676241  53.7872536  73.3142131  77.0932719  54.2889521
  72.0971022  76.3458493  53.8481958  72.1305364  64.5771356  39.5119685
  72.3101951  64.1095057  38.6929767  71.9272847  63.7754012  40.0983017
  72.1010336  80.1935942  40.2144614  71.3784206  79.5518826  40.1002609
  72.8542380  79.5729868  40.2225337  65.7924107  64.1014039  13.4081167
  65.8348198  64.3809092  14.3743327  66.6959530  64.1173098  13.1531883
  59.8432014  65.3360976  26.9586157  59.8937163  66.0387617  27.6723060
  60.7013927  64.8648020  27.2372064  54.2061703  71.6193100  36.8377349
  53.7520693  72.0456144  37.5516093  55.1055128  71.7791321  37.0943148
  76.5638398  54.0906983  33.0004315  75.6711955  54.2416716  32.6904604
  76.3601004  53.5539213  33.8134486  67.8344012  64.6114388  38.7863744
  67.7729515  65.0308251  37.8771872  68.8340667  64.7078628  38.8886217
  81.6121382  73.0336249  39.1042244  82.0277193  72.1382191  39.1307745
  81.1591554  73.0998501  39.9564328  76.7521999  91.2117337  68.0767945
  77.2542320  91.3120562  67.2245873  76.9388543  90.1901686  68.1368969
  76.0445963  60.6264957  49.2493052  75.4091002  59.8505598  49.1149208
  75.4383773  61.2982389  49.5742326  66.1952101  69.1679476  39.3486865
  66.9383249  69.8819653  39.2123053  66.6668271  68.6296040  40.0555367
  71.8823370  71.2390241  46.9536100  72.2119016  70.4377485  46.4440426
  70.9465533  70.9434384  47.0700129  58.9174621  77.7357335  46.1086797
  59.1417314  77.8045609  47.0423194  58.1513632  77.0622816  46.1831668
  68.4874377  63.7184735  32.2558060  67.9963269  63.5704343  33.1259369
  68.1340391  64.6271441  32.0567411  80.3507012  64.9792388  38.5935857
  80.5964507  65.5836722  37.8262757  80.4094641  65.6153267  39.3155372
  70.9446912  57.1276031  42.9271929  71.4534189  57.9602641  43.1732162
  70.0909968  57.3164717  43.2896511  67.1865852  64.6356211  50.6133556
  67.5304572  65.1430574  51.4322915  66.4930732  64.0929797  51.1065905
  74.3580162  62.6969520  31.2658820  74.3027876  63.2177277  32.0998756
  74.6796074  63.4999885  30.6881370  79.4893139  60.5870990  43.3565566
  78.6589326  61.1097586  43.3041671  79.1621970  59.9390018  44.0797029
  76.2797251  56.3952553  37.3936507  75.4421134  56.0202779  37.2239855
  76.8171519  55.5591607  37.4890690  80.7255061  74.7799723  29.1091819
  79.8872521  74.5057941  28.6320885  81.3700056  74.8303431  28.3632799
  78.2033361  66.9979918  26.5400443  78.9910073  66.5919718  26.1032641
  77.7918102  67.4269774  25.7915322  74.6042021  62.9535767  50.9412556
  74.9750450  63.7865317  50.6763155  74.8215079  62.8618728  51.8788865
  74.8694659  69.5169182  44.1467395  74.2178931  69.2943252  44.7933448
  74.3521857  69.9420438  43.4408291  70.7068497  61.8146183  36.2772271
  70.1532469  61.8588422  37.0247886  70.9469443  60.8268384  36.2247098
  65.9261943  73.9152759  46.0072777  66.4584024  73.4715015  46.7287370
  65.1479134  73.2302966  46.0115102  57.7528275  67.4162466  30.2185737
  57.0408823  67.0982333  29.5841012  58.5135456  67.2639965  29.6079045
  77.1883602  60.9889597  39.1596686  77.0262398  61.4968106  38.3547433
  77.7477597  61.6126206  39.6912936  61.7152409  68.8208264  38.3693420
  62.3694259  68.4074512  37.7200152  61.9426595  68.3662370  39.1672486
  68.0052991  74.6576111  43.8443801  67.3213798  74.5381880  44.4903970
  67.5172431  75.2733730  43.2210530  63.4754138  70.7572599  48.7794930
  64.0732135  70.8698029  47.9865936  62.6260402  70.7138205  48.2995579
  68.9041239  73.4735577  51.5849572  68.3409709  72.8276841  51.0341664
  69.2690855  73.9692218  50.8403023  68.6499945  75.6317343  40.0037349
  67.7383402  75.2570409  39.9071087  69.2407686  74.8743061  39.9762767
  77.1248379  71.2648593  59.0343707  76.5799141  71.9892937  58.7924385
  77.9721705  71.7471598  59.1946470  59.4189074  69.0279477  47.8661618
  60.0387954  69.7825776  47.6138542  58.5493787  69.5471303  47.5923329
  81.9151687  71.7172853  49.3768933  82.7158020  72.2775531  49.5063945
  82.3654885  70.8137005  49.4693326  63.8249152  71.4031741  34.9477846
  64.3300855  72.2188742  35.0728500  64.3702816  70.8419520  35.5333310
  83.2220574  48.6542700  25.6795795  83.7352395  49.4627440  25.4246461
  83.6426916  47.9915116  25.1456580  71.1458030  62.4786930  40.8922741
  70.8188754  61.8411917  40.2192405  70.4794922  62.3732964  41.5906572
  79.4247383  74.5587045  33.0863005  78.8767520  73.9319662  33.6223952
  79.8658227  74.9875548  33.8808186  79.6995569  62.2817316  38.6628222
  79.9723248  62.1778673  39.5585035  80.0047061  63.1585409  38.4093594
  67.2370411  80.8122868  41.5502430  67.9218318  80.4903900  42.2123901
  67.8079155  81.3318439  41.0272458  73.2156853  68.9259913  46.4994692
  72.7251435  68.1325276  46.7985382  73.9622111  68.9338239  47.0605293
  74.4259853  58.5486735  32.7606193  74.7020689  59.0646489  32.0050689
  73.8924901  59.2833245  33.2549896  83.5052578  72.8566619  30.8500676
  83.2968921  73.8151715  30.9919129  82.6802021  72.4170191  31.1450098
  71.8182184  66.7494283  59.6286407  71.7498383  67.6117343  60.1306627
  72.7720680  66.5363771  59.9587215  73.1759952  73.1871115  35.2695489
  74.1633001  73.1928173  35.4699580  72.8973035  72.4041724  35.7680009
  70.3537662  68.4718572  42.7266909  70.4054043  69.4260127  42.4703496
  70.3546481  68.5597920  43.7052883  79.5835703  69.0518804  37.2620482
  79.4026496  68.8485354  36.3269651  80.2780417  68.3886314  37.4569299
  68.6332537  81.3490352  50.0145011  69.6290074  81.4670300  50.0986475
  68.4050426  82.2611621  49.8786961  74.8495360  71.9766256  47.2126023
  73.9930517  71.6723229  46.9683276  75.2579015  71.1220789  47.5385571
  58.1771414  73.6266187  47.5972725  57.8205816  74.4905406  47.9799266
  58.8136602  74.0461287  46.9049816  76.9216876  80.2256985  45.9404122
  77.8003849  80.6219707  46.0981863  76.6973592  80.6560232  45.0476804
  83.2912407  62.7327639  43.9330077  82.7461863  61.9930030  44.1371542
  83.2520807  62.8327154  42.9692724  67.4734664  71.6446907  54.7279536
  68.3996796  71.5128328  54.5738460  67.3844792  71.7591519  55.6549452
  71.1324029  65.6267350  35.1565770  70.3441652  65.6928760  35.7453141
  71.8042325  66.0946631  35.6515312  76.4587900  49.4411701  26.8978206
  75.6999730  49.5383979  26.2780163  76.2081671  48.5399165  27.2425045
  65.4539418  58.7132604  58.7202844  64.7020931  58.1027271  58.6532312
  66.0095155  58.4368465  57.9987771  23.1070702  12.6522293  29.8565655
  23.6919685  11.9889931  29.5167866  23.4402436  12.8771324  30.7195696
  28.3441830   1.6016823  27.7965345  27.5269630   1.4753617  27.2202726
  27.9708235   1.9351159  28.6009084  20.6175023  -2.5138918  27.3143267
  21.3704616  -3.0965008  27.0818834  20.8087524  -1.7963246  26.7247672
  22.8188154   1.4292563  20.2519068  23.3365914   1.6737277  19.4831252
  22.3827834   0.5941676  19.9470816  37.0487869  -8.9393401  26.1576495
  36.3691190  -8.3321686  25.7362589  37.8519623  -8.4034210  26.0214160
  36.8975800   0.0527661  23.2462780  37.6154735   0.5518129  23.6507467
  36.4342665   0.7504081  22.7458051  30.9767568   1.5200989  33.0796362
  30.5221033   2.0527827  33.7386179  31.9389034   1.7417735  33.2556532
  24.9271813  -5.6377838  39.0002109  25.4565630  -6.0624872  39.7248477
  24.7590260  -6.3660344  38.4065087  27.9286990   7.1163468  31.2920087
  28.0623878   6.3960088  31.9152921  27.2636078   6.6315194  30.6481714
  42.9211787  -9.4517398  18.9897680  42.3694833 -10.0841293  18.5926200
  43.8121336  -9.6804306  18.6762678  19.1486716  -8.0750119  33.1759670
  18.2739342  -8.0767147  32.7129858  18.8986333  -7.6427784  34.0010188
  25.0292183   5.1208893  33.7107038  24.2416273   4.9536879  34.2762355
  24.6214884   4.9573913  32.8541929  28.6436292   7.6702694  28.4526363
  29.5442607   7.5532256  28.8424431  28.1575923   7.2232368  29.1947934
  32.0515600   2.2765944  28.9837828  31.2632464   2.8197109  28.8321314
  32.7092575   3.0128321  29.0987353  16.0164447   4.5814633  33.9871580
  15.4942133   4.6668022  34.8154586  15.3793575   4.1609465  33.4126260
  34.7158009   2.9244361  23.6010537  35.3860413   3.2567504  24.2041569
  34.0881095   3.6731860  23.5477805  27.2297604   2.4006227  30.1937223
  27.0158187   1.8056145  30.9792181  26.3046095   2.7928231  30.0793740
  42.9244228   1.8554989  34.7212628  42.3989069   2.6167276  34.3864829
  43.7488227   2.3546941  34.9066610  29.3168309  -3.9707853  28.0579421
  30.2022974  -4.2894378  27.9567606  29.2681533  -3.8415426  29.0389668
  34.0381503  -0.8685300  25.4495823  34.6802937  -1.3483707  24.9256685
  34.1838297  -1.2352162  26.3247758  34.7820149  12.8955790  31.8829188
  35.4971348  13.0444430  31.2447434  34.6946795  11.9084549  31.8567428
  33.9586443 -13.0966690  11.9547911  33.2247348 -12.5267138  12.2763764
  34.1353500 -12.6745417  11.1044873  16.1862959  -5.7643880  42.0396178
  15.3236671  -5.3934969  42.1096783  16.7008535  -4.9042175  42.1703713
  13.8853763   4.5464334  35.4834713  13.5512662   4.7974431  36.4162499
  13.2112889   3.9174989  35.2423569  22.5143469   4.5475790  35.0323847
  22.6607379   3.8305459  35.6694228  21.5213054   4.5847181  35.1165742
  26.6129074  -1.6304451  23.9931394  26.2965133  -2.0078188  23.1917993
  26.7050740  -0.6679611  23.7211488  40.7636673  -0.5878042  29.3916686
  41.4157106  -1.2804050  29.0891306  41.1941005  -0.2834947  30.2010841
  32.2313968  -4.2587301  23.1403890  33.0621203  -3.9002365  22.7852758
  31.9963650  -4.8928093  22.4293913  37.6342548   3.2558146  31.3509034
  37.4562884   3.1469269  32.3410923  37.7510356   2.3037391  31.2050429
  44.0508336  -0.7154063  39.4044407  43.2201294  -0.4329377  39.9214119
  43.5483161  -1.1056950  38.6550609  46.1207182   3.7123734  38.5303144
  46.8263215   4.1176932  38.0069247  46.3284207   2.7428454  38.3538290
  53.4332947   8.2330110  27.5809746  54.3197961   8.0486853  27.3649082
  53.3174499   7.8308187  28.4708063  49.0434557   7.4963195  20.3109279
  48.2249950   7.2255737  20.7937757  49.6847238   6.8984299  20.7514137
  47.1934026   9.7945002  26.5009101  47.7164460  10.5625859  26.3247740
  46.4660392  10.2021797  27.0676225  43.8501769   1.4757786  28.1187341
  43.6506411   2.1683949  28.7277588  44.3279623   2.0089316  27.4238041
  45.2443269  11.8739533  24.6757637  46.0884018  11.3787473  24.5990153
  45.2347304  12.3116613  23.7670144  38.0138176  -0.2516512  36.7430873
  37.4022981   0.3634037  37.1672357  38.5386060   0.4089111  36.2241890
  47.6638212  19.9532346  22.7654774  47.7566853  18.9656690  22.9139168
  48.6082617  20.1698913  22.7737282  45.1167605   8.8543879  22.7408990
  45.3758434   9.0914960  21.7647808  45.6222957   8.0768982  22.7881646
  49.0292327   6.4386677  35.8573977  49.4406720   7.1044164  36.3901948
  48.0845807   6.5627093  36.1090004  45.0384356  -3.2016311  11.8470125
  45.8965048  -2.8228017  11.6667767  44.5769694  -3.0612953  10.9884957
  57.6678903   7.8531597  32.6354034  56.6800697   7.5705706  32.6421495
  58.0439606   6.9522546  32.5315664  51.2000608   7.5631768  18.6054633
  51.5489664   8.3963468  19.0541687  50.3747610   7.4950655  19.1600472
  49.1593614  -4.0144954  14.3354805  49.6372513  -4.5473626  13.6346541
  49.8423857  -3.3274120  14.4706575  41.9461052   1.6288072  23.6597629
  42.7771980   1.4210990  24.0938645  41.9562684   2.6334394  23.9079681
  47.7781800  14.7491826  24.4021762  48.4303773  14.8679905  23.6387853
  46.9503437  15.1464921  24.0003040  36.1106456   6.8432833  37.0100643
  36.7665732   6.2387330  36.6284508  35.9225171   7.3730722  36.1776578
  33.8554062  10.6061126  30.5722097  33.6166730  10.1306474  31.4217498
  32.9706862  10.5157545  30.1209348  43.6696136  14.0956735  38.1581199
  42.8588750  13.5029832  38.1298351  43.7959976  14.4185211  37.3270298
  46.0896912   8.1019532  34.0904410  45.5167630   8.6371740  34.6771973
  45.5541575   7.2815105  34.0444712  50.5167507   5.7392059  21.3285562
  51.4433497   5.5327807  21.1823602  50.3403930   5.2644568  22.1736041
  41.9550594  -2.4880502  27.9469858  42.4218462  -3.3130809  27.8003454
  41.0302351  -2.9035882  28.0940592  50.3297294   9.0551621  23.7819198
  50.2879283   8.1592183  24.2127461  51.2651538   9.0203098  23.4467514
  40.7157621   3.7659264  39.5336735  40.0289167   4.3719224  39.2257804
  41.4579698   3.9862773  38.8920444  37.6681879  -1.8607341  30.0954347
  36.6700513  -2.0459811  29.9439030  37.8377579  -2.4783615  30.8326043
  49.1112231  -9.6838764  31.4815113  48.7130102 -10.3209111  32.1675401
  48.3189530  -9.1560643  31.2259737  49.8778920   7.8127612  16.3757034
  50.3823597   7.6024133  17.2416334  50.3450952   7.1744969  15.7929399
  35.1764248   8.9105393  49.1311191  35.8048976   8.1663688  49.4198479
  35.5814666   9.6532208  49.6226228  39.1920226   1.9984930  35.6731347
  38.3063602   2.3892603  35.4155290  39.7463412   2.7626827  35.3321301
  42.7637507   6.1685621  40.8159703  41.9075106   5.9280621  41.2325084
  43.3832000   5.9176273  41.5032042  38.2699922   1.2241809  25.4470413
  38.3591411   0.9115314  26.3774272  38.7489850   2.0699757  25.5350697
  46.3340986   7.4272040  25.3582176  46.5495309   8.3225452  25.6051848
  47.1648068   7.1836007  24.9206871  43.0955017   7.0442663  36.9878369
  42.6415783   7.4792374  37.7278261  43.3577011   7.8421225  36.4359989
  72.2233498   5.3002563  26.5391432  71.8146337   5.3644102  25.6512823
  72.5073060   4.3811400  26.4730260  45.5566275  10.4904799  28.9734302
  45.5095310  11.4462052  28.9566652  46.4422712  10.3366158  29.3359563
  38.6597943   4.6784869  20.8742026  39.4675042   4.4947157  21.3363587
  38.7570547   4.0242790  20.1313189  43.8623544   8.2134124  29.4444763
  44.4009320   9.0402839  29.1955305  44.6043933   7.6525297  29.6788477
  39.0958991   6.6642682  39.8233355  39.6040382   6.6491446  39.0103176
  38.3440664   7.2806537  39.5091229  46.8803240  13.6616366  32.4112884
  45.9783231  13.3848091  32.0727136  47.3605703  13.4566974  31.5367970
  43.4778539  15.3517152  35.6281614  42.8451780  14.6728087  35.4141317
  43.7510126  15.6212950  34.7117011  23.9926440  17.0565922  49.9311287
  24.7543808  17.5017169  49.4720045  23.6809736  16.4843485  49.1505277
  43.3118286  10.1089421  24.4918413  43.7226530  10.9825913  24.8035960
  44.0361137   9.8566180  23.8531618  39.4847330  -7.7444201  26.3941219
  39.7199064  -8.5483119  25.9099549  40.3326571  -7.5872086  26.9147836
  51.0936759   4.1870785  23.8907314  51.8270517   3.7662333  24.3611214
  50.3134059   3.8938991  24.3503744  47.1590018 -10.4223884  12.6985591
  46.4119552 -10.2711280  13.2684061  47.7601401 -10.9238027  13.3219935
  46.9738651   6.1799183  18.2597540  47.2740525   5.6810594  17.4936907
  47.4349324   5.6416450  18.9924769  54.2713274   9.1156203  19.0552179
  54.7310322   9.3876397  18.2253107  54.1434771   8.1471352  18.8167735
  46.6639713  -2.7168133  15.1052845  45.8641470  -2.9304077  14.5362731
  47.3798297  -3.1824815  14.6045931  48.2154933  10.7464158  29.7529860
  48.7807463  10.1774780  29.1837788  48.3415979  10.3799725  30.6244038
  47.4165214  -6.2572996  19.2504663  48.1078405  -6.1455973  19.8942190
  46.7214238  -5.6780674  19.5373819  42.3403711   4.1828312  16.4382022
  42.8355502   3.7756211  17.1973298  41.6965963   3.4053329  16.3894637
  50.7346231  12.4912087  21.6810325  50.1801945  11.8110785  21.2117819
  50.8703650  12.0757866  22.5697592  59.2484494   9.4512622  31.3358294
  58.6987587   8.7402233  31.7697397  59.9462549   9.5132543  31.9453428
  46.4959267   4.6231146  29.4192289  46.6137791   3.7334222  29.1184565
  47.3510558   4.8621866  29.7713890  36.4035230   2.2668653  21.7628641
  35.8489463   2.5833792  20.9775060  35.8595433   2.7120346  22.4557670
  60.5255704   7.6352267  14.9546269  60.7539621   6.7742952  15.3759342
  61.3530469   8.0272515  14.7448283  57.7460158   3.2635489  29.9941326
  58.3791230   2.8705850  29.3052910  57.6458037   2.4374921  30.5560304
  38.6088717   4.0051617  25.0854514  37.6324808   4.0253047  25.0984293
  38.7897808   4.9341255  25.2957257  36.1134070  -1.5619207  35.1169351
  35.6855884  -1.9690974  35.9186545  37.0219368  -1.7316394  35.3534706
  59.9516755  11.7951376  34.8633187  59.5769797  11.1375708  35.4320622
  60.4856653  12.3038569  35.4869037  41.7335459  -4.4239735  38.0308998
  42.2728724  -3.8528377  37.4076691  40.9325981  -3.8368806  38.0546289
  44.4753881  10.3578194  32.0726204  43.9455842  10.3287212  32.9434210
  45.3100838  10.7279716  32.4244238  56.4598066   8.0247371  23.9090392
  57.2683914   8.5637635  24.1013816  56.1815807   7.8219101  24.7806863
  59.1693574  17.1739301  24.6715544  58.2677085  16.9106014  24.9371761
  59.7480171  16.8835647  25.3711161  33.9497848  -6.3011935  30.5101592
  34.1886670  -6.4474882  29.5870066  32.9749702  -6.2158968  30.5093324
  47.7081443   7.1953316  28.3351602  47.6263723   7.0918075  29.2828247
  47.3821122   8.0574690  28.1753765  45.3709433   5.5641376  26.9746124
  45.9952345   6.1728768  26.4544914  45.8776634   5.4364122  27.7830016
  63.9043028   6.2598552  28.3134351  64.5250127   6.3548602  29.0890115
  64.4551491   6.6655429  27.6394879  42.7860490   2.0472008  18.2539972
  41.9244797   1.8995937  17.8455901  42.5917073   1.5903472  19.1439123
  41.0324477  -0.1785549  36.0404267  40.4161858   0.1470971  36.6947681
  41.6090275   0.6035996  35.8975594  39.4789614   0.6154169  42.7543707
  38.7683305   0.4117866  43.3485425  39.0238767   1.1824837  42.0722804
  46.3860053   8.3630234  31.1641497  45.6211398   9.0000796  31.2893281
  46.7271776   8.3453278  32.0219736  49.3335327  10.8183622  35.2436456
  49.2149454  11.5332520  35.8918128  49.2824005  10.0734303  35.9030599
  47.5084070   2.1944401  28.9912415  48.2125740   2.5787027  28.4723102
  47.3734924   1.3431092  28.4940070  41.5478740  13.6531540  35.0918689
  40.9975411  14.0038653  34.3439267  40.9299478  13.0971927  35.5491099
  47.5385013  15.9235669  27.0719030  48.4747206  15.7074348  27.0721498
  47.3086794  15.6610987  26.1597114  40.3804461  -0.5901948  23.4390852
  40.6973203   0.3095463  23.5966168  40.3775754  -0.8970115  24.3785069
  50.5780754   6.3221366  29.4203190  50.2298059   5.5290782  29.8800022
  50.7716927   5.9061168  28.5361551  55.7565317   5.9065863  21.9766320
  56.0082095   6.6714021  22.5516919  55.6885701   5.2122672  22.6813285
  36.9510537  -7.0459814  30.8043667  37.0441772  -7.5342165  29.9427746
  36.5936620  -6.2057542  30.3702056  49.0257781   3.5372771  36.8330460
  49.6082884   4.3197771  36.8065982  48.4071495   3.7781085  36.1010161
  40.6071311  -6.0404332  43.0720774  40.1759856  -5.2346164  43.3780578
  41.3829347  -6.0733640  43.6526599  41.0068861  15.8620003  28.7579552
  40.6701424  15.1185902  29.2591043  41.0757371  15.5010585  27.8529247
  56.3684448   0.7605987   9.9601138  57.2017418   1.2018766  10.1462747
  56.3247068   0.0831585  10.6257243  49.6413699  -0.1531349  27.0669375
  49.8478849  -0.9957087  27.5292467  48.6829127  -0.1216548  27.2031489
  41.7055377   7.8173602  31.4410973  42.1971423   8.1368169  30.6906098
  40.7673512   7.8354756  31.1144978  32.5010621  -3.2014933  29.5464234
  32.4251242  -3.6112259  30.4340219  32.0638700  -3.8541791  28.9790058
  50.6736592  26.1387945  16.3029420  49.7268477  26.2643150  16.2685720
  50.7835891  25.1926353  16.4959612  59.0411415  19.9166774  12.4384803
  58.8225492  20.8245189  12.7549678  60.0057616  19.8939248  12.4840346
  57.2262915   9.6768734  38.1428128  56.9873317  10.3553317  37.5074082
  56.6010746   9.8317431  38.8730650  43.8072576  15.7273415  32.9929120
  44.3381729  15.3289976  32.2713620  44.0364754  16.6504766  32.9243897
  50.0715155  -1.7689308  20.7071010  49.2541522  -2.3281417  20.6881747
  49.7442485  -0.9156115  21.0313449  50.0462453  -3.3119870  28.8440128
  50.9531325  -3.1789587  28.4457565  50.0753437  -4.3299697  28.6620415
  70.4601919   7.6226024  35.4473986  70.2001415   6.7440591  35.7418534
  71.4321203   7.5136412  35.5743102  39.7913435   6.4959841  25.9337864
  39.2842046   7.3432476  25.7440497  40.5486311   6.8426023  26.4231422
  48.4620280   5.9559058  23.8437264  48.8441639   6.3172259  24.7272440
  48.7670080   5.0023959  23.9902952  56.0999834   0.6921740  38.1739488
  56.2561540  -0.2417582  38.2305322  55.1395568   0.6845580  37.8350867
  57.9617929  13.0085413  25.2881326  58.6832341  13.4319338  24.7813735
  57.4212856  12.6705506  24.5516271  51.2989485  10.4512625  19.6981494
  51.6680898  10.9677830  18.9366963  52.0328836  10.4459130  20.2909134
  43.0036221  11.4425799  30.2093065  43.5905071  11.0704313  29.4968063
  43.4677094  11.0332929  31.0053074  22.8954814   8.3724836  20.1548112
  22.5250130   7.5477147  20.5273910  23.5729344   7.9953393  19.5433955
  44.9689437  16.9522765  21.0567981  44.5999258  16.5969343  20.2353346
  45.9178630  17.0220290  20.7377371  38.0115095  13.3399402  25.1737231
  37.7212120  14.2587311  25.2790088  37.2668848  12.8527462  24.7883412
  45.5046099  17.3745814  31.4302693  45.8042243  16.5733213  30.8540542
  44.6681307  17.5338874  30.9564948  38.9567697  -2.6775223  37.7386681
  38.5603324  -1.9500236  37.2438570  38.3041635  -3.3935443  37.4889819
  32.3963939  -0.2011641  37.2679867  31.6058608  -0.0916887  36.6335898
  31.8734962  -0.4407806  38.0847906  50.7294559   2.0152314  29.6974231
  50.6727949   1.9385947  28.7366522  51.2431813   1.1938676  29.9322622
  27.2480578  10.0279986  33.7264244  27.5377031   9.0775328  33.9023785
  26.8224105  10.2537367  34.5642246  37.7872954  16.0781158  31.2279578
  38.2090171  15.2289327  31.5421714  37.6080084  15.9210795  30.3559180
  38.4039649   6.1815464  33.9571739  37.4437947   6.1899170  34.1361924
  38.3749695   5.8545636  33.0233765  44.2620296  14.8823776  28.1893307
  44.8852461  14.3677517  27.5925628  43.4199558  14.7091855  27.6010389
  32.2242228   1.4055802  20.9339176  32.8560378   1.0202059  21.6027995
  32.2052921   2.3515663  21.2585917  48.2567375  12.8343469  26.1735697
  48.2043034  13.7400029  25.7077523  48.3036507  12.2829290  25.3651515
  46.6780626 -14.2068382  11.4074400  47.1262679 -15.0966792  11.2409196
  47.1022165 -14.0160446  12.2556336  51.2740548  12.0037574  24.1714266
  50.4017897  11.8719036  24.6257211  51.8381706  11.4601916  24.7545432
  47.5539726   2.9766330  22.4332626  46.5934120   2.9402124  22.5799740
  47.6026317   3.5948918  21.6758807  37.7209108  11.1036684  34.4473427
  37.1637111  11.7117434  33.9863419  37.0174423  10.6745265  35.0331679
  60.9807616  17.7089761  15.3681684  61.7838367  18.2195949  15.2162407
  61.2206487  17.1848765  16.1611577  48.7917749   0.6051425  21.5842173
  49.5996657   1.1512170  21.6551373  48.1435884   1.3514951  21.7683347
  34.7930045  -6.7140353  34.8269650  35.0597778  -5.7711293  34.6650112
  35.2178146  -7.1125681  34.0612524  52.5872410  12.2350121  14.8491585
  51.7239458  12.4512157  14.5028532  52.7295308  11.3717830  14.3372096
  48.5944067   7.7258560  33.4152414  49.0697876   7.2898401  34.1617651
  47.6914837   7.7740905  33.7890622  50.1290757  15.8636642  28.0620578
  50.9198253  16.3737520  28.2522403  50.4466086  14.9889158  28.3458298
  28.3112519   7.5129463  13.7369945  28.5339543   6.8709699  13.0167589
  27.8980652   6.9441782  14.3753693  47.7855887  -2.0840427  29.7512192
  48.0282363  -2.1049437  30.6904769  48.6089086  -2.4119232  29.3344910
  39.5223240  -3.5064399  28.5472959  38.7068375  -3.9596039  28.6292987
  39.2896111  -2.6471878  29.1005698  46.1102789   2.6978687  25.5872988
  45.5067011   3.4017487  25.8335617  45.5512766   1.9161909  25.3861273
  39.7821283   7.8552417  35.5877735  40.1433726   8.5085038  34.9593830
  39.3849072   7.2114701  34.9276013  51.7613250   8.9452289  35.2164658
  52.5289001   9.4576303  35.5117265  51.5511568   8.4633436  36.0246214
  40.9297533   5.0675958  22.3581258  41.1552758   4.9204986  23.3484920
  40.5916416   6.0017703  22.4411612  33.9554433   5.8422859  38.1393175
  33.2951389   6.5813292  38.1394844  34.7269323   6.3560974  37.7204475
  41.8154829  -7.7318839  41.1328548  41.1419785  -7.2118483  41.6160485
  41.7652639  -7.3163736  40.2616309  55.1777600  11.5934740  25.4300516
  54.3991531  10.9609621  25.3127474  55.3659191  11.4166689  26.3401470
  47.0701235   2.8287403  13.2106161  47.7209746   2.6703337  13.9218803
  46.3672175   3.2952584  13.7629997  45.4680984   0.0844093  30.5491695
  44.8355071   0.4611191  29.8568052  46.2557825  -0.1304194  29.9900527
  46.7507922   6.6249619  21.9291200  46.0749523   5.9064066  21.9425775
  47.3674392   6.2547469  22.6333373  27.9959075   3.2614137  23.1287301
  28.6556528   2.8242178  23.6657878  27.7186624   3.9328862  23.8218324
  40.9470695  22.1202567  22.0176371  41.7885288  22.4954116  21.6356929
  40.3151355  22.8233509  21.7803932  54.2419042  -3.5901126  24.5332319
  53.6864630  -4.2367207  24.0314040  54.9052788  -4.1688090  24.9383526
  46.3456119  30.7905748  10.3914740  46.3382327  31.5716329  10.9947020
  46.9882033  30.2107761  10.8652035  64.7717144  -2.1732550  25.2251936
  64.8093912  -2.0602281  24.2303143  64.5892629  -3.1060682  25.2894039
  57.4942592  17.2763866  16.7713374  56.5804872  17.0726403  16.5780496
  57.8877674  17.3447345  15.8834066  53.4166548   2.8989547  30.0006712
  52.4755662   2.5955231  30.0927799  53.8864566   2.0862908  30.2774249
  45.2302636  10.5152954  37.7858493  45.0348993  10.9225592  38.6303686
  45.6975208  11.2624889  37.3569264  51.6421919   2.0730757  13.6000623
  52.2241609   2.5692205  14.2571780  52.3117366   1.8122406  12.9128034
  29.4963950   4.3312740  28.6026168  29.8311405   4.6006645  29.4817778
  28.7138997   3.8354204  28.9223989  39.2434464  13.7822343  32.1601498
  39.8259148  13.5622888  31.4185549  39.7489405  14.5743877  32.4955424
  36.7221069  -9.3282739  39.4251160  37.0014904  -8.5044816  38.9802361
  36.0279003  -9.6851388  38.8501821  46.7257130  -1.6771227  35.0177321
  46.3368854  -0.9958789  35.6056795  46.0129060  -1.8877890  34.4031848
  50.0972866   4.7457794  33.0487031  49.9015361   5.7106256  33.2318906
  50.9791891   4.6866776  33.4265206  48.6390335   3.4943928  24.8773882
  47.8436797   3.3836685  25.4491443  48.2480546   3.0620675  24.0731905
  36.3579124  11.0861095  37.0895700  37.2596138  10.8134345  37.2979205
  36.0012711  10.1962968  36.8078851  41.4799756   7.7422760  28.0580490
  41.1900028   8.5823352  27.6220021  42.3977472   8.0525947  28.3948641
  31.0080071   5.4066191  31.8372735  30.7217158   5.7964767  30.9751432
  30.5200719   4.5614349  31.8425035  48.6964829  17.6453871  22.1468084
  48.2988044  17.1864106  21.3756273  49.3390477  16.9653423  22.4608362
  41.6531377  -3.3555393  19.2430501  41.6377986  -2.8306419  18.4167696
  41.8389674  -2.6651121  19.9220283  37.3698272  23.4434460  37.6488986
  36.4615901  23.7959229  37.6096644  37.3289496  22.6551534  37.0950196
  40.6688200  12.6654867  25.2540745  40.9863663  12.7841958  24.3921759
  39.7392257  13.0038061  25.2219378  43.3835076   9.8188245  13.8707495
  44.1030909   9.7074387  14.5126216  43.7437679  10.5811643  13.3436029
  40.2720373 -12.4850212  39.8959656  39.5622327 -11.7242892  40.0017911
  40.0978955 -12.6119437  38.9250029  40.9920273   3.4540450  33.9512948
  41.6356212   4.0135090  33.4321228  40.7765377   2.8112306  33.2156937
  39.1743701   9.1478753  29.0754240  39.4104744  10.0156189  28.7894714
  38.8344710   8.7299762  28.2763805  44.2073757   9.2341666  35.3957994
  44.5539766   9.5490052  36.2604293  43.4901446   9.8220380  35.2267307
  31.4665242 -10.1268047  43.4256712  30.6900555 -10.4386075  43.9507255
  31.4107750  -9.1673748  43.5818194  57.3085977  23.2878271  20.3895816
  58.1962184  23.5893576  20.5299096  56.8016835  24.0975482  20.3145088
  62.5557232  15.6259855  24.1713773  62.9534018  16.4467527  23.8645620
  62.4926061  15.8661263  25.1369939  60.8763332  11.0828884  21.9988593
  61.2671435  11.6511471  21.3280181  61.5677606  10.3837128  22.0549563
  55.7912511   3.0608345   1.8253021  56.6980162   2.8654616   1.7133405
  55.3719823   2.4377638   1.1743845  59.4038373   7.0390088  23.4827321
  58.9141603   7.8568538  23.7778865  58.8428764   6.3472584  23.9702933
  60.2498562   2.0690222  33.8843204  60.5839729   2.8128598  33.3526104
  59.9467465   2.5746596  34.6804461  63.9298807  21.6871949  16.6746419
  63.3146690  22.2723085  17.1914301  64.5526975  22.3520156  16.3412995
  53.5468750  10.9418353  35.3050067  54.2861395  10.9986603  34.6642252
  53.8993017  11.6433645  35.9826661  56.3300540  11.8735911  23.1482836
  55.8432456  11.9182601  23.9904160  55.6594439  11.4853535  22.5861370
  63.3956331  12.8448102  24.3032606  62.8880605  13.6766161  24.0798250
  64.2376952  13.2280692  24.6251822  45.9778660  11.0833389  40.5446240
  46.4620781  10.2318780  40.6341856  46.7396514  11.6868759  40.4050428
  52.6916176   5.3717734  33.7157021  52.9177196   5.2641923  34.6663892
  53.4499913   5.0837937  33.2284425  50.4054120   1.1608414  36.8253024
  49.9167397   2.0210507  36.7758229  50.5221690   1.0165288  35.8562462
  49.5347197  12.6653752  14.9322835  49.7852683  12.8968928  15.8525914
  49.3114272  11.6813302  15.0893636  62.7053713  19.0594679  18.9426518
  61.7685625  19.1365107  19.2545628  62.6417209  19.7171507  18.2090346
  50.0353389  10.6686518  26.2091185  49.7880835  10.0257969  26.9168985
  49.9950298  10.0434234  25.4659188  48.8909126  10.1236405  21.7908516
  49.1190818   9.3870562  21.2033932  49.3652031   9.7440729  22.6303262
  61.8097629  22.6830720  18.0693051  61.2669315  21.9004553  18.1084442
  61.1066695  23.3870970  18.1857274  63.7141521  15.1251713  21.4761169
  63.8580866  15.8705249  20.9159944  63.2252058  15.5474792  22.2046890
  51.1231026   1.9880179  26.9866857  50.8047731   1.0615784  26.8470409
  51.6822337   2.1129067  26.2328272  46.2788299   8.3014769  38.4638225
  47.1313807   8.7198185  38.1615621  45.7291153   9.0725502  38.1597358
  51.9711068  17.7673586   9.9080853  52.9352781  17.6332872   9.5612160
  52.0062181  17.1267708  10.6197779  31.8214661  16.9054114  42.4694227
  31.5279434  16.8418007  43.4615984  31.9453346  15.9641500  42.3300187
  54.3301351  11.0916300  21.2597155  54.1391308  12.0306939  20.9571338
  54.3693551  10.6292271  20.3838091  62.9008126  19.6088623  24.6858214
  63.0989179  18.9541235  23.9899137  63.7832126  19.5869687  25.1876797
  56.5344447   2.7036283  32.6561397  57.0267454   2.3613387  33.3719705
  56.4742940   1.9207401  32.0443078  47.0596519  18.1479361  16.9706359
  47.0100453  17.2640606  16.5244124  46.1191435  18.2431283  17.2758724
  35.2424915  17.8509480  23.4006692  35.4376048  17.3515223  24.2504221
  34.2260551  17.7582966  23.4994702  52.6958283  14.3671390  23.3277463
  52.0344699  15.0400070  23.5823478  52.3817394  13.5634877  23.8017333
  49.4608948  14.7578231  22.0870865  49.0903337  14.6502185  21.1995452
  49.9052920  13.8315595  22.1126897  62.0739727  16.6829724  17.5634829
  62.3327993  17.3875790  18.1659301  62.7434577  16.0128743  17.7989806
  55.3560923  14.9609157  22.5220531  54.4789473  14.8008980  22.7858710
  55.8329798  14.1686772  22.8289271  54.2044761   7.2651322  14.1679900
  54.8473654   7.0333223  13.4285357  53.4502436   6.6830324  13.9347453
  50.3332563  12.9952137  27.9692697  50.7345057  12.2554615  27.4666923
  49.5118428  13.1285085  27.4489497  53.0256802  14.9112147  18.1215980
  53.5826519  14.5182537  18.8143586  53.6410652  14.9792642  17.3740562
  59.9136023   3.8298994  36.0305438  59.9667186   4.7608158  36.1453620
  59.3663389   3.5367656  36.7862444  52.8243383  10.4783982  26.0731437
  53.1030965   9.6852454  26.6203001  51.8374728  10.3722233  26.1106733
  67.8547802  16.3847231  27.4791406  68.6123298  15.6824934  27.5957875
  68.2240410  17.0338954  28.1136239  52.9451514   5.6274004  36.4461224
  52.5494886   6.4890716  36.6412578  53.6946592   5.6144139  37.0520391
  76.1559607  26.3967275  22.8788151  75.7280698  26.3941783  21.9692555
  76.4598290  27.2925343  22.9968590  66.8511599   6.7548112  24.0563534
  67.0918890   6.3981970  23.1828456  67.7960780   6.9332797  24.3805415
  56.6221934  20.1896457  19.5093512  56.8254386  20.4157770  20.4436888
  57.0805891  19.3112255  19.5091020  62.0157872   1.9779534  28.4655348
  62.4600157   2.6160462  27.8490965  62.3641888   2.4082917  29.3425438
  55.9126632   4.3631612  24.1158669  55.6682439   3.4353863  24.2364608
  55.2787582   4.7597441  24.8088433  48.8259452   9.9459195  14.9079787
  47.8905227  10.0768134  15.2184151  49.1086057   9.3539051  15.6366888
  60.7480194  16.2997612  26.9142282  61.1325937  15.5700044  27.4307579
  61.5290627  16.8491876  26.7711799  48.3284107  11.4441546  18.9260963
  48.9578718  11.4077792  18.2009647  47.9703201  10.5108019  18.9137782
  60.3867734  17.3090740  22.0508376  60.1430845  16.3677791  21.8818718
  59.9552606  17.4422783  22.9147061  65.3460314  15.4955078  27.7732948
  65.0924116  14.7252697  28.3982907  66.2469573  15.6071617  27.9024622
  70.9255056  16.3554781  30.0606721  71.6405706  16.2356231  29.4019554
  70.6874583  15.4518707  30.2489979  59.6294615  15.4845894  18.2699581
  60.3330041  16.0384944  17.8444643  58.8215252  15.9046767  17.8507527
  66.2761088  13.7606880  22.0977794  65.6524583  14.4879198  22.3002556
  65.6943293  13.0105152  22.1042868  74.2833231  16.5103422  23.1255169
  74.7894434  16.4330523  23.9441525  74.1568509  15.6026990  22.8701220
  48.4093324  17.8157566  29.8109447  49.1038432  17.4181435  29.2650709
  47.8354827  17.0804928  30.0440265  58.4075433   4.8347114  24.6063229
  58.7974200   4.0101639  25.0075451  57.4729158   4.5575275  24.5165723
  62.2234070  11.2342603  16.1293963  62.6524080  10.4071825  15.9967367
  62.8398178  11.8966386  15.7899121  76.7539327  45.9352736   6.6326072
  76.4030887  45.3253834   7.3372081  75.9444649  46.4930892   6.4531378
  59.0730565  35.9447200  15.0400868  59.4547290  36.3966922  15.8156196
  59.0538351  34.9977042  15.3496361  59.8918168  40.9097892  21.4184289
  59.8209717  40.4408001  20.5107893  60.3909151  40.2060047  21.9037966
  65.7986408  32.7336042  22.4195446  65.9859564  33.6262565  22.2099184
  66.7088798  32.3783530  22.6738626  68.3650229  27.3735216  34.2538556
  67.6028906  27.5024816  34.9063614  68.6937317  26.5320164  34.6539848
  68.7154123  27.0199849  25.3739865  68.8602576  26.1430808  24.9207906
  67.9005839  27.2904665  24.8288938  70.2323934  26.6827563  18.2480058
  70.9503058  27.3187426  18.0545754  70.2228138  26.6933492  19.2389217
  58.6628211  36.2872958  22.8260086  59.4322398  35.7780933  22.4706553
  58.4611888  35.7999177  23.6464622  69.6684513  35.8221242  19.8191521
  68.8202759  35.3385486  19.8737962  70.1673452  35.3132346  20.5342379
  68.1898038  30.1992268  24.8082568  68.0097347  29.5254274  24.0981600
  69.1361774  30.3283996  24.6114180  68.7302106  41.5860895  24.3927153
  68.6833297  40.7238570  24.0033857  69.0931085  42.1698787  23.7235027
  72.5132413  26.3482373  39.7593067  72.7114132  26.9684691  39.0042039
  73.3332665  25.8012027  39.6930633  66.5789692  28.1682820  32.2128400
  65.8706301  27.8089880  32.6879253  67.3183374  27.8036421  32.8619139
  67.9753923  22.7793136  29.6015520  68.6033754  22.3107471  30.2488546
  68.4563023  22.6682817  28.7909763  78.3341112  32.2082347  25.7171670
  77.6266760  31.9471179  26.4122960  78.4178437  31.2455271  25.4388107
  70.0202861  28.5814532  32.5867191  69.3566068  28.1683832  33.2183066
  70.5610137  27.8176020  32.3643050  68.9159330  37.6559258  36.0640505
  68.6446643  36.8091375  36.4149278  69.3390879  37.3917783  35.2503328
  80.9303095  23.4211938  29.9183054  80.8783852  22.9541844  29.0870493
  81.8357294  23.3677487  30.1800689  65.1443293  48.5966422  25.6599281
  64.8263322  49.5178572  25.5387747  65.8608880  48.8210393  26.3232835
  70.4449872  32.1584516  27.7571445  70.2946073  33.0036903  28.2099251
  70.2070004  31.5372262  28.4934208  66.7768567  32.1262461  26.2100406
  67.6520954  31.8590526  25.8611290  67.0871872  33.0429719  26.4450484
  69.9154073  34.6652154  28.7556881  69.2294293  35.0060721  29.4444712
  70.3830939  35.5433894  28.6387618  79.0811225  33.6015561  20.4132232
  79.5268610  34.0043588  19.6339267  79.7848575  33.3760694  20.9805508
  71.7623672  22.3256124  31.1175490  72.1459818  22.3251275  31.9823490
  70.8883242  21.8650970  31.3068977  74.6137056  37.3697700  12.5431355
  74.7634622  37.7293396  13.4099688  75.1143853  36.5064842  12.6686744
  76.1952454  44.8378385  15.8064840  77.0041353  44.4716979  15.2905281
  75.6163202  44.0341875  15.7113270  65.7584935  18.8221595  16.6406656
  65.4448120  19.6530068  16.9613146  66.3622188  19.1033323  15.9046151
  76.7289913  37.4910382  21.6605106  76.9248664  37.4053279  20.6628961
  75.8533629  37.1246721  21.6598403  69.7027571  38.6760156  27.0621370
  68.9231475  38.0190368  27.2257930  69.2706491  39.4015633  27.6179444
  67.3230247  24.3919925  31.8645877  67.1562960  23.7243321  31.1620795
  68.0893993  24.8524151  31.4856952  70.8089531  30.9159042  24.8865784
  70.6659267  31.1106309  25.8123453  71.0375955  29.9258551  24.9523856
  72.5706306  28.1168069  20.1166187  71.9541861  28.7511169  19.6313109
  71.8872587  27.5992982  20.6013952  67.8499012  34.1316070  12.4688259
  68.3697896  34.0045777  11.6177338  67.4256601  35.0082721  12.2259189
  73.6967623  46.5116716  25.4317244  73.1009452  46.1325216  24.7308100
  74.0112441  45.6979381  25.8570645  74.4613496  37.5179353  24.7566841
  74.0375081  37.3811853  25.6172649  74.6624407  36.5530084  24.5459456
  81.3949714  34.8208205  30.8683600  80.4195806  34.9159207  30.8237166
  81.5427113  35.0271960  29.9025377  66.0681723  54.7065271  23.4556226
  66.9635801  54.7086500  23.0990259  65.8048665  53.7492309  23.2396681
  63.3379306  29.5085059  15.7677277  63.7881576  30.3052451  15.3502919
  64.1559475  28.9826651  15.9945223  69.1971217  48.9077903  27.0293122
  69.0148176  48.0129056  26.7287032  70.0705415  48.8637200  27.3998133
  69.4769053  37.6607382  10.9749305  69.5181553  37.5192020  10.0448258
  70.0434499  36.9460613  11.3110395  71.5778872  37.4504013  31.2352006
  71.5101578  38.3650181  31.4797167  71.3594504  37.3408939  30.2921427
  67.8930159  44.2853782  21.4247894  67.1208511  43.8890731  21.0705624
  68.4125184  43.4717079  21.7143273  74.4219391  23.1411634  24.6354567
  74.4887037  24.1426621  24.7208007  74.5844231  22.8325295  25.5008310
  77.2904636  37.4145148  18.9783665  76.4474431  37.2601998  18.4948114
  77.7610114  36.5877040  18.6709143  68.4751373  27.4896250  16.5468388
  69.0377308  27.2036270  17.3017921  68.2713640  28.4324576  16.8569435
  74.2163189  34.1254681  21.9223108  73.6213464  33.3839580  21.9167989
  74.4218839  34.2102639  22.8827751  77.6217088  27.0783369  27.1919612
  77.0925712  27.7534814  26.7625688  77.3185830  27.0461424  28.0833462
  71.5525702  46.7895878  19.6118380  72.2474483  46.6210830  18.9437205
  71.3960402  45.8856812  19.9703875  66.9232378  43.1411919  25.9217479
  66.0640720  43.1728125  25.4394937  67.3149845  42.3569233  25.5526266
  65.8905840  44.8162079  52.6312300  66.4592964  45.1741854  53.3689962
  65.9569916  43.8434141  52.8255004  66.5235164  49.0828195  29.8356709
  67.4844111  49.4076198  29.8850942  66.5740598  48.4533237  30.5752247
  71.2914455  45.4232233  36.7378412  72.2373192  45.1841633  36.8925896
  70.8487897  44.5913605  37.0091514  70.3397280  31.0006512  30.2192179
  70.8682564  31.4943028  30.8421751  70.1692765  30.1863167  30.7593889
  79.0421059  44.4649927  20.9256624  78.6859919  43.5589682  20.9247463
  79.4152013  44.4811668  21.8128039  66.1423818  30.0132573  20.2925138
  65.3701380  30.5852745  20.2408619  66.8729765  30.6100393  20.5397382
  66.7538167  47.2027015  23.4536998  65.8938005  46.8394769  23.2592331
  66.8102258  47.1958167  24.4117506  73.0515026  33.6296711  28.6022778
  73.7549406  33.0801752  28.9751686  73.5888641  34.4631323  28.4555803
  61.8887847  40.5568917  24.4750004  61.8711565  39.9193143  23.7235258
  60.9001011  40.7419428  24.5062004  79.6531529  28.3639645  34.9520661
  79.4686057  29.1545324  34.4172216  80.3931044  28.6780456  35.5271073
  72.4413003  34.7967189  16.8951226  71.9003941  35.5118963  17.2380691
  71.9860052  33.9633036  17.2385394  74.5692785  34.7336958  24.5014002
  73.8258100  34.2580541  25.0012982  75.0519990  35.0835098  25.2454828
  75.3618962  33.2079608  30.1498732  75.8141724  32.5311013  30.6446690
  76.0760045  33.8624512  30.0227352  70.7044819  34.6543272  21.8006441
  70.9482846  33.6774796  21.9063353  70.4745725  34.8102041  22.7395574
  71.6361023  24.1276034  27.9584798  72.5667036  24.1125692  28.2418243
  71.6472245  24.8172097  27.2989216  67.1667211  38.7495297  23.5509448
  66.7506241  38.3896265  24.4538687  66.4456892  39.3850918  23.3792815
  76.0908002  28.1828157  43.1847454  76.0730065  27.2564587  43.5341981
  76.9734458  28.4726143  43.5887309  66.9254344  14.6987317  31.0284211
  67.1831236  15.6281609  30.7450556  66.1707756  14.5613826  30.4629694
  75.5879841  33.6033061  16.3697920  75.8788185  33.5042775  17.3006184
  76.2230701  32.9266258  15.9070170  70.0896805  34.7081588  10.8822890
  70.1973933  34.3427808   9.9925092  70.8953962  35.2006299  11.0687175
  82.6411566  27.9210756  34.9895805  82.8248413  28.3761259  34.1213621
  83.2533901  27.1098289  34.8220020  66.7361369  36.6853559  11.8564606
  66.4610466  37.1659578  12.6567755  67.4845660  37.2149941  11.5895504
  82.5668327  27.0234252  38.5228460  82.6048656  27.9784809  38.4134808
  83.5376865  26.8514475  38.3866151  78.9046137  19.4994774  31.7439462
  79.7987246  19.8211697  32.0560719  79.1567450  18.8755773  31.0743328
  75.2424623  25.6940199  25.2121469  75.2677094  26.4857888  25.7943890
  75.5434107  26.0689668  24.4194630  79.2806884  25.4670492  30.5601457
  79.4121856  25.5424968  31.5340109  79.9546726  24.8160696  30.2652568
  65.5577403  21.6054732  11.1894009  66.1235867  21.4488433  10.4030303
  66.1987874  21.9460396  11.7968285  75.1151509  25.7860680  12.3178321
  75.9362598  26.3378035  12.4896763  74.9536853  26.0593437  11.3736710
  68.3948978  24.5936238  34.4595315  68.0470093  24.5164497  33.5722650
  68.5472766  23.6843975  34.7940335  68.2128664  14.6416019  24.0938342
  69.1111897  14.3102535  24.1276252  67.7616746  13.8895389  23.7259214
  70.0415481  24.7798688  30.9370005  70.5026992  24.2103274  30.3256038
  70.8026072  25.4297781  31.1728193  80.5796499  28.5446545  27.0837217
  80.9346151  27.6961827  27.4725551  79.6393561  28.2577913  26.9294809
  71.2510178  37.0380625  28.5683035  72.1849592  36.9802144  28.1805752
  70.8224718  37.5907093  27.9122271  78.6069948  34.8773133  30.5909824
  78.6217796  34.5299552  29.6590703  78.0763172  35.6682660  30.4521235
  70.7243627  35.3286201  24.6646625  71.0632975  34.5252380  25.1400157
  71.3998007  35.9771923  24.8022050  68.1906434  31.4478280  21.6632134
  68.2824285  30.5200021  21.9925476  69.0668720  31.7675382  21.7891231
  81.1509343  39.2181843  24.4568735  81.1604589  39.9694926  23.8257165
  80.3649832  38.7347125  24.1430361  79.7074071  38.6507467  22.3802407
  79.5058965  38.6447080  21.4291988  80.5861510  38.1919072  22.3566744
  75.4786219  21.5205552  34.6819397  75.5119799  21.2046810  35.6122850
  74.5280511  21.5834816  34.4725596  82.6190365  49.1824294  28.3254574
  82.6106275  49.0134372  27.3393377  82.8671635  50.1130425  28.3014881
  71.7202594  59.4290374  36.1787122  72.5879565  59.1443428  35.7806521
  71.9261696  59.3039696  37.1174296  65.5634267  56.5625736  25.3254693
  65.7833474  55.7701719  24.8057358  64.6383697  56.7272945  25.0076140
  73.0045220  51.1258057  39.8537032  72.6304905  51.9251704  40.2897662
  73.7029217  50.9299531  40.5031362  72.8409109  60.4626942  33.8894176
  72.3941222  61.3480661  33.8865066  73.5475600  60.5629337  34.5151504
  95.2384509  47.1312739  18.8258680  94.2985523  47.3665034  19.0075362
  95.4670863  47.7487089  18.1501319  72.7334034  50.8437401  23.5592411
  72.7022003  49.9274961  23.5094390  73.3692699  51.1463484  22.9277846
  68.5969910  54.0894821  36.0215898  67.6462644  53.9846970  36.3045356
  68.9097591  54.7019619  36.7223837  64.5422560  43.1730790  24.6495724
  63.7073045  43.2665104  25.2242454  64.5159772  44.1164197  24.2588029
  79.4445958  51.5856113  10.9184719  78.8087056  52.0583835  10.3963147
  79.0416141  51.6223723  11.7848098  73.6943195  36.9422400  27.6126108
  74.1114575  37.8812841  27.7432187  74.4267644  36.3714184  27.7963105
  87.0496569  49.9035491  21.1356998  87.1672645  49.0636102  21.6609725
  87.6933588  50.4912932  21.6515509  73.5233407  55.4972601  24.9697471
  74.0326010  54.9168719  24.3814377  74.1202899  56.2692559  25.0825213
  89.4402557  42.9178810  31.3645436  89.7059571  42.0372917  31.6583990
  88.5427184  42.9192881  31.8124153  79.9175811  39.7528549  17.0623850
  79.8556005  40.7198464  16.9441946  79.5928835  39.4410458  16.2090679
  81.3733127  50.8985072  35.9085053  80.6325688  51.4329965  35.7414302
  81.1003401  49.9948312  35.4966843  75.1639329  60.2997676  28.8190724
  75.4294536  59.3667809  28.5586671  75.7714677  60.4325026  29.5903051
  73.3103701  30.5025751  21.5331124  73.4767546  29.5778059  21.3203491
  73.3970518  30.9213557  20.6524405  64.1688839  46.3079354  24.6496844
  63.4248731  46.1465389  25.2619062  64.5158805  47.1654878  25.1097952
  87.2176544  60.8819839  34.4754070  88.0339991  60.3649177  34.5546584
  87.4954120  61.3500869  33.6002575  80.2484557  48.6120584  42.2681635
  80.5442277  47.7139807  41.9254148  80.8509717  49.2186020  41.9046717
  68.6413550  48.7785234  34.1883138  69.4729174  48.2440428  34.4069511
  68.2276124  48.7998156  35.0715434  77.7753322  65.8298182  36.5965009
  78.0393763  65.7538216  35.6291648  78.3463605  65.1332159  36.9676371
  70.0756568  53.2805141  25.7337960  69.2965656  53.7680982  26.1027446
  70.7587103  53.6186574  26.3420863  78.6194770  47.4412196  32.6983633
  78.7487963  48.0576727  31.9663725  77.7704262  47.7587440  33.0741533
  71.3286741  54.2027625  33.1540462  71.6334349  53.4633260  32.5881346
  71.8358468  54.9523616  32.7129912  83.3658930  55.5034780  32.9299304
  82.5715165  56.0390214  33.1496010  83.5306849  54.9879664  33.7806380
  83.6931829  41.3565539  28.3536091  82.8538608  40.9646346  28.1379810
  83.5671760  42.2469295  28.0067399  74.5133137  48.9430602  17.6054827
  73.9677535  49.0128771  18.4616640  74.6669329  47.9770169  17.5523998
  69.7682239  50.6526845  32.4671305  69.4250641  49.9464526  32.9775599
  69.8565708  51.3380990  33.2108061  84.2416440  46.6844645  24.0931303
  83.4342300  46.0785026  24.2879259  84.0586724  46.7671439  23.0865665
  76.5189493  38.2068306  38.9016067  76.8501822  38.2701149  37.9611709
  75.6427686  38.7169177  38.7420067  69.4890407  50.9531804  19.1124002
  70.0975652  51.1901861  18.3703438  69.4286192  50.0052182  19.0504771
  71.2698622  48.5718382  22.6029214  70.7062875  49.3296290  22.8388000
  70.6714613  47.8811169  22.4306289  71.4101950  58.4094547  38.7091463
  70.9468265  57.6857383  39.2121848  72.3421513  58.2106162  38.9750212
  70.1973460  36.7551530  33.7239805  70.2912290  35.8359444  33.5777253
  70.8102254  37.1858217  33.0376672  79.0302843  52.2982589  35.2073164
  78.9539681  52.4454212  34.3017504  78.1034356  52.1550012  35.5370266
  72.4926420  37.6391342  36.1121811  72.6807001  38.1847984  35.3033935
  71.5091535  37.7054238  36.0921533  77.0587534  53.9199810  22.1978045
  77.3303826  54.4254889  22.9855168  76.1025943  54.1532352  22.2006248
  69.9248749  52.2083558  34.5661946  70.4762851  53.0460616  34.4846838
  69.3746182  52.4679516  35.3446195  72.4124632  48.3714704  42.0721555
  72.6927551  47.8328555  41.3023815  71.5901843  48.7425506  41.8270027
  74.6404523  31.7897363  36.8551892  75.6444757  31.7175173  36.7931830
  74.6571544  32.5132293  37.5435656  77.7346216  58.1414061  30.8298208
  77.0234615  57.7446358  30.2634382  77.3234672  57.8545477  31.6618936
  58.6568092  55.9270465  27.3351855  58.7611499  55.0185189  27.7490597
  59.5243099  56.2462064  27.6149468  68.6554157  60.0454122  27.0523643
  69.5554223  60.3327233  26.9625110  68.4058392  59.7991702  26.1247241
  80.6905678  55.3299167  40.2136512  80.9992092  56.2526521  40.0839669
  79.6999834  55.5651337  40.1825236  77.5438990  23.6971042  21.9399210
  76.8299627  24.3691263  22.0981303  77.3915471  23.1196934  22.7364001
  76.8776376  61.3946032  23.0109743  77.5673147  61.3519672  22.3215117
  76.9688392  60.5320060  23.4725102  74.8837716  42.4888165  30.4194015
  74.5236134  43.3885556  30.4084292  75.7691540  42.6270369  29.9817825
  83.2978274  42.7578566  23.0847759  84.1674437  42.3219188  23.1440630
  83.5189909  43.4844982  22.5139600  67.5615713  32.3759708  19.2004337
  67.8169963  32.2198613  20.0823008  67.2694258  33.2755505  19.2083482
  73.6507432  48.1869936  22.0416599  73.6717615  47.2175258  22.1939366
  72.7039036  48.3772313  22.2949247  76.8451870  44.4158540  24.0018258
  77.4707127  43.8061439  23.4451539  77.2867791  45.2818957  23.7651735
  88.8113532  46.4412892  34.5825880  88.8499130  47.2342328  34.1240440
  89.5040220  45.8981742  34.0993110  71.8025679  42.2202253  24.3704203
  72.4030290  41.7797263  23.7575071  71.8040864  43.1277473  23.9377665
  74.0820209  52.4496289  17.4784298  75.0662652  52.4193241  17.3019145
  73.7684764  52.9802692  16.7287812  80.1334322  45.8957258  39.3138018
  80.2993591  45.2595585  38.6152521  79.7665422  46.7055900  38.7768369
  71.3918341  37.8100056  14.8781621  71.4791742  37.7783997  15.8340386
  71.4284857  36.9011192  14.5837657  82.5182396  54.9625371   2.4565358
  82.9967982  54.5383323   3.1695066  81.6325546  55.0817013   2.7786308
  67.8201162  46.5850201  26.2843937  68.0131652  45.6350639  26.2033857
  67.1823419  46.6442919  27.0113977  80.4452855  48.1999735  22.8861414
  80.9565422  48.1302260  22.1057329  80.9461881  48.8252542  23.4443697
  88.5868505  43.9312685  28.6418516  88.1076328  43.7412332  27.7634569
  88.7703401  43.0205957  28.8856599  74.8859007  38.6983668  32.3210019
  75.8286818  38.6628962  32.4972866  74.7376519  37.7415487  32.0328789
  72.8633647  63.8289971  15.2860092  71.9422632  63.5799823  15.4374659
  72.8871807  64.0422350  14.3737649  71.3701820  63.1563185  34.2576981
  71.1372579  62.7606199  35.1573472  71.3772898  64.1101800  34.5061774
  74.2516584  56.0462411  34.7920814  74.1161365  55.5129353  35.6379870
  74.0961265  56.9348582  35.1669968  88.1446691  48.9553100  33.6264341
  87.3759644  48.7992722  32.9944729  87.8883086  49.8651048  33.8870771
  68.2350085  54.2815603  27.4996125  67.2155647  54.0291946  27.5804167
  68.1346586  55.2544011  27.6368544  67.8655049  65.7544218  17.5188430
  67.4831827  65.3030635  18.2789300  68.7019206  66.1163084  17.8917450
  68.4622996  48.7080249  42.2050168  68.6211883  47.8040740  42.4125849
  67.7261477  48.9122227  42.8374977  77.2010079  52.5979686  39.8555722
  77.6625638  53.0467404  39.1267602  76.4618561  53.2589104  39.9785055
  71.6685374  51.0616805  17.6685968  71.9355083  50.5012810  18.4846399
  72.5340276  51.5366473  17.5676292  72.9155868  51.2970082  28.2178216
  72.7307390  52.1519772  27.8553173  72.9057774  51.5091620  29.2106125
  81.2630434  43.0818310  17.6331120  81.8402704  43.8229718  17.7504577
  81.2100600  42.9837773  16.6506216  77.1424651  50.8467642  20.2937380
  77.5375890  51.7582439  20.3097203  77.2694901  50.6453265  19.3068350
  71.8296120  43.5529436  31.2241362  71.7078183  43.6370982  30.2506417
  72.5046944  44.2574702  31.4065536  71.7112772  39.3826375  25.7366014
  71.5669982  40.3086981  25.3842082  70.8115176  39.2908119  26.2509074
  67.1733273  57.9997566  37.8231256  67.3139334  58.6384500  38.5854250
  68.1180378  57.7199040  37.6701622  79.2663898  42.4459840  41.6260048
  80.2503916  42.3727046  41.6020648  79.0264778  41.7339037  42.2351065
  63.2598621  55.6649767  32.0724130  63.1327007  56.4481999  31.4798927
  62.3787904  55.7635956  32.5626823  79.2393129  55.4568317  33.7103039
  79.4039166  54.6933790  33.0708517  78.2934349  55.5654983  33.4340332
  78.0140992  42.6253192  30.1115145  78.1382019  43.5538305  30.3335346
  78.9045399  42.2468259  30.2953895  70.0096166  53.1502895  29.1528396
  70.7338886  53.7622006  28.9456892  69.3184732  53.4147640  28.5617838
  78.6799650  47.8634766  11.2399497  78.4036013  47.4066127  10.4143028
  77.8359805  47.9534722  11.6731295  73.7475591  40.1136436  30.3367603
  74.0655172  41.0454647  30.4331937  74.1020446  39.7111274  31.1230322
  69.5468634  40.9826826  34.7271463  68.5045142  40.9366903  34.6429033
  69.7571233  40.9287369  33.7844916  72.5017799  62.9335946  20.4859545
  73.2402442  62.7976114  21.0643607  71.7534655  62.5157902  21.0586855
  68.0564189  48.0270661   5.2858077  67.9727905  48.7702993   4.6928563
  68.5898367  48.4295688   6.0271655  72.3312301  52.0746347  30.6986285
  72.6145494  51.2495109  31.2224489  71.4296728  51.8649445  30.3931164
  71.4140394  44.6749003  28.2985875  70.8045325  44.1423814  27.7836563
  72.2496515  44.4398892  28.0584260  68.9667909  50.4330727  29.8315870
  69.2265178  51.3588127  29.6045601  69.3610894  50.4384149  30.7531404
  80.8545163  45.6179919  28.1014305  79.8776679  45.6352823  28.2851332
  80.9199413  46.4375271  27.5741929  90.5839087  40.9968657  37.8017589
  90.7503448  40.5880901  38.6482285  89.7258014  40.5807352  37.5554120
  70.8094050  62.9004085  29.2008250  69.9171209  62.5077593  29.3512576
  70.9201730  63.5740829  29.9047013  79.4714644  52.3856619  16.5160268
  78.5325153  52.5913293  16.6336920  79.9092759  52.8751998  17.2249095
  72.9725149  30.8326097  26.7944037  73.4058157  30.4204993  27.5854976
  72.1299322  31.0318776  27.2765058  80.9310051  62.6320684  35.2664406
  81.3938165  62.0238552  35.8702780  81.2265938  62.2850800  34.4258406
  74.2001906  45.1821105  31.1310811  74.2286719  46.1047291  30.7809707
  74.9114899  45.1620485  31.7887239  76.0681697  55.3890766  15.1690551
  76.9267292  55.6652057  14.8495947  75.7328274  56.2746813  15.4864857
  82.4042549  55.4350161   8.9097018  82.3401438  55.6376632   9.8793892
  81.4136945  55.2743752   8.7349949  91.4054065  54.9926009  28.2429427
  91.8961020  55.0013685  27.3660955  91.6034710  55.9269354  28.5173985
  67.3058047  54.5592020  32.3784433  67.2755124  54.5678570  33.3975556
  68.2118498  54.9010632  32.2726420  75.0120583  63.7624627  33.6582762
  75.0867129  63.8934235  34.6579991  74.7099615  64.6602619  33.4064486
  80.5379093  48.7216877  34.6622630  80.2542863  48.3520277  33.7883647
  80.0630890  48.1668879  35.2984146  67.8010292  42.3954208  32.6755473
  68.1296337  41.7676456  31.9554810  66.9473361  42.6012922  32.1983832
  74.0164338  54.5113744  37.0424617  73.7315591  53.5695493  36.9595744
  73.3695212  54.7821136  37.7738314  67.2627262  56.9305702  27.2838713
  67.9728169  57.3781529  26.7600871  66.5886377  56.7881030  26.5708669
  55.5302578  47.0362920  26.4179827  55.8771133  47.3667736  25.5975955
  54.6145772  47.1151479  26.3639184  72.6516520  56.5152302  31.9836084
  71.9571651  57.1034693  31.6352221  73.1469374  56.9771528  32.6387873
  64.0534440  50.8419487  28.1638905  63.6265159  50.0361397  28.0864461
  63.8839525  51.2704220  27.3395964  86.6347163  48.5750550  30.9609391
  86.5455554  48.0556909  30.0829018  86.1175253  47.9920605  31.5537566
  74.0210343  36.1314782  31.8434250  73.1031944  36.4199224  31.5644321
  73.7804550  35.4946036  32.5699735  63.9096892  40.6444100  26.2435149
  63.1438791  40.5477509  25.5808005  63.6591114  41.5135097  26.6071227
  80.5897087  47.4630365  26.4012600  81.4648324  47.8177541  26.2003738
  80.1102505  48.3399349  26.0754797  70.8734265  41.2636202  32.3428684
  71.3266147  42.0273681  31.9396175  70.2543630  41.0626414  31.5843020
  75.6638288  28.9655105  35.3661557  75.0404696  29.7032133  35.4182197
  76.4180911  29.3550713  34.8209329  72.2913299  31.2181058  35.5584460
  73.1966631  31.4787936  35.8734636  71.7501552  31.9200323  35.9164820
  70.0767308  42.5658360  26.6376322  70.7186572  42.3374061  25.9385951
  69.2438384  42.3689213  26.1562505  80.4535660  51.0669923  23.8901070
  79.6375035  51.3537661  24.2614838  80.6734888  51.8403552  23.2834145
  72.9833037  49.5848592  35.1436504  72.5708160  49.0343434  34.4405536
  72.8269351  49.0649544  35.9278042  77.7256927  37.7713607  30.1945634
  77.4588117  37.9702111  31.1184790  77.7486399  38.7117996  29.8788597
  68.0908233  34.2457880  26.9334748  68.9639772  34.2622517  27.4825765
  67.8447532  35.1786654  27.2914818  64.3880010  46.0117385  36.7345982
  64.3596406  46.2303747  37.7143372  65.2910117  46.2416018  36.4730168
  75.8278214  39.2603590  10.8064713  75.4124174  39.3093410   9.9037826
  75.2729350  38.6043948  11.2261119  77.0125022  42.6662634  27.6168261
  76.7491629  41.7500309  27.4369504  77.4620591  42.5280839  28.5145450
  65.6471688  42.6879529  31.1081108  65.3056180  43.6061474  30.9219037
  65.6032370  42.3565836  30.1465145  87.5492993  54.7290447  39.9843758
  88.3619202  54.6482794  39.5566836  87.1965309  53.8537064  40.1338059
  81.0535414  54.5712128  19.3143302  81.2058591  55.0250913  18.4107698
  81.5494240  55.2657079  19.8476345  71.6215928  61.0038798  13.7780226
  71.4027457  60.4129629  14.4926730  71.1458768  61.8080431  14.0206360
  64.5744990  45.9372801  20.6093023  63.6953315  45.8045792  20.9852038
  64.7748439  46.8224010  20.9256532  66.2345910  59.4577159  20.1585066
  66.2339328  58.4655753  20.0591394  65.5871227  59.5928720  20.8583904
  71.7369460  45.3373446  23.4874677  70.8780564  45.7610786  23.3099190
  71.9874073  45.0071636  22.6175476  80.8507628  55.8587524  16.9946126
  81.1480879  55.4949846  16.1241025  81.1508685  56.7441709  16.9606745
  79.4447171  47.8114689  37.5875508  78.7146365  48.4956086  37.6899361
  80.2080777  48.2916575  37.9294352  83.4498785  49.1331800  20.7860769
  82.9703544  48.3425232  21.1539357  82.7424711  49.3972818  20.1217668
  85.4658666  34.4771700  40.4618889  84.6488514  34.1375888  40.8981416
  86.1089629  34.3387171  41.1957272  60.9268254  55.0346269  20.0842364
  60.6442388  54.2670509  19.5285867  61.6992066  54.6265119  20.5785949
  73.4678944  32.1865097  31.8542005  72.7136747  32.7682344  32.0923255
  73.8862780  32.6790553  31.1000873  76.4505177  48.5640109  22.3731658
  75.5233111  48.6822990  22.5624888  76.6608737  49.3640276  21.9084418
  74.1430527  30.1881265  24.2538217  73.5900855  30.5919970  24.9499806
  73.5874492  30.3626847  23.4341096  83.4851600  52.5865005  18.9984049
  82.6529290  52.1772526  19.3177841  84.1004940  52.1896369  19.6767324
  73.0252874  45.3585693  15.5607554  73.0973410  44.4038684  15.5750155
  72.4550125  45.4815026  14.7648297  73.8254490  44.2277616  37.2034869
  74.8090842  43.9425941  37.1413986  73.7219965  44.1726132  38.1594214
  78.1360499  52.1219879  25.1649153  78.3503703  51.2105733  25.5021121
  77.2348157  52.1909372  25.5017417  68.7247249  58.5094144  29.1574427
  68.1691241  57.7355757  28.9799448  68.5575382  59.1207860  28.3810898
  72.9141777  43.2154099  34.4361384  72.3366014  42.4738198  34.2550062
  73.2300109  43.0015061  35.3246958  86.2523994  53.0807507  25.1702375
  85.9189341  53.7186391  24.5028313  85.6104588  53.0502449  25.8511094
  72.3697046  40.4313548  22.3039168  72.3348723  39.5356645  22.6164384
  73.2279450  40.5230118  21.8962062  75.1404175  39.1364807  28.2703788
  74.6653801  39.4814261  29.0996491  76.0087304  39.5168048  28.4524179
  71.8063830  41.5626309  29.2031301  72.4316091  41.9494028  28.5828636
  72.3236073  40.7358832  29.4171669  70.6996146  58.3861593  33.5432339
  70.3244661  59.1168934  33.0262521  71.0561129  59.0026912  34.2852979
  77.6904343  40.1013679  29.0513216  77.8616355  40.8558766  29.6100123
  78.4787198  40.1849773  28.4298494  81.0716035  57.8296891  39.3736433
  80.8998973  58.3420810  40.1875950  80.5562826  58.4291657  38.7471257
  74.9237016  44.4519305  19.4146263  74.4534049  44.6820490  20.2512006
  75.7362632  44.9960554  19.5426462  71.0824222  68.5427503  32.2354736
  70.8452548  67.7955694  31.6501455  70.1608816  68.8855366  32.4019521
  70.8763581  46.8367762  30.0158329  71.5789757  46.4435870  29.4341892
  70.7279553  47.6753913  29.5695228  73.9161214  45.8045718  34.0502642
  73.5344538  44.9101628  34.1447475  73.1546914  46.2016336  33.5127611
  72.2502363  69.4259496  22.0397922  71.4253329  69.9906782  21.8583310
  72.7269650  69.5191924  21.1623631  76.3540815  40.4490449   4.0667955
  76.7657664  41.3928736   4.0223873  77.0445752  40.1224667   4.7337376
  90.0498505  46.3209208  19.9180071  89.5516492  46.0128533  20.6971828
  89.7611531  45.6298268  19.2739779  63.2389903  50.2447848  15.4694655
  62.3362841  49.8921456  15.4886850  63.7467841  49.4148558  15.7004407
  81.6461119  49.7648583  18.9490583  80.8856602  49.4370637  18.4595395
  81.2444066  50.5183584  19.4514877  76.6184490  49.4115457  51.6920019
  76.1021653  48.5984326  51.7652669  75.9331026  50.0093928  51.2891923
  78.1242838  46.2356171  17.7092861  78.5034896  45.8906018  16.8459838
  77.2258238  45.8298722  17.5114799  73.7746026  66.7566523  36.3784089
  73.2245881  67.6299874  36.2984457  74.6635280  67.2009283  36.5351123
  66.1118487  63.4278694  30.5428746  66.1022154  62.6328246  31.0826924
  66.8488451  63.9185113  30.9437944  69.3963894  41.9280272  21.8497719
  70.3336806  41.6498442  21.8788170  68.9906370  41.1372090  21.3968146
  84.1108740  44.7306403  30.8374313  85.0517892  44.9830686  30.9416025
  83.7268296  45.5352883  30.4512616  91.2336002  65.1863473  27.0873271
  91.2460317  66.1318329  26.7492450  91.0408836  64.7176801  26.2601134
  82.1473076  69.7105435  23.1565139  81.1998231  69.7511614  23.5024299
  82.3553400  70.6443914  23.2462778  82.9141585  52.5918575  31.0962786
  82.7723474  52.6457000  30.1651119  81.9814022  52.7278572  31.4672934
  74.2224179  66.1147432  27.7839563  74.2411081  66.8333464  28.5102059
  73.6996004  66.6728478  27.1395766  74.4694468  57.8574686  25.7246793
  73.7824370  57.9221761  26.4500859  75.2226228  58.2584231  26.1726347
  77.8462618  73.6529384  23.1764370  78.4890550  74.3412647  22.9606245
  77.2858475  73.7123441  22.3340829  79.1042352  49.6642932  26.4013014
  78.0964339  49.5897311  26.5654661  79.3644734  50.0571012  27.2523877
  71.8819226  58.8684593  19.5172302  71.8961152  58.5877773  20.4432089
  71.2669194  58.1973703  19.1600489  71.7484887  55.7249347  18.0785478
  70.9840424  56.3289658  17.9476021  71.3971070  55.1651403  18.7989702
  84.7052602  61.4724993  34.6093226  84.3679814  60.5953641  34.7675319
  85.6998312  61.2585519  34.4661812  78.2397808  68.1569010  10.4218557
  77.3028053  67.9620567  10.1954535  78.2696992  67.8506280  11.3447106
  84.2081735  75.7573927  30.4322127  83.3848937  76.0590623  30.8224178
  84.0332054  75.9741047  29.5047482  77.9532217  57.3998993  26.1276331
  78.4233005  56.7373500  26.5978380  78.3914139  58.2433216  26.2236038
  80.4289789  68.9181461  31.9704418  79.5280031  68.8164230  31.5941198
  80.9520249  68.3719421  31.3814616  79.1582901  71.4754462  22.4437624
  78.5861522  72.2168477  22.8292567  79.8723335  72.0720106  22.0513859
  80.7353853  67.9908754   5.1335416  81.1987191  68.5874169   4.3874913
  80.0363701  68.6411972   5.2918899  75.9990375  58.1412902  15.9040411
  75.4183728  58.2344973  16.7130760  76.8549233  58.3404335  16.3341827
  66.5469734  67.8291576  34.6890513  65.7241780  68.1954537  34.3953439
  67.2064909  68.5461897  34.4882648  83.5084833  57.5372657  38.5990951
  83.5696303  56.8986786  39.3510930  82.5952963  57.8376368  38.7561353
  81.2953039  67.1386718  17.3842455  81.4417102  67.6363503  18.2453896
  80.8700372  66.3225559  17.7575592  72.8081086  68.2201699  26.3963732
  72.1838591  68.5002180  27.0217019  72.7945529  68.8132267  25.6619304
  84.1624296  74.8714921  21.3073676  84.8895508  74.8968587  20.6259212
  83.4199041  75.2598025  20.7849491  74.1998610  54.2629499  31.5113743
  73.6910387  54.8872817  32.0757774  73.8947001  53.3946034  31.8464078
  84.5682560  63.5690210  20.4438449  85.3650409  63.8606908  20.9725058
  83.9740930  63.3892205  21.2096650  88.0399522  63.1900452  18.0110453
  88.2407161  62.5400012  17.2998591  87.3951185  63.7476743  17.5184739
  84.5469169  76.7217756  27.9989585  84.0822540  77.6026514  27.8383467
  85.3313708  76.9057965  27.4278073  71.3076055  54.3395274  43.1884089
  70.8584202  55.2238868  43.2821777  70.8816040  53.8630311  43.8752816
  49.3580691   6.9808185  12.1697324  49.7669523   6.1330442  11.9377813
  48.5062999   6.7001050  12.6222503  59.0934216  -4.4115598  12.9343203
  59.1241909  -3.4640857  12.9614255  58.1159451  -4.5717857  13.0393203
  57.5050831  17.2648393   8.9613250  58.2365089  16.6450691   8.7462190
  56.8948853  17.1295417   8.2006457  59.5702973  16.5620672  11.3548235
  59.9700841  15.9630937  11.9922079  59.3055824  15.9753751  10.6430257
  55.6100130  -0.2350682   2.0170134  55.6187302  -0.2307428   3.0193197
  56.4400848  -0.7297946   1.8393897  58.8560174  11.8993662   9.2423169
  59.7185826  11.6663490   8.8550084  58.5328699  11.0008131   9.5392066
  53.3536579  13.8853907  10.0084153  54.2704421  13.9044086   9.6883715
  53.2093271  12.9157635  10.0949195  52.2372094  -3.1976083   5.4113553
  52.6088113  -2.5092053   6.0380928  51.4180399  -3.4441037   5.7796696
  60.4956446  11.3158109  24.6377236  60.3655007  11.2516986  23.6760587
  60.3852831  12.2813757  24.7628860  55.1245701  12.1768255  17.7002619
  55.4670183  11.5053958  17.0602425  55.8111182  12.1960190  18.3825004
  56.8348240  16.8866043  11.3836793  57.0965463  17.1028290  10.4472381
  57.7673881  16.9426052  11.7489057  46.6643392   0.0278043  14.7103331
  46.7529620  -0.9439279  14.7970990  47.3491951   0.3531070  15.3577979
  37.5846774  -1.8200049  16.1153622  37.0601596  -2.2204549  16.8733795
  38.0105077  -2.6291895  15.7788405  51.9601588   5.8353711  12.3573215
  51.7886795   5.1146663  11.7615493  52.6782587   6.3081204  11.9319447
  60.2247104   9.4812883  12.0041766  60.1399981   9.6032116  11.0270456
  59.4274454   8.9122174  12.1352512  58.0156398  -1.6170524  27.1743953
  58.0873694  -1.0609741  26.4598164  58.1844145  -2.5260741  26.9655604
  47.9531445  11.8219114  23.7286744  47.7605783  12.4606916  22.9670596
  48.2362042  11.0380965  23.1347714  63.0332522  15.1650732  13.8874420
  63.3727635  15.6239896  13.1054874  63.5261617  15.6182885  14.6223740
  35.1202287   6.7601293  16.7587002  34.8071509   7.0704174  17.6099707
  36.0404347   7.1600535  16.7539145  57.9664478   3.2105562  13.0599944
  58.0392675   2.8616514  12.1278842  58.7326195   2.7469548  13.4792963
  36.6114650  -8.6939538  16.9249267  35.6450364  -8.5194101  16.9804002
  36.7957042  -8.6857866  17.8872789  49.6821515  20.3392724  13.0876915
  49.7895172  20.1887337  12.0999457  50.6315658  20.3843882  13.2679666
  54.4420262   0.1067070  14.0638187  54.1120146   0.4384000  13.1717346
  54.8134514   0.9254476  14.3908525  46.8668256  -0.0075895  27.9451978
  45.8861784  -0.1589629  27.7236687  47.1094754  -0.8837653  28.3358497
  51.3918669   5.7221881  14.9874596  52.0346366   4.9614838  15.0733031
  51.3713596   5.7892308  14.0132804  69.8323806  -0.6128102  15.7618850
  70.2207281  -0.7024250  14.8497988  70.2509452   0.2135577  16.0324181
  59.9733053   4.8641405  11.0192145  59.4848344   5.4891293  11.5839368
  60.8455873   4.8372080  11.4470723  65.8875924  12.7621159  17.3571500
  65.5194085  12.3191625  18.1773851  66.8213375  12.5209961  17.4270128
  75.3197755  11.0046470  28.1227429  75.7973126  11.6543611  28.6688349
  75.0246405  10.4232765  28.8598814  63.3708227   9.5166291   8.9247074
  63.8500419   9.7195086   9.7930528  64.0541752   9.8345286   8.2941986
  63.9510587   8.9478056  19.0019671  63.3636380   8.1502591  18.8945307
  64.1284069   9.1203724  18.0362986  65.7320321  13.8391594  25.1981086
  66.5943626  14.2963477  25.0476021  65.3322979  14.4418747  25.8850831
  66.2138131   9.5644111  23.4417880  66.6129988   9.8462961  24.2799830
  66.4692630   8.6157425  23.4614974  75.7533783  12.9699247  30.7243567
  74.9030009  13.3834648  30.9840307  76.0850268  13.7174388  30.1257606
  50.9553329  30.1885517   8.3935273  51.1944356  30.1090560   9.3010020
  51.8496647  30.0545338   7.9823333  60.0992513  21.6903661   5.5698079
  60.7585147  21.9163816   4.8259279  60.5216935  20.8217090   5.7596908
  66.9031541  14.0119157   6.7961707  66.0465768  13.9373306   7.3049656
  66.9849575  13.1527337   6.4515038  62.5803028  13.0306276  30.9122798
  61.7604432  12.9929152  30.4248208  62.5239220  13.8617989  31.4661145
  63.7109433  10.4363749  25.4623665  63.5359031  11.3037732  25.0101022
  63.9480181  10.7910085  26.3510568  63.3612734  13.5519612  37.3729188
  63.5603300  13.5393026  36.4031514  64.1077407  12.9709876  37.7402704
  70.5442281   2.3554143  12.5166343  70.7989875   1.7757781  11.7079744
  71.3975017   2.4776150  12.9326365  68.2744324  10.9408519  15.0088319
  69.1380974  11.2445466  14.6720208  68.3608683  11.1998387  15.9627730
  72.4168046  12.1687545   8.6086607  71.6488262  12.8223676   8.5765650
  71.9496000  11.4454531   9.0561224  60.7351882  32.3864529   4.3998317
  59.8408052  32.5867728   4.6579641  60.9274712  31.6628443   5.0476341
  64.6937303  11.5901302  19.4116576  64.7719640  11.4810395  20.4104208
  64.6959078  10.6560467  19.1768325  64.1233773   6.5757092  21.2551447
  64.3971304   6.0289216  22.0370267  63.3488180   7.0254574  21.6767307
  61.3291785   5.4420421  16.3721243  61.4817161   4.4586899  16.4229477
  61.6928063   5.8010254  17.1588109  66.5512393  20.6983408  19.3172349
  65.9884170  21.4188956  19.0841255  67.1577036  21.0415166  19.9905481
  62.3801976  12.8246207  20.2302207  63.0463541  13.4343953  20.5992555
  62.9552613  12.2796045  19.6476649  66.8675454   8.9340476  15.7827214
  67.5512383   8.7385518  16.4652442  67.3308478   9.6787876  15.3351506
  60.3749321  10.2785809  17.7916070  60.8626755  10.3914353  16.9322493
  60.4239380  11.2167456  18.0899846  61.7454506  20.1069411  12.4628955
  61.6760938  21.0419692  12.8116028  62.3169603  19.6996296  13.1141314
  58.8257133   3.5817234  22.1093342  58.4231711   3.9798141  22.9175100
  59.5505894   2.9952359  22.4330301  57.9737937  18.8487421   5.6207078
  57.1113136  18.5807670   5.2465343  57.6373205  19.5348542   6.2802903
  55.3012375  17.3852199   6.5414062  55.4186739  18.1444604   6.0174315
  55.1599632  16.6495980   5.9099854  68.8931899  17.7953009  20.8054089
  69.8165625  17.5153283  20.7315020  68.7990931  18.2264062  19.9053807
  60.1383842  23.2749157  20.7562516  59.7459827  22.5239006  20.2388399
  60.3291115  22.7990080  21.5740151  67.1863249  17.1791491  24.8732798
  67.5867292  16.3492329  24.5223726  67.3664782  17.0397628  25.8414537
  67.7561750   3.9468100  15.2763240  67.3699327   4.3855774  16.0641426
  67.4023543   3.0380727  15.3756022  56.6182022  22.3138404  17.5949788
  56.5187639  21.5882964  18.3106003  57.1215070  22.9459842  18.1597891
  72.8729511   4.9837763  22.2159679  73.5598183   5.2998911  21.5678596
  72.5713729   4.1966501  21.6569622  69.2027054   7.1790317  25.3595748
  69.7214924   6.3381822  25.2885938  69.9209246   7.7939021  24.9634762
  67.7391729  -2.3757691   5.3834251  67.5806809  -3.3171717   5.5029276
  66.8371899  -2.1146674   5.0426868  74.1491205  13.1489805  23.6526114
  73.4535845  13.8578233  23.6295854  73.9365287  12.7592386  24.5276038
  53.2698483   1.1981601  11.6904231  53.6547108   2.0100302  11.2478189
  52.6656124   0.9924877  10.9014999  68.2899806  16.0258612   8.4796893
  67.9731675  16.6075007   7.7869641  67.9517018  15.1871627   8.1306311
  69.2702735  -1.1033660  19.7984879  69.0887343  -1.2294237  20.7494378
  69.6171925  -1.9796000  19.5522739  81.1455904   6.3868709  23.4897190
  81.1005504   6.8218108  24.3996453  81.9685102   5.8714945  23.6609652
  64.2145085  17.4382058  20.2357040  63.6969260  18.0703965  19.7310328
  65.0063008  17.3446988  19.6510548  61.9410249   3.0229945  16.7890254
  61.6910864   2.7024775  17.6954326  62.1131170   2.1489624  16.3756081
  67.4745810  18.4840513  10.2650103  67.2416372  18.0290009   9.4868707
  67.2749632  19.4139386  10.0296411  71.6365211  16.3942077  17.6524303
  72.4381222  16.3384726  18.2226681  71.6056382  17.3364437  17.4210167
  48.6306679  18.0579918  10.3447734  49.0990154  18.6246757   9.7143864
  47.7365373  18.1616527  10.0725789  51.1351439   6.3070195   9.4262188
  51.6375485   5.4656744   9.5563609  51.6828542   6.8552694  10.0546189
  61.8672169   0.3436182  15.6510829  61.4374053  -0.5755843  15.8383929
  62.1824994   0.1401291  14.7138732  78.0328559  15.9378428  22.5580467
  78.9417968  15.7475634  22.6944514  77.5766060  15.6107348  23.3250304
  60.5167429  12.2124604  28.3929330  60.9414719  11.5888637  28.9642954
  59.7754487  11.6392729  27.9916747  71.6825830  10.5823569  27.2276394
  72.0974782   9.7139623  27.1241140  71.7524165  10.6563470  28.1874602
  59.3180142  21.3648820  18.8741646  59.3857070  20.4364437  18.7718431
  58.5252661  21.6691950  18.4593211  77.2563535  15.8950486   3.8598495
  76.3296023  16.0419153   3.7119934  77.5846487  16.6553435   3.3367990
  67.4447750  15.4254010  14.4507458  67.1882465  15.8269798  13.6570779
  66.6475967  15.5003612  15.0275170  64.8505113  13.7951293  29.5977725
  64.0112929  13.6967552  30.0853611  65.2698568  12.9055539  29.7755258
  77.9580580   3.3157819  18.8891624  77.8302602   2.3818787  18.5646602
  78.5239977   3.6454989  18.1835029  74.7420274  26.9079115  20.7418999
  74.3956095  26.3994185  19.9764172  73.9990663  27.5414885  20.8792203
  70.8286869   8.3515556  30.9676191  70.7983746   7.7327577  30.1666007
  71.4357328   7.8712106  31.5154962  65.0501642  18.3385020   7.3171396
  64.2302203  17.7874541   7.4320098  64.7703206  19.1101660   7.8551238
  70.5313670  24.8102403  14.2543194  71.4781413  25.0054419  14.2559760
  70.2936150  24.9755676  13.3305933  57.7614928  12.4365708  12.2864420
  57.9502068  13.3001592  11.9002583  58.5387263  12.3059030  12.8402669
  59.9445876  24.4959710  12.3322161  60.6477593  24.6424214  11.6105953
  60.0330193  25.4444506  12.6767277  62.8176445  28.9655643   7.6779419
  62.9124933  29.7503706   8.2803228  62.1484068  28.4712815   8.1865273
  68.1795718  15.2315987  20.4946890  67.3014476  14.9807910  20.7684170
  68.2970647  16.0977842  20.8683223  61.4888248  22.9083605  13.6872615
  60.9458174  23.5244665  13.1501215  62.3656075  23.3950568  13.6827087
  70.8309499   9.4446997  24.2966629  71.6795141   9.2124355  24.7624753
  70.4762679  10.0463214  24.9254074  56.0844379  14.9426938   9.3966726
  57.0437839  14.8425109   9.4891777  55.8087701  15.7273486   9.8863251
  61.7436022  28.4105129   0.3631872  61.8805443  29.3644934   0.6108961
  60.8739819  28.2277339   0.6546583  70.8907113  17.4683064  37.8183702
  71.1144276  18.0623523  38.6053281  71.7556410  17.4466330  37.4196067
  60.2287780  25.8854719   5.6412232  59.4053502  25.4095787   5.8776055
  60.8504297  25.4525712   6.3692487  63.0136953   9.3605932  21.4920636
  62.3843624   8.5946683  21.4357697  63.2924521   9.3890795  20.5450188
  59.4003880  14.4855447  21.2254144  59.4684482  14.2672748  20.2597376
  58.5376161  14.3541663  21.4643025  66.5403472  16.4521250  18.7049796
  66.7015875  17.2977481  18.3630056  67.4586230  16.1158823  18.8500671
  70.6787463  12.9166931  20.7502724  69.9299676  12.3568789  21.0921059
  70.2335967  13.7695602  20.5654248  67.3802249  17.2378558  30.4761351
  67.8684632  18.0382666  30.2546450  66.4659977  17.5492437  30.6001623
  61.6883146  13.5215441   9.6387815  61.8305676  12.6850033  10.1721821
  61.1537215  14.0319622  10.2676803  73.5739123  16.3169234  19.4518200
  74.4862076  16.7512472  19.3053698  73.9168708  15.4190712  19.7409471
  64.9380398  16.0029100  15.7890473  65.0483519  16.9301232  16.0855195
  64.9056497  15.5633297  16.6540496  83.5273827  12.3238179  22.9039420
  83.4346002  11.5963767  22.2758282  83.6668818  11.7572902  23.7249046
  62.5124097  -4.3632435  17.6223763  61.9521372  -4.6235232  16.8483997
  63.0773837  -3.6926342  17.3136886  67.7690672  24.9247497  15.8875595
  68.1988025  25.8236332  16.0595816  68.3890870  24.6260734  15.1570216
  69.6886527   9.3732372  21.7099391  70.1947262   9.5556614  22.5612646
  70.2502081   8.7255661  21.2940925  58.2532279  10.3715243  21.7940367
  59.2053472  10.5250188  21.8633396  57.8390544  11.0191326  22.3770970
  58.2334924   7.8844497  20.5272847  58.1701150   7.3675961  21.3326024
  58.1866148   8.8079861  20.8430873  61.3042275   7.3160189  29.9236700
  61.7636817   6.5886306  29.5266685  60.5696775   7.5149042  29.2931115
  58.5052245  17.9553259  14.2097289  58.6041196  18.5670983  13.4602885
  59.4449230  17.8445261  14.4553884  70.4007314  12.6117426  24.0487138
  70.2128643  12.3073224  24.9889271  69.6955051  12.1310066  23.6123270
  54.8690511   3.3939773  10.0010221  55.2808989   2.6121117   9.6267904
  55.5848231   4.0608061   9.8666060  67.2336084  22.5936356  13.2230508
  67.6759747  23.4031941  12.8590755  67.9108555  21.9067437  13.0600752
  73.0329284  16.3988202  28.3209089  73.1287666  16.3155946  27.3366317
  73.9926504  16.4570314  28.5064008  58.0055235   5.9015023  27.5989369
  58.3846624   6.7677063  27.6725166  58.8389062   5.3390757  27.4465689
  70.9997614  14.8658927  38.7622152  71.0762751  14.5059026  37.8439673
  70.7598506  15.7407231  38.6070330  79.1124270   9.1291435  15.7584451
  79.5738951   9.0198265  14.8805792  79.8668757   9.0018415  16.3410871
  65.3466122  17.6213436   4.3142912  65.4154477  18.5267970   4.6802639
  65.5853784  17.7801821   3.3760140  84.0151879   0.7274426  20.9491875
  83.0552800   0.3901011  20.8991768  83.9104855   1.5048362  20.3715738
  64.2759772   4.5708596  19.0839410  63.3403490   4.3051817  19.1131164
  64.2447450   5.3827097  19.6545084  80.4560459  12.3245161  23.5253701
  80.0225589  13.1604942  23.5771863  81.2252889  12.5050262  24.0604897
  65.8294112  14.8105628  11.0951197  65.7020347  14.8368333  10.1219162
  65.1402560  15.3724601  11.4096308  69.7179364  20.5730744  12.0886413
  69.6092712  19.8018842  11.4835142  70.6704885  20.7124535  12.0546460
  60.1564177  12.8987213  18.8210825  60.9987633  13.2925702  19.1994106
  59.8369466  13.6893158  18.3180453  61.2580064  24.9546821  10.0323922
  60.9529450  24.8104537   9.0841746  61.9970273  24.2498287   9.9459313
  60.7739648  14.1667693  12.7496348  60.5920124  13.2583164  13.1135872
  61.3805486  14.5023983  13.3901835  66.6609311   7.4290348  20.2419570
  67.0363516   6.8642517  20.9342684  65.7575048   7.5424958  20.6176783
  63.6939601  16.9236409  26.2460310  64.3290534  17.6802996  26.1685369
  64.1781135  16.4491700  26.9919241  57.8790689  14.5272446  27.4570408
  57.7358023  13.8922621  26.7195770  58.6200138  15.0261461  27.0820909
  69.5805929  13.3985194  14.2490393  69.0065745  14.2289257  14.3851047
  70.0388289  13.4286402  15.1264843  51.4175107  18.9479152  15.7337064
  50.8759905  19.3142277  16.4548776  50.8787743  18.1485766  15.5665296
  62.8695884  16.6676971  30.5511987  63.6947313  17.1939404  30.4992728
  62.7851641  16.2050354  29.7262056  59.1567124  19.6378216  16.9320180
  59.6886687  19.1659780  16.2884423  58.4075940  18.9814832  16.9800190
  64.1996463  14.9144688  18.2188307  64.8488965  15.4078585  18.7076554
  64.5499434  14.0342800  18.2809992  81.7312410  26.1910727  27.6202356
  82.5425826  25.5781079  27.3763884  81.6586491  25.9321828  28.5301262
  58.3812772  17.2566816   2.3486685  57.6497591  17.5557975   2.9334505
  58.5367426  16.3787907   2.6849089  55.4711042   0.6830665  17.7129320
  55.9942949  -0.1597217  17.5967572  54.6468417   0.4123245  17.2869940
  78.1510969  25.8321852  10.3378134  78.7639085  25.1155324  10.1867147
  78.0316700  26.2182489   9.4423476  70.2074013  13.5714240   8.9641414
  69.6690744  13.8220690   9.7432935  69.6738313  13.9848952   8.2594751
  76.9368597  27.8299856   2.6796205  77.1220812  28.7577150   2.4610731
  76.1585722  27.6193872   2.1079689  79.8274151  19.7490168  21.4504175
  79.7567332  20.2728567  20.6555907  80.8024027  19.5199122  21.4341801
  67.6466165  36.9351094  27.4048984  67.0457594  37.4510100  26.7707079
  66.9749486  36.9164565  28.1316034  68.4093702  31.5127218  13.3402331
  68.8609670  31.6235474  14.2282702  68.4209558  32.4181994  13.0610776
  65.5764359  23.5680946  15.2813118  66.3503844  23.8647391  15.7337725
  66.0853111  23.1502072  14.5254838  66.8353901  27.2395872  13.5586182
  66.0677474  26.8513731  13.1128127  67.4401840  26.4895417  13.5378267
  83.7053811  33.7576567  18.4579077  83.6726318  32.9228715  17.9883630
  83.8983107  33.4070447  19.3830606  70.2482634  23.1365299  19.9369728
  69.7471613  22.4189925  20.3332146  69.5341020  23.6391682  19.4652003
  75.0981078  17.6913561   5.4974707  74.3745674  18.1773421   6.0216354
  74.8923567  16.7646868   5.7659530  78.1683039  39.1416452   2.4191045
  77.4030139  39.4545171   2.9522983  77.7111185  38.4827760   1.8351938
  89.4471330  22.4519200  24.0838013  89.1438764  21.5071945  23.9944942
  88.7165662  22.9038984  23.6467034  70.2606346  28.6679885  14.8941700
  69.5317351  28.4821211  15.4749105  69.8248151  29.0201570  14.0884964
  70.9794808  32.0190367  22.2393597  71.6608409  31.4417398  21.9625844
  70.8736383  31.7050124  23.1724060  74.7030438  30.2361127  13.6569967
  75.5399577  30.7101613  13.4973849  74.4618701  29.9134090  12.7336950
  68.0286976  26.0989929   8.0508954  68.3861485  26.5547784   8.7999603
  68.8395376  26.0318347   7.4879881  86.1157791  22.3301606  32.4868294
  86.6908373  22.8773622  33.1561828  85.4677000  22.0822994  33.2146379
  78.5296334  25.1724766  17.7894842  77.9811876  24.5087667  18.1578732
  78.6046858  25.8257455  18.5273376  74.7579920  28.2212359  17.2129443
  75.3458490  27.5958384  16.7188526  73.8828458  27.8291431  17.0678400
  68.0922113  27.1242893   4.1879517  68.4012192  26.4369460   3.5370718
  68.6292764  27.8697481   3.8999945  74.1246950  24.1413920  28.9474767
  74.1429989  23.6898440  29.8276013  75.0854940  24.1281645  28.7682980
  76.1319754  35.1594702  12.9868956  77.0041103  34.9804747  12.6125008
  76.2286424  35.0254061  13.9069982  73.2551729  21.2523902  21.4080895
  73.7904304  21.6262730  20.7569175  73.6824270  20.3798569  21.6039169
  68.0620171  43.4676766  28.5969077  67.6058368  43.7280237  27.8035215
  68.0586559  44.2498256  29.1366294  66.4995906  19.0979462  21.7351779
  66.2466549  19.5890885  20.9134412  67.3293389  18.6247067  21.3986213
  82.5800557  35.4164102  15.7100053  83.2359973  34.7678871  15.5089010
  81.8340256  35.2344066  15.1729815  71.7971543   3.6355114  29.6142865
  72.3168844   2.8975465  29.9253879  72.4384377   4.3302311  29.5772512
  65.3885503  34.6845407  10.5641963  65.3730714  35.5311089  11.0884101
  64.8078758  34.9862588   9.7960775  81.6348786  31.0071247  13.0415550
  80.8970873  30.5015022  12.5588768  81.4955014  31.8918801  12.6074267
  73.2319937  20.9198276  28.9581842  73.1940936  20.3276479  29.7309329
  73.0480689  21.7687134  29.3695012  67.6255155  27.3420923  20.2894772
  66.9988727  28.0318165  20.4052999  67.1025473  26.5595091  20.2535503
  69.4213902  30.3066145  10.8255895  70.0829887  29.9420329  11.4096354
  68.8576970  30.7238254  11.5193798  58.7510239  36.7334486   7.5431394
  59.4873751  36.3267857   6.9871545  58.0328648  36.6893033   6.8540616
  72.5620730  33.2904184  25.7256270  72.7898118  32.3588416  25.9032202
  72.4235849  33.6498950  26.6570283  70.8516301  29.3185762  18.7577204
  69.8599265  29.4394270  18.7313318  71.1408474  30.1827542  18.4283177
  63.7472998  23.2287949   3.8480705  63.9383575  23.0426710   4.7706405
  62.8623374  23.4788797   3.7980107  75.1621167  22.2245816  18.7091672
  74.8101384  21.3440871  18.7644526  74.4015189  22.7087285  18.3968036
  60.9739296  12.6758472   3.6297769  60.9699424  12.3126581   2.6856186
  61.6971921  12.1008304   3.9983444  81.2546905  32.9924606  22.1542543
  81.9295671  32.5503926  21.6229051  81.7847240  33.7009229  22.5663986
  66.6065368  28.2888038   7.5072109  66.1236561  28.4429499   8.3568375
  67.1344818  27.5065049   7.7197520  68.0808989  29.6910194  18.2315632
  67.2919347  29.3278310  18.7177945  67.9083269  30.6635228  18.3550886
  72.9428445  19.7305823  26.3653477  72.6786026  19.9800959  27.2328457
  73.6760152  20.3983392  26.2018265  75.0769755  26.4295258   9.6617046
  76.0507064  26.3202595   9.6524941  74.7459360  25.6058668   9.3330773
  72.2020894  22.8846695   7.6884405  72.2211035  23.6022315   8.3011592
  71.5866555  22.2466650   8.0206574  71.4543602  16.8695963  20.9559841
  71.7235059  16.4354036  21.7917575  72.1691717  16.6074320  20.3356241
  87.3451910  35.6516078  15.2881249  86.8882186  35.5360230  16.1684492
  86.8855398  34.9970246  14.7824399  83.3730421  32.3856749  34.5822835
  82.9652929  33.2312968  34.9012133  83.0631328  32.3702445  33.6484777
  67.4264013  23.9061534   5.1528016  68.3926864  23.9887576   5.1799525
  67.2527534  24.3821785   6.0164814  63.3365890  28.7040832  11.9050056
  63.1913839  29.5799051  12.2739745  62.5118448  28.5779704  11.4400771
  66.0103897  22.1018708   7.0672423  65.2018144  21.8831320   6.6153094
  66.6135089  22.2931512   6.3170394  85.9806185  28.0413592  16.0130140
  85.8261881  27.4333818  16.7718326  86.6537142  28.6346677  16.3795049
  82.4819700  35.2919316  23.1524888  82.1561495  35.7150915  23.9660827
  82.4070046  36.0551053  22.5119261  70.9818521  36.9616285  17.8652114
  70.6417140  36.4783108  18.6418817  71.0866714  37.8285493  18.2711490
  73.6382404  40.1838210  18.5638848  72.8298643  40.0195950  19.0725861
  73.8575195  39.2873414  18.2322395  73.2159799  43.3894797   8.2106372
  73.5474982  42.9620153   9.0951487  74.0523671  43.8095488   7.9333937
  74.5936780  36.9514546   1.9937673  75.2654500  37.1434503   1.2751979
  73.9613821  37.6753723   1.7835390  78.2165559  20.7131891   9.4649027
  77.6612714  20.7674370   8.6741018  79.1330082  20.5626505   8.9761212
  79.3883863  25.5135348  14.4322796  80.2063316  25.9688773  14.0105233
  78.8125143  25.5170228  13.6248685  69.4014645  19.6310109  33.5257695
  70.2617081  19.3260456  33.9581574  68.9664509  18.7413740  33.4979845
  65.9563683  48.8675921   8.1604997  65.8440609  48.0362735   8.6350393
  65.8827440  48.5328172   7.2124244  63.2671515  31.1768520  -2.5888427
  64.2086908  31.2571844  -2.8657109  63.2048662  30.2050616  -2.3923848
  68.0407906  24.8347299  11.7991092  68.9174659  25.1208348  11.4562559
  67.4725689  24.8485641  11.0151830  82.2531935  29.7750586  19.2662114
  83.0039011  29.8474753  19.7798707  82.4067199  28.8986068  18.8074146
  65.8712969  38.2267809  13.8669844  66.5438846  37.8351162  14.4799475
  66.0618562  39.1711336  14.0830041  76.0202722  30.3670659  18.4245805
  76.9531182  30.3340272  18.2350999  75.6652837  29.5662695  17.9862618
  63.4899483  37.3193582  16.9760507  63.1882294  37.1902576  16.0722468
  62.8732174  38.0628140  17.2241620  73.9588533  31.9561394  19.2102514
  74.5547951  32.7891774  19.1944250  74.7307448  31.3450775  18.9718542
  70.4612405  19.0983344   6.5459661  70.0788087  19.4034926   5.6896519
  69.6537208  18.5703668   6.8782884  84.2862023  30.2413072  16.1368704
  84.4718637  30.3505276  15.2057604  85.0290175  29.6376417  16.3898586
  62.8284240  36.1342502  14.6447716  62.3022321  35.6717548  13.9383708
  63.2820909  35.2591864  14.9886667  62.7566813  32.5808327  -0.4242426
  62.7699332  32.0784379  -1.2789781  61.8387911  32.9304806  -0.4920960
  67.2181740  41.3003113  10.8625056  66.7900557  41.1430455  10.0456966
  66.4530021  41.6059938  11.4377855  78.0837400  38.8324170  15.0989893
  77.8390575  38.3468136  14.2347457  77.1432945  38.8474999  15.4878170
  74.5384273   9.2806235  30.1160805  75.3689907   9.4233827  30.6410509
  74.4974355   8.2945465  30.1706692  78.5114619  16.2757524  18.3142617
  77.9301053  15.7162407  18.8977459  79.3955423  16.0035818  18.6764425
  78.1829794  23.1481635  26.5453428  78.7990145  23.8833572  26.5436348
  78.0063127  23.0400997  25.5805066  63.0188725  22.2658573   9.9919416
  63.5159381  21.8172248  10.6915287  63.7158141  22.9159072   9.7388786
  79.6926812  43.0561085  23.5446585  79.6622704  43.2181448  24.4939489
  79.4191932  42.0564504  23.5941327  73.8174028  29.9013344  29.2181902
  74.2877688  29.0996171  29.4521346  73.2836184  30.0593578  30.0624711
  71.7919132  31.6166701  17.6585096  72.3953301  31.1453525  17.0079292
  72.5151816  31.8252572  18.3496584  68.5780139  21.1683656  21.1300210
  69.3673908  20.5710675  21.1759336  68.4223489  21.1373454  22.1830892
  60.4955656  20.2318626  -6.0579678  61.1573556  19.5703677  -5.9046107
  60.9105377  21.0033940  -6.3669405  78.5772356  29.8754017   6.2080866
  79.3621636  29.8642805   5.6366646  77.9085340  29.4624561   5.6077365
  75.0514738  14.6102569  15.9508538  75.8516960  14.1214850  16.0974026
  75.2873906  15.5214580  16.2190451  74.2415662  11.6107591  14.9598373
  75.0365775  11.7245750  14.4264172  73.6678654  11.2310161  14.2637846
  67.0152021  36.3274875  15.1798345  67.8158267  35.7382645  15.2683521
  66.3771713  35.7844125  15.6596089  67.3927157   5.3290277  27.5741026
  67.9130400   5.9837981  28.0552256  66.7526993   5.7425767  27.0692776
  80.5876395   8.6945749  13.3886597  80.1485690   8.9126529  12.5055193
  80.9635013   7.8049182  13.1931000  68.9015900  31.4809884   8.4980045
  69.1993053  31.0808494   9.3600589  69.5302273  32.2842445   8.4792162
  62.6276367  21.4782727  21.4254261  62.7229366  21.0088552  20.6004141
  61.9195499  20.9251250  21.8384750  73.4094985  24.7494624  18.0469022
  72.5047620  24.7467072  17.6998121  73.1871844  24.7735144  19.0091348
  79.6934726  33.0822699  16.3224930  78.8232229  32.6430719  16.0772538
  80.2344249  32.2596637  16.3304285  60.7300691  28.9388265  15.6805916
  61.7011070  28.9867828  15.8825174  60.7214018  29.0448633  14.6906417
  77.0245832  29.5200952  15.4510066  77.1907953  29.4614445  14.5156409
  76.4658613  28.7717698  15.6685726  62.4644137  34.4057820   4.2594091
  61.7282828  33.7220067   4.2315130  62.3271274  34.8820917   3.4097602
  82.1166703  15.1462907  31.3427966  81.5326685  15.8902417  31.0883962
  81.4468281  14.5301756  31.6919535  79.9998591  28.5010771  16.4053722
  80.3780978  29.4017330  16.1924924  79.0655531  28.7380247  16.5613039
  79.2842619  20.1871655  24.0194983  79.1364451  20.3350476  23.0422792
  79.8020833  19.3746755  23.9981427  70.6975986  20.5792648  25.0656996
  71.5107304  20.2650234  25.4895680  71.0448246  21.3216584  24.5183245
  76.9187034  21.7619195  15.6851218  76.0443622  21.5080649  15.9595751
  76.8057109  22.7226372  15.5384729  79.2836056  20.8590295  18.7100236
  79.8919024  21.2172806  18.0280980  78.7002345  21.6623277  18.8064480
  71.0692534  24.7473741  22.9247468  71.3650324  23.9282123  23.4790272
  70.3129377  24.9726265  23.5691187  72.7130024  18.2320438  14.4984539
  73.3157671  17.5043040  14.6656541  71.8771051  17.9567470  14.8067879
  72.3545494  27.4393251  16.2630779  71.6169441  27.8811379  15.8401449
  72.4318183  26.6046088  15.7667746  76.4101585  11.5346352  21.4266664
  76.9935201  10.7758774  21.5244166  76.2109890  11.7646678  22.3676510
  70.7103767  35.1633938  13.7793853  69.9824076  35.2884217  13.1967806
  71.2178771  34.4572937  13.3053356  66.5338044  11.3258983  25.5919536
  65.8554676  10.9101642  26.1329607  66.2282883  12.2606345  25.5230250
  68.3753968  20.6639345  23.9517980  67.9823408  21.0868962  24.7219415
  69.2917248  20.5991514  24.2713113  62.4681676  30.6851209  18.0449556
  62.7354154  30.4482200  17.1210090  62.0212756  29.8041901  18.3135512
  72.5570377  30.0641639   9.2803372  73.5045424  29.9293346   9.3580761
  72.5547904  31.0730975   9.2088168  65.6194169  36.3368219   5.0243831
  66.5769845  36.1226928   4.8611493  65.3055351  35.4440429   5.1475193
  71.2228286  36.6179296   3.7590601  71.0366238  36.2728322   4.6635589
  71.9608684  36.0744903   3.4943012  80.9934107  27.8983776  22.6965369
  80.2743905  27.6329971  23.3436251  81.5861488  28.3426838  23.3421581
  75.0424242  37.9747389  15.1495548  75.5503657  37.3049843  15.7099390
  74.3494316  38.2310439  15.8163355  72.4888802  45.3800568  12.8054695
  72.1133323  45.7440699  11.9445082  73.3344753  44.9860530  12.4867568
  72.5689480  24.3640257  20.7244387  72.1497520  24.6567053  21.5769375
  71.8892512  23.7275156  20.3769467  88.9983232  51.8599695  12.5220121
  88.5926468  51.1196610  12.0704391  89.9719453  51.9068946  12.3006038
  78.0310992  42.2726567  17.3377436  77.1884454  42.3450134  17.8297695
  78.6352949  42.7140441  17.9346899  81.4952230  30.7693687  15.6359288
  82.3740693  30.5538063  16.0383118  81.7855038  30.8807810  14.6954064
  81.9877271  45.5201886  24.7357021  81.6698237  44.5835528  24.7677489
  81.3263863  45.9557812  25.3073939  80.0758867  46.3216427   2.3292025
  80.2833333  47.3022732   2.2736617  80.4276412  46.2181604   3.2610251
  74.7848677  43.4576125  12.8231978  75.6815086  43.6551440  13.0362036
  74.4842706  42.9426939  13.5596132  78.0167420  41.8960119  20.6411677
  78.4406236  41.1237937  20.2359238  77.1111820  41.7049621  20.5375569
  77.6475952  38.0776462  12.3398697  77.0212967  38.6676402  11.8519649
  77.7601732  37.3296384  11.6678836  95.5298273  27.8052412   4.6755829
  95.6610078  27.4003760   5.5728824  94.8956281  27.1240146   4.3364896
  76.2398213  36.2015133  16.5621920  77.0987566  36.1058502  16.9386277
  75.9650267  35.2362910  16.4803239  77.8950746  20.1180487  13.8968810
  77.2262088  19.4975320  14.1152978  77.8523254  20.8074342  14.5171455
  71.0572192  39.4118909  19.7803491  71.3292985  39.1665337  20.6864669
  70.0834714  39.4265072  19.8801989  83.2300003  46.3065268  18.4122595
  82.9269308  46.6047002  17.5391119  82.3867652  46.3530533  18.8825487
  84.8055139  51.5278921  20.7763699  84.4428810  50.6115623  20.8930570
  85.7566397  51.3036052  20.6591880  82.5234906  29.1109634  24.9886480
  81.9662262  29.5602862  25.5886124  83.1831472  28.7128145  25.6316340
  86.6305233  33.5584477  10.0315501  86.4283076  33.0523879   9.2081408
  87.5683962  33.3777547  10.1211514  75.0053259  24.4400799  15.9244651
  74.6769957  24.6535564  16.8552037  75.7574649  25.0813024  15.9336656
  69.4957342  39.4941235  13.2350508  69.5155014  38.9557839  12.3799773
  70.1120084  38.9553572  13.7837478  75.0765325  33.6042862  11.1416103
  75.7383171  32.9410585  11.3420847  75.1782360  34.1772012  11.9771070
  76.9053205  50.8842865   8.6181280  77.0714728  51.6976855   9.1176660
  76.0418425  50.6157037   8.9779618  69.0521642  45.3103637  16.4104009
  69.6376287  44.7847672  15.8271800  69.7183200  46.0260772  16.6672679
  78.6597231  35.5604501  17.2839005  79.0630500  34.6655224  17.1690444
  79.4933370  36.0808076  17.3816268  80.2088730  43.4427060  26.3521574
  80.3746074  44.1942171  26.9908925  81.1047806  43.1652699  26.1118037
  72.6829349  40.1531189  13.9172597  72.4867154  39.1658783  14.0104403
  73.6422499  40.1414436  13.7836076  82.4342466  43.0004568  15.1004172
  83.1150167  43.4118300  15.7194031  82.5672910  42.0617818  15.3989916
  78.4815947  56.0608269  13.8033704  79.2732775  55.4996968  13.9224854
  78.9257604  56.9306781  13.9849858  61.4528101  40.5043365  11.0663788
  61.7040421  40.8412263  10.1418946  62.0292476  39.6932402  10.9849458
   6.3500480  35.4017201  69.9307962   6.2250177  34.6576991  69.2749878
   6.2230560  34.8402949  70.7411988  -0.1797759  34.1710335  62.6127603
  -0.3720630  33.9118299  63.5394479   0.5029575  33.5026772  62.4293744
  -1.2959001  43.0786008  58.5944103  -0.4577032  42.8582275  59.1093632
  -0.8705204  43.3518746  57.7554759   4.3506819  31.9376739  66.3046201
   4.6533472  32.3337503  65.5050810   4.9222051  31.1646342  66.4092317
   6.9236110  40.4265859  67.2729574   6.3251905  39.6501453  67.0590691
   6.4559656  41.1536599  66.8345821   2.9466125  49.4703418  56.9099394
   2.7594387  48.7051854  56.2699882   3.7882671  49.1732951  57.2955438
  -2.0695036  42.4254726  76.5070883  -2.2015545  41.5257182  76.1372481
  -1.0834113  42.4209586  76.6966865  -0.7688663  45.8252794  77.3863150
  -0.1969771  45.4039383  76.6995187  -0.0830631  46.5301101  77.6858953
   0.5017680  34.6229196  71.7457668   0.4399884  34.1153813  72.5891164
  -0.4352547  34.9510393  71.8139654   1.4197251  27.2714833  63.3741717
   1.8654470  28.1651653  63.3664310   1.7003023  26.9067584  62.5194902
   3.0817672  33.3288432  70.6114549   2.7451714  33.8913796  71.3761039
   2.7384831  32.4475695  70.9027071  -4.8134499  45.5871994  47.4848617
  -5.4133187  44.9745977  47.0404663  -4.9143026  46.3804932  46.8877748
   2.2172626  36.0439905  63.2579165   2.0285230  35.4236935  64.0163124
   1.4965258  35.7170957  62.6618226   7.1578542  45.4708755  72.1330352
   8.0265343  45.3693997  72.5916649   6.5252318  45.3502609  72.9042224
  -4.6562882  42.7042122  61.9580139  -4.1088719  43.4678242  62.2964665
  -4.0061792  42.1624440  61.4952558   2.5064152  35.8564282  58.4080560
   1.5762124  36.1636973  58.7107664   3.0119654  36.5157165  58.9348949
  14.3470434  34.1840171  75.0464142  14.6587622  34.8788630  75.6643579
  13.3997896  34.1426029  75.3352514  -8.8392706  20.0989035  71.8122341
  -7.9937883  20.5557010  71.9781588  -8.7401740  20.0781031  70.7768796
  -2.6794253  44.6887226  70.6238384  -1.9804607  45.2129823  70.1020023
  -3.4829857  44.9991277  70.0700427   9.1174228  33.6714793  59.3116498
   8.7558027  34.4588761  59.7464814   8.4810904  33.5168849  58.6109746
  -1.8908778  31.8787899  68.3893762  -1.3603679  32.7068264  68.3645468
  -2.4523301  32.0457038  67.5663876  13.3725062  33.4017639  71.9842924
  13.6832961  32.5596183  72.3864315  13.7877639  33.3485131  71.1261112
  -2.8418766  46.7581765  61.9132259  -3.3952014  46.7797344  61.0952113
  -2.3438191  47.5826965  61.8512751  -0.9678275  40.0204610  62.6718502
  -1.6060543  40.1811592  61.9513192  -1.5162359  40.4072259  63.4378449
   2.1830914  61.6566323  64.1982769   2.9235374  61.2718625  63.6813082
   1.4057922  61.5930659  63.5792074   6.4690179  48.4873175  74.4827513
   7.3687784  48.4884637  74.8713726   6.7311971  48.5059982  73.5240162
   0.3533639  70.2237662  62.4198575   0.1366349  70.7634717  63.1932639
   1.3395221  70.2898379  62.5238076   5.5530276  47.6837497  54.6498127
   6.0053020  47.0967160  55.3152328   6.0453737  48.5352315  54.8417908
   1.4143750  52.5036552  49.8147879   1.9491912  52.7064952  50.5947329
   1.5402342  51.5098469  49.8278835  13.8468857  52.1319471  62.1236277
  13.0236031  51.8434810  61.6062128  14.5192460  52.0666102  61.4053218
   1.7516392  45.5639018  68.9762335   2.2679106  45.1238103  68.2421982
   2.5010949  45.8913581  69.5040075   9.7626839  39.9254284  71.1424837
   9.4153743  38.9779819  71.2519291   9.2545211  40.4080015  71.7739555
 -15.9834991  56.1491665  65.2326610 -16.5197196  56.8486583  65.7336866
 -15.8293720  56.7295509  64.3962010   2.9680553  75.1961695  54.4884993
   2.4219000  75.5268522  55.2654227   2.2386692  74.8495706  53.9645548
   5.7839358  46.0682805  66.4921097   5.1813696  46.4402798  65.8632171
   6.4547853  45.6867447  65.8516763   0.5325183  49.0761044  58.0251742
   1.1200799  49.3233286  57.2782703   0.2609397  49.9908107  58.2877686
  30.4948943  72.2426210  65.6852877  30.4447211  72.7869257  64.9121063
  31.4420152  72.2566209  65.9114442   7.4924287  40.4217917  54.4053017
   8.2713218  40.8670311  54.0640954   6.9490516  40.2181915  53.6392546
  12.4845267  47.2316685  68.0821070  12.4013155  48.2081264  68.0134173
  12.9980195  47.0250595  67.3140933   9.6912907  46.2840314  64.2142764
   8.8414454  46.7212094  64.1865490   9.5639981  45.6042089  64.8746405
   8.5518008  55.3179840  74.8065091   7.8865559  55.6438147  75.4411607
   8.0196888  55.4177595  73.9722454   1.7132387  66.6221716  63.4042250
   2.2347033  67.1229660  62.7403973   0.9500651  67.2192001  63.4811317
   5.9619624  53.5031749  68.1281816   6.2622244  52.8441271  68.8256467
   5.5494953  52.8708034  67.4965265  29.3045614  69.5593942  66.4626166
  29.7560996  70.0844265  65.7437394  28.5514969  70.1291055  66.6347954
  14.8132744  51.5831453  66.4426472  14.5111103  52.4625167  66.0837616
  14.5166659  51.0097583  65.6661528   2.4835690  59.6354896  68.1778953
   2.6957221  59.0212024  67.4238999   1.6614771  60.0632362  67.7895978
   3.6389461  41.1243552  56.4800656   3.7662436  40.7454568  57.3469378
   4.4998083  41.5415125  56.3046474   0.6634853  53.8014800  71.4098708
  -0.3227967  53.6776395  71.4681275   0.9121014  52.8927334  71.2111477
  19.3261173  50.4132601  62.2609541  18.8560547  49.8311559  62.9300156
  20.2379925  50.4402905  62.6039822   0.6837266  52.7543964  54.5209549
   0.6881847  53.0051504  55.4808723  -0.0843457  52.1463998  54.5277653
   3.0632356  43.8351520  76.3482399   3.0939009  44.4376065  77.1651745
   3.8527969  43.2964469  76.5402502   0.8715240  42.1947495  62.6559532
   0.5080646  41.2568304  62.7574171   0.3030179  42.6227962  63.3560363
  -2.4502520  47.3930092  47.0446405  -3.2641967  47.7558900  46.6723369
  -2.8014073  46.4816028  47.3037147   8.9934092  45.5104040  61.4490502
   8.8754044  45.8391876  62.3658539   9.4944750  44.6796383  61.6068403
   1.4371367  42.2377719  59.3508987   1.9762989  41.6076402  59.8794016
   2.1578874  42.5623725  58.7471292  13.6969285  54.2212445  65.9558792
  13.3326527  54.4896369  65.0805037  14.0981027  55.0698452  66.2330602
  15.5806898  48.3728999  56.4038111  15.5882339  48.0055880  57.3227146
  14.5742604  48.4096935  56.3165615  -3.9542033  56.4040247  61.4070153
  -3.4291888  55.7878439  60.8384824  -4.1956083  55.7582579  62.1224201
   9.4485403  60.0006544  59.8328025   9.8465316  59.3725956  60.3967165
  10.2315933  60.2194903  59.2178763   8.5913242  52.6366465  61.7905758
   7.8998164  51.9677923  61.8737278   8.0039579  53.4571098  61.7800836
   6.8522106  52.0930057  64.3101308   7.7401055  51.7921714  64.5417694
   7.0089294  53.0802701  64.3394219  -7.0442884  46.7753802  54.8575926
  -6.3134940  47.4368700  55.1106860  -6.6665078  46.0645222  55.4399125
   2.4714122  59.6449793  54.5286220   2.6985098  60.0993619  53.6953853
   1.9458649  58.8753313  54.1735197   0.0950900  55.7733787  58.3884740
   0.1910151  56.7451311  58.3608668   0.9695995  55.4624290  58.6692571
  -1.2171982  43.1789886  64.3929378  -1.5738588  42.3634709  64.7903544
  -2.0666196  43.4984962  63.9805520   4.1789592  43.9267406  55.1672542
   3.4894542  44.2392239  54.5445762   4.8497614  43.6035532  54.5986394
   9.3115345  51.2306146  66.5855567   9.9654022  50.6769770  66.0964311
   9.8887316  51.9808954  66.8739259   1.2600564  51.6681596  64.7581969
   0.9503160  51.4384343  65.6781559   0.8936419  50.9071437  64.3171676
   6.9800335  55.7258667  66.9488418   7.8906345  55.3463346  67.0605909
   6.4644522  54.9619074  67.3027042  12.7381319  38.6685722  69.4788409
  12.1630980  37.9936337  69.9201536  12.9144036  38.2708990  68.6147821
   5.4868851  45.7752664  52.2816658   5.4556302  46.4928612  52.9489467
   5.7781258  45.0236377  52.7990895  -6.5529110  61.9288020  63.3018916
  -6.3348374  61.3624648  64.0724366  -5.8203182  61.6702928  62.6933458
   1.8110743  55.9420733  70.3302889   1.2659649  55.2004434  70.7060834
   1.4943156  56.0145331  69.4323595  -1.4887851  58.7942973  63.5398420
  -0.9986837  58.4637662  62.8129746  -1.6728644  57.9557539  64.0964106
  11.9379267  56.4033926  64.2881469  12.8413985  56.6627297  64.0499281
  11.6665191  57.0982477  64.8714579  22.7338037  58.1819439  64.2537063
  22.2322687  57.8634116  65.0186801  22.2690447  59.0090284  64.0662294
   4.6100257  40.8565201  77.1237006   5.3704726  40.4347771  76.6660342
   4.9551067  41.7818743  77.1215693   9.6323619  55.2060545  68.0389668
  10.0923722  54.4359448  67.6187116  10.3594165  55.8646189  68.0305348
   0.5258503  58.6699498  59.0007452   0.0862901  59.5169767  58.7382661
   1.3681111  58.8653917  58.4012975   4.2862316  58.0642203  76.3233882
   4.3388751  58.0474783  77.2716396   4.0836125  57.1950884  76.0160066
   8.1531849  57.9099333  67.9862533   7.7154853  57.1088683  67.6049539
   8.3515208  58.3934487  67.1537581   9.6788765  72.4309010  63.0195783
   8.9425035  71.9405938  63.3956137   9.2148274  73.1431059  62.5505739
   5.6693540  70.2602281  58.0722278   4.7528323  69.9980727  57.6764483
   6.1572286  69.5779871  57.5887703  -4.6086957  63.1086850  54.5426775
  -4.1529165  62.3024610  54.3791326  -5.5011887  62.7471308  54.8343775
   7.0101328  62.6554392  61.6940467   7.5249833  63.4961034  61.6683766
   6.1603006  63.0139162  61.9864315  11.0438762  40.7996405  64.8676715
  11.5357047  40.3076312  64.1823977  11.1554119  41.7329659  64.5667670
  17.9395077  45.1643484  68.9987601  18.9166639  45.2041243  68.9573969
  17.8332135  44.9578984  69.9904177 -14.7051421  54.8098624  70.4149366
 -15.4990325  54.9506877  70.9913013 -14.0673186  55.4639355  70.8204859
   8.3945225  42.6229104  57.9860749   7.5451245  42.3979298  57.4507280
   8.9065031  41.8207442  57.8579680  13.1312099  46.2461816  55.4785332
  12.9825144  47.1899834  55.2790725  13.6147040  45.9491502  54.6558884
   7.8234402  60.4270317  62.6559731   7.6632781  61.3852061  62.4925026
   8.2500252  60.1998297  61.8692375   8.1325201  43.6686446  70.2570378
   7.3622787  44.3286981  70.3068586   8.0013885  43.4101411  69.3102205
  -4.2238193  55.7157147  67.7588362  -3.4409013  56.2510805  67.4717339
  -4.3783370  56.1282415  68.6652684   4.4320521  56.1791541  62.6553270
   4.2792026  56.3307877  61.7249649   4.0157224  55.3011626  62.7888268
  -1.9577711  44.6529926  54.2259021  -1.3434338  45.3550322  53.8806657
  -1.8264117  44.6566695  55.1513322  15.2149000  58.0471933  70.5536961
  14.6084629  58.3869323  69.8376552  16.0191861  57.8468355  70.0282159
  -6.2890565  49.3149568  67.0078109  -5.8301919  48.8767030  66.2810490
  -7.2325986  49.2350734  66.7310313  11.3314154  53.0672351  67.0608415
  12.1714294  53.3330382  66.6828166  11.4948145  52.8798860  67.9610727
   7.8536724  51.3685671  73.4867225   7.5534739  51.7090414  74.3500084
   7.1203239  51.2911959  72.9423713   2.0761245  35.6076302  75.1484067
   1.5145824  35.8449770  75.9606301   2.3921103  34.7275180  75.4567642
  10.3533217  43.3939683  62.2076160  10.9508159  43.3222195  62.9955827
  10.0341823  42.4410018  62.1994892   6.1806535  49.5244670  65.2244549
   5.2170857  49.6668665  65.0208474   6.6038517  50.2580832  64.7241886
   0.2939952  40.3088487  66.1186397   0.9318421  39.7782788  65.5482061
  -0.5289533  39.8233419  65.8533271   5.5506598  45.8979936  74.4439755
   5.9477529  46.8182594  74.5274177   6.0167988  45.5605072  75.2321070
  11.6381933  52.1881963  64.1445189  10.8784871  52.2821507  64.7463186
  11.6329313  53.1038981  63.7543281   9.4428472  69.0112620  59.7421063
   8.7617340  69.1656358  60.4654620   9.8068725  68.1681502  60.0257695
   3.9479236  40.1833512  62.9538919   3.8957654  41.0188756  63.4667966
   4.8623069  39.8514035  63.2435656   6.0939724  41.9908229  61.9919542
   6.2918029  42.6127312  62.7154453   5.6379785  42.5820730  61.3581905
  20.2931604  67.9516307  64.4421573  20.6655271  68.2936120  65.3101727
  19.5461944  67.4003021  64.7294578  11.8486603  60.4346998  58.6436594
  12.7460501  60.6065771  58.1984795  11.9672245  60.9256738  59.4597378
  12.9027826  59.4825468  55.9423390  12.5527827  60.3294623  55.5600616
  12.3381715  58.8122821  55.4992605  13.1914981  50.7480209  77.7553302
  12.6049105  51.5525490  77.7885322  12.8139859  50.2571223  78.5311677
  -0.1424218  58.4865918  72.4741172  -0.6186670  59.1191512  71.8912375
  -0.1623635  59.0628815  73.3089619  21.3893632  55.2621184  61.3887732
  20.8521138  55.6309115  62.1052114  21.9454518  54.6584059  61.9140294
   3.9499504  53.2301444  65.6008404   3.7396748  52.4707331  66.2205178
   4.8010667  52.9085420  65.2689073  -0.8666633  40.4755482  73.3592466
  -1.2924492  41.2816673  73.0717676  -1.4253059  40.2869990  74.1449943
  11.7335380  39.8183252  59.9782179  12.3733332  40.1004953  59.3022316
  12.2416635  38.9953614  60.3048008  -1.6320887  69.5400992  54.1765103
  -1.8409627  68.7475713  53.6757001  -2.4499956  69.8305740  54.6225216
  11.8735461  56.6554749  68.1582101  11.6462298  57.1116432  67.2641766
  12.8100156  56.8659358  68.1836080   8.9105701  42.1122845  67.9029170
   9.5540176  41.3501430  68.0419850   8.0532715  41.6336179  67.9192780
  -1.0669481  67.0423031  56.7269774  -0.9986173  66.6479281  55.8361439
  -1.7638616  66.4988434  57.1575988  -4.8023065  58.4110814  65.2151648
  -4.6988282  58.4724350  64.2597709  -5.1609113  57.5045984  65.3064102
  11.0299166  52.0780281  60.7569491  11.3778943  53.0167523  60.7440831
  10.0884860  52.3197556  61.0503290   0.1847318  61.1710109  67.3844998
  -0.3610708  61.6142598  68.0835498   0.1059536  61.8702625  66.6731959
  15.6666327  59.3092983  75.0805368  15.5742703  58.6249200  74.3458863
  16.2203059  58.8666193  75.7015949   7.8387252  41.8340427  72.3863032
   7.8635811  42.6870160  71.8329262   8.0416237  42.2809315  73.2498851
  26.6720405  55.3740570  69.4881762  27.1250499  55.8387385  70.2494761
  25.7424744  55.6512902  69.6087354  14.5973945  45.5618990  74.5655083
  13.7310681  45.8892408  74.8828261  14.5248762  44.6106371  74.5838948
  -8.6535688  67.4397235  51.9680792  -7.7568303  67.0795973  52.1736267
  -9.1424518  67.4118362  52.8088839  -0.2710491  41.0104014  53.0815629
   0.1348771  41.1707192  53.9650882   0.3485085  41.4254483  52.4700227
  -1.7360838  38.3119445  65.6233519  -1.3960698  37.6347154  66.2494011
  -2.6867843  38.0066789  65.5647929   4.3930639  39.8345432  53.8404195
   3.4910202  39.8221531  54.0044012   4.8094713  39.1126876  54.3015049
  11.0053080  49.3132023  65.5238629  10.8331947  48.5991305  64.9077470
  11.5601316  48.9363146  66.2264679   7.4168559  44.9551009  59.1069031
   7.6673612  44.0284968  58.8384651   7.6584222  45.0055815  60.0026175
  -2.1573158  54.6708706  59.9939313  -1.3042129  55.0521874  59.7688794
  -1.9888675  53.7020148  59.9173235  16.2459354  67.4157543  73.9988610
  17.0717700  67.6619604  74.4713070  15.7936933  68.2566008  73.9315773
  16.6054187  53.1648568  49.8422827  17.0255351  53.4583324  50.6752997
  16.3203661  54.0348533  49.4859395   4.6467622  63.2964865  62.8906759
   3.8673050  63.5923046  62.3203161   4.4782591  63.9418387  63.6387083
  14.5687613  48.1837567  63.2422739  13.6548244  47.8304226  63.3160649
  14.4168284  49.0598832  63.6665897   2.9045896  47.6695690  54.9059076
   3.8566223  47.7787136  54.9270485   2.7551769  46.7486203  55.0382706
  11.8585007  41.7974366  70.1565926  11.8918952  41.5238597  69.2224941
  11.1003397  41.1955177  70.3999184   6.7449738  57.4587412  56.6740357
   6.7342161  58.4382929  56.6092988   7.3123935  57.2756971  55.8778666
   6.9455454  44.4181819  64.0167090   7.2185281  45.1234028  63.3754783
   7.7293442  44.2899817  64.5364085  -2.6995320  41.1559205  65.1861694
  -2.6879952  40.2817726  65.6660663  -3.6425646  41.3280055  65.2405442
  -3.7388615  42.9150046  48.3054679  -3.6856538  43.8738905  48.4321883
  -4.0617517  42.6696585  49.2208245  12.7917085  78.6888917  64.4658911
  12.7817709  79.0545193  65.3558256  12.7110738  77.7006066  64.6722545
  10.9295235  66.4379363  63.1979397  10.0606567  66.6479112  63.7039945
  11.3167623  65.9298198  63.9654229  16.3351928  68.2689684  67.5168415
  15.5595628  68.1341970  66.8608492  15.8065323  68.3856280  68.3289843
  24.4543688  72.0493396  58.3049660  25.0004772  72.2739105  59.0909913
  23.5825448  72.2984751  58.6174248  25.3035477  72.1732456  53.6450218
  25.4876376  72.7332437  54.4085070  24.5000371  72.6776702  53.2950440
  16.4354149  72.7702226  65.9965550  16.1979263  72.9849585  66.9287295
  16.7819010  73.6501422  65.7274715  24.4050259  89.8053846  60.3746163
  24.6417950  89.0995549  60.9943099  23.6388127  90.1748872  60.8378641
  13.7234186  64.4043022  61.7785411  13.7204019  65.3420143  61.5217442
  12.7614192  64.2275814  61.6010774  21.4143732  71.6666666  51.0195120
  21.0637077  70.9293111  50.4954723  20.6290269  72.2717006  50.9713086
  19.7865358  60.1277328  68.3205256  20.5079610  60.3843909  67.6568495
  20.3849472  59.6127729  68.9459993  25.5892507  63.1104233  65.2126068
  25.2822617  62.2216641  64.9073894  26.2750693  63.2947078  64.5232711
  15.8585198  70.8416691  62.8089093  16.2215459  71.6089117  62.2425480
  15.7389426  70.1975000  62.0607415   1.2031657  71.3080510  57.5688855
   2.0985097  71.4891172  57.2356928   1.0042219  70.5270578  56.9713069
  17.7787741  66.0374634  59.8277678  17.5266072  65.0683070  59.7139163
  16.9659271  66.3864416  59.3284679  14.5643068  56.5862590  66.8823284
  14.3868684  57.4698694  67.3243284  15.0385503  56.9515444  66.0804303
  20.4119908  67.1527603  55.9157583  19.6018252  66.7253061  56.2649909
  20.8489753  66.3498463  55.5415490  23.8270882  68.4397874  53.9731633
  23.9537805  68.9951285  54.7571157  24.5974608  68.6586902  53.4484237
  32.2280479  65.2697615  68.4376641  33.1431483  65.3818276  68.1100095
  31.8228429  66.0939431  68.0943213  20.0596972  56.5178826  69.1280606
  20.8818050  56.9058748  69.4824589  20.0746094  55.6249443  69.6210234
  20.2705416  61.4392329  78.0234568  20.5215740  61.6316957  77.0597777
  20.4299050  62.3175863  78.4102998  27.1222404  72.1462004  69.7519846
  26.8064526  72.9772519  70.2114484  27.6202146  72.5922991  68.9870039
  21.8169477  64.8747640  55.2391784  21.1717787  64.3040453  55.4440730
  22.3609405  65.0330215  56.0541027   9.8339396  60.7247756  50.2863562
  10.5269511  61.4149601  50.2482047   9.9081772  60.4220681  49.3476123
  10.9563336  72.3587707  74.1814101  11.3907818  71.5756816  74.6004551
  10.9139620  71.9929737  73.2609838  10.5063674  71.9676806  71.6113228
  10.6677945  71.2387537  70.9920575   9.5648198  72.2007475  71.3180822
  33.3426956  62.4229989  65.2264476  33.4835768  61.4744930  65.5646217
  32.6346430  62.6832664  65.8464536  26.4859801  63.8630944  74.3517343
  26.3576774  63.1018053  74.9440322  26.7861644  63.3813275  73.5327938
  13.1481916  69.3895978  57.7172657  12.5324755  70.1633325  57.7172013
  13.9625310  69.9191616  57.5622019  23.2569790  68.7852455  68.3937757
  23.0904884  69.4473745  69.0048347  24.2601090  68.7668491  68.4017515
  27.9009800  56.6927327  71.6621120  28.2696449  55.9633270  72.2256396
  28.7053295  57.3164068  71.7479401  18.5366252  56.6351738  52.7625090
  17.7839323  57.1316733  52.4439673  18.4739794  56.8323939  53.7416413
  18.6629117  69.2694347  62.5282717  18.2100955  69.4668626  63.3892734
  19.4907229  68.9141272  62.7939260  13.3785950  64.1631525  50.0938978
  14.0802644  64.8118595  50.4080052  13.5394953  64.1444223  49.1518686
   9.0689360  67.5307221  47.4925435   8.0861229  67.2234362  47.4074845
   9.0842625  68.0811003  46.6303630  27.9869528  76.3997051  70.7200079
  28.6883059  77.0411588  70.4731009  27.7847454  76.6513890  71.6600109
   5.3192215  83.7867290  67.7077088   4.9763515  84.1125066  66.8519348
   5.2264886  84.5809577  68.2481969  25.4247137  61.5414855  70.3338911
  25.1572230  61.2021706  71.1608012  24.6848552  62.0515673  70.0285525
   2.5293285  74.7709367  58.7508415   2.9451750  75.5180917  59.2433975
   2.1744900  74.2209062  59.4476474  16.1522581  60.1559517  84.1556016
  16.2494482  61.0669962  83.7894835  16.2694464  60.4697037  85.1116884
  10.2271207  59.8145582  52.8243583  10.1919262  60.0683619  51.8513200
  10.5364790  58.9165094  52.7326573  21.4122898  64.4473526  46.4465064
  21.8738198  64.1021039  47.2374884  22.0843184  65.0999073  46.1390847
  14.4449563  64.6117004  66.1380716  14.8334417  64.5002215  67.0256296
  14.4789426  65.6085054  66.0628960  17.9764957  75.7472437  55.6744929
  17.9740953  75.7267170  56.6281934  17.0741238  76.1246799  55.4797905
  13.0487352  68.7320165  71.8421798  12.1626497  69.0329203  72.1271474
  13.0809517  67.9140519  72.3472590   8.5378036  66.8495562  64.2521065
   8.0546483  66.8021850  65.0948815   7.7973500  66.4948656  63.6617031
  11.6059140  74.4232246  67.3965616  10.9475448  73.8206090  67.7437435
  11.8065456  73.9266613  66.5262545  23.3351036  74.6452923  77.1345848
  22.8367655  74.1291203  76.4975500  23.7340701  73.8756041  77.6803349
  10.8764114  79.5155502  62.8972925  11.4740535  79.7821546  62.1050314
  11.6079195  79.1550144  63.4669355   9.2016910  63.6672817  63.6545281
   8.3358382  63.8703493  64.0845635   9.8724370  64.0348096  64.3269863
  17.5496636  70.3770759  64.7656757  17.3645045  70.9692204  65.5171084
  16.7760608  70.6500968  64.1589885  12.2406551  74.7976454  50.0536186
  12.6442212  74.1222182  49.4081038  12.7901548  74.6844601  50.7994265
  23.2625839  61.8816559  74.3244974  24.0746137  62.0250797  74.9161265
  23.7187646  61.4986282  73.5507846  25.7074834  78.3161864  75.8956597
  26.3798835  77.8607127  75.4654645  24.9154722  78.0812913  75.3978323
   4.8023636  65.3252483  60.4386130   4.1905568  64.8985822  61.0615355
   4.1647043  65.8813864  59.9143230  10.9072312  58.3676686  65.8933358
   9.9852936  58.3048114  65.5744294  11.0404119  59.3489068  65.8623249
  22.9216766  74.0655281  65.0190962  23.0515042  74.1901196  64.0532064
  21.9539256  73.9032035  65.0844713  16.7570588  54.9488717  67.8685911
  15.9518139  55.4756568  67.6027258  16.9966313  54.5865416  67.0058471
   1.2767980  79.2057596  66.8134906   0.8724437  78.5450177  66.2068786
   1.8648114  79.7360725  66.2391495  17.1349234  63.7036436  52.1984197
  18.0158852  64.0644776  51.8320645  16.9746689  63.0018271  51.5360051
  10.9758659  55.4946602  58.7608779  11.1141410  54.7228821  58.1920906
  11.0147433  56.1777137  57.9837499   5.5599292  70.4274719  65.7093005
   5.2989287  69.5399618  65.3784117   5.7191620  70.9175595  64.9137639
  25.3497702  62.5842793  61.2678919  25.6475648  61.6545887  61.2940674
  25.2231972  62.8158099  62.2355168  22.7311064  75.9228100  66.9288031
  22.7731906  76.8139801  66.5304244  22.6702058  75.4048211  66.1117906
  19.4651239  55.5180526  64.0286736  20.2614383  55.3131613  64.5753122
  18.9093999  54.7181625  64.3449643  24.1480053  56.5611289  69.0982585
  24.6632142  56.3507442  68.3138378  24.0786229  57.5226922  69.0505371
  34.1121732  58.0493927  65.9796243  33.4772624  57.8579919  65.2686343
  34.9192422  58.2528973  65.4216562  11.6472781  51.9946297  69.6022172
  12.1386797  52.7125873  70.1235900  10.8200271  51.9282383  70.1385606
  31.8211838  74.2478267  78.6936420  32.8071053  74.0369357  78.6669855
  31.8717349  75.1156901  78.2130090   6.5522104  62.0217550  53.9558158
   6.6468802  61.0593432  53.7042142   6.0852057  61.9672722  54.7920394
  11.9524490  70.4437606  66.0897466  11.6411271  71.2481475  65.6779918
  12.7548414  70.2108711  65.6006446  -5.2229872  64.4392594  68.2024440
  -5.4211296  64.7347205  69.1378213  -4.2556715  64.5934195  68.1813599
   8.0193413  67.0127316  58.5952560   7.3774786  67.1771216  57.8986642
   8.3685993  67.8987074  58.7550898  35.1109607  65.2401000  72.1855010
  36.0687605  65.4602477  72.2026410  35.1288288  64.4486240  72.7716579
  23.4119395  56.9728877  59.5468622  22.8126109  56.9031918  58.7978153
  23.9649345  56.2074834  59.5488984   9.3309658  65.9969563  50.8243875
   9.7574215  66.0341330  51.7137268   8.6510569  65.3135126  50.9592279
  10.9975022  57.3453917  56.9427237  10.2820961  57.7445166  56.4166624
  11.5391482  58.1399102  57.0588703   9.6105239  77.0727837  61.6663140
  10.0982585  77.8045339  62.0305253   9.4757609  77.4384723  60.7281283
  34.2044479  73.0395872  61.2498523  33.6459226  72.2754897  61.5453582
  34.3989725  72.7584812  60.3262681  19.0815906  64.4041088  72.8987181
  18.9103966  63.4880897  72.4840845  19.1608507  64.9356206  72.0534804
   8.9844732  56.6499010  60.4488184   9.5668542  57.2844858  60.9665862
   9.5979767  56.5195293  59.6832991  13.7097213  60.8086072  66.2225910
  14.1614842  61.1053422  65.4122389  12.7971057  60.9615411  66.0354090
  11.6220754  69.2694373  62.9302223  11.6270181  68.3116984  62.7734036
  11.7080789  69.5688662  61.9895088  24.1889428  69.9976153  56.2711457
  23.3910339  69.9538723  56.8440384  24.6731372  70.7553160  56.6851314
  22.5341887  67.5854889  76.9388136  23.4904562  67.6745156  76.7627805
  22.3325686  68.4864489  77.3508927  24.4367807  78.9599135  65.0833037
  24.9527733  78.1104471  64.9744732  24.1467290  79.0817569  64.1718950
  21.7669313  72.1333360  85.8425843  21.2702359  72.3521544  86.6348361
  22.6749805  72.1939772  86.1932586  14.6203730  66.8857228  54.4453813
  14.1730356  66.5527874  53.6621705  15.5500296  66.9352751  54.2062678
   5.9650828  57.6761400  64.8684612   5.4583326  57.4508876  64.0572376
   5.5635172  57.0093226  65.4595595  14.3852666  67.8351679  61.5329410
  14.9232341  68.6386712  61.1885497  14.1203407  67.5030988  60.6740548
  12.7136482  50.0468010  67.7953488  12.4235063  50.7175977  68.4324809
  13.6938943  50.1794643  67.8128011  33.1482374  67.0110241  72.1259321
  32.6455308  66.2307538  71.7518600  33.9456240  66.5165567  72.4190344
   2.5502108  64.0062335  61.5865166   1.7190172  64.5696980  61.7744049
   2.0803538  63.3777576  60.9640127  36.5999774  85.8257011  45.3837716
  36.3175023  84.9224144  45.5351808  36.2204068  86.0016258  44.5098983
  14.4845292  71.0347239  71.9300686  14.0995283  70.0964626  71.9270935
  15.3052782  70.7465208  72.4402590  13.3198889  61.4283008  50.7863823
  13.1449729  62.4119448  50.7890355  14.1145854  61.3990756  50.1964966
  19.8445934  71.5279412  67.0607747  19.3061602  70.7030229  67.3806009
  19.9189978  71.2179005  66.1016177  23.2947041  62.9289254  69.4292064
  22.3252496  62.7764839  69.6154704  23.2557377  63.4848771  68.6558790
  25.4954406  64.6912766  59.5655092  24.6399703  65.1421807  59.7794309
  25.4165861  63.9499918  60.2879407  23.0660408  46.7231662  75.6102218
  22.5211643  46.3831818  74.8821611  22.8644115  47.6697996  75.6092260
   6.5643389  48.3144759  71.4975134   7.2838650  48.5397644  70.9071242
   6.6310769  47.3501091  71.5331809  -3.5990626  52.9888748  67.4705529
  -4.0918546  53.8313199  67.6794856  -4.3697521  52.3654369  67.8006833
  23.3393024  64.9726876  48.5718070  24.1765200  65.1244055  49.0993524
  22.8310158  64.4725076  49.2969022  10.7413137  58.0784282  61.6579765
  10.8006395  58.0779992  62.6228970  11.6105402  58.4049163  61.4069910
  -2.2715074  61.1774937  62.7974822  -1.7842749  60.3716038  63.0531322
  -2.3294689  61.5655620  63.6820878  17.6739795  62.5636812  64.5402924
  16.7585791  62.9814816  64.3625440  17.2901850  61.7390393  64.8801562
  15.0231677  55.4390891  46.2938840  14.0927276  55.1278218  46.5046843
  15.4389582  54.5876116  46.0839614  33.1546869  56.6559307  67.9586972
  32.5436191  56.0446937  67.4460688  33.4017802  57.2344664  67.2040835
  21.0936036  68.6676394  66.6976727  21.8867797  68.9942998  67.1880057
  20.4027605  68.7333709  67.4128721  25.1120982  65.7803273  50.8983434
  24.6821528  65.6802319  51.8100463  26.0425037  65.8905089  51.1407224
   7.0051619  64.2835118  65.0899428   7.3267702  64.9826499  65.6596462
   6.2032548  64.0155218  65.5855202  24.4460262  60.6815196  66.6204484
  25.0773469  60.6414582  65.8706445  24.0172765  61.5673343  66.4145053
  11.4780258  63.6321189  67.9372811  12.3481028  63.9035120  67.5571556
  11.4690780  64.0377690  68.8508074  18.7218918  73.9507316  54.0551379
  18.2665072  74.1946231  53.2137614  18.3344405  74.6286539  54.6827131
   2.0049960  63.8088258  48.9562353   1.9081393  62.8515339  49.1812255
   2.2083733  63.7797801  48.0081548   1.7089467  72.1774074  60.1507350
   1.4275095  71.8624080  59.2522022   2.4821119  71.6925595  60.3350566
  16.1659269  55.1489805  65.0918027  16.7793033  54.4382172  64.8526476
  15.3746536  54.8315549  64.5304606  21.6308997  73.3279863  75.0435405
  20.8725507  73.9889953  74.8904718  21.1011795  72.6841873  75.5618111
  30.2947151  83.9043344  65.2458239  29.9928032  83.0860897  64.8329233
  29.5251747  84.4300934  65.4434092  22.2119843  72.1497805  68.3417837
  21.4095920  71.9657516  67.8410935  22.2625030  71.3734266  68.9474012
  33.2113861  73.5407331  73.4425152  33.7985786  74.2295944  73.0313412
  32.8168455  74.0813132  74.1737170  17.6536182  80.5825662  61.0550221
  17.1639447  81.0039990  61.7622926  17.2829857  79.6753606  61.1460622
  24.0401609  74.3385261  74.0265314  23.8838155  74.3465021  73.0685877
  23.2357842  73.9233729  74.3832399  24.9373222  63.2271130  55.3417881
  24.8091654  64.0432504  55.7966151  25.1913566  62.6076981  56.0490128
  31.2391527  78.0243694  74.7955224  31.2255707  79.0171285  74.8024206
  31.2049834  77.8024087  75.7479834  21.0541903  68.9805337  53.5594270
  20.5110080  69.0143753  54.3193794  21.9597027  68.8779908  53.8642673
  17.8918755  86.8629054  67.1245379  17.2063502  86.8262649  67.8209151
  18.5380680  86.2499005  67.4442115  21.1581582  75.9720090  62.4953176
  22.1321025  76.1857220  62.3732949  20.8640018  75.9252956  61.5690641
  17.9256292  73.2247177  58.9531817  18.8382846  72.8675692  58.9057831
  17.4587770  72.4979432  58.4747624  33.4227680  74.1791752  64.1047324
  33.3615451  73.9276321  65.0310886  33.5763739  75.1190262  64.1298425
  32.9835812  72.8466269  66.5168015  33.0991760  73.5322409  67.1526134
  33.8216601  72.3554047  66.6643131  34.8146767  66.1420141  69.5681050
  34.4816348  65.6762316  70.3475163  34.7177228  67.0761511  69.8770663
  36.4552968  83.7446007  69.8609317  36.8166997  82.9335816  70.3405073
  36.8552019  83.5464791  68.9691955  32.1840784  82.0097506  63.0711375
  32.1970476  81.4297532  62.2951295  31.3005000  81.7079529  63.4928856
  18.6709709  70.2931496  60.0383945  19.5994516  70.5296904  59.8373669
  18.8528949  69.9257094  60.9690137  26.2974582  83.3910702  55.8372804
  25.8003155  84.1182026  56.3200774  26.6561676  82.9121366  56.6319606
  30.9403499  73.4486783  63.0992028  30.8933539  74.1575211  62.4633685
  31.8014114  73.6989078  63.6039902  39.1946246  85.8720642  45.4321504
  38.1980038  85.9435884  45.4791592  39.4622152  86.7802029  45.4030607
  24.2644830  71.6516385  66.2275099  23.7149542  72.2020079  65.6421635
  24.1150449  72.0927206  67.1049876  34.4243538  86.8450725  65.8322966
  33.6335865  87.0304371  66.4603336  34.4189102  85.8995889  65.8723720
  23.3717611  59.7958938  60.0310459  23.2806206  58.8559228  59.7171199
  22.4113831  59.9934785  60.1702725  17.6583580  71.3771495  56.6166346
  18.1543927  70.6913877  57.1636186  18.3464492  71.7500485  56.0452699
  28.1122611  69.1057518  61.8136854  28.2283151  70.0953594  62.0056710
  27.3108518  68.9704199  62.2633607  -3.5720645  17.3001872  46.7795708
  -4.1984589  18.0778344  46.7504599  -3.2173006  17.4455424  47.7119779
   7.9603289  19.8311356  60.6380987   7.4812745  19.6344436  61.4628157
   8.8839322  19.7204941  60.9647783   2.9950968   8.0529344  55.7698529
   2.0295171   8.1238737  55.7061172   3.1051562   7.0601729  55.8321517
   4.4374073  34.5635275  49.2454758   3.5995435  34.5238279  49.7672992
   4.9882673  35.1743242  49.7994104   0.3026640  14.9116611  49.3212080
  -0.3743796  15.5671693  49.5741606   0.8491917  15.4247479  48.7766580
  -1.7753937  20.4447028  44.0054621  -1.4499359  20.6353328  44.8932095
  -1.9504810  19.4925214  44.0938335   2.3013780  20.4868937  46.9216521
   1.3363231  20.3036114  47.0410358   2.6065443  19.9595272  47.7328808
  -1.2001707  24.1841166  62.2002867  -1.1553686  25.1524397  62.0637577
  -0.9824913  23.9410545  61.2277556   4.8374457  18.5297426  54.0973908
   4.6049491  17.5381520  54.1938480   3.9507458  18.8610767  54.4746959
  -3.1589207  13.2176261  49.2315394  -3.1640377  12.4147189  48.6840049
  -4.1573872  13.3922518  49.2429251  -2.2649693  26.1269001  58.5489375
  -1.4598315  25.7300781  58.2183273  -2.8863372  25.8999173  57.8525382
   1.2391052  28.1591219  47.8704838   1.5775113  28.5928615  48.6910797
   1.6433038  28.6533055  47.1709954   1.7749304  27.8399631  58.5033244
   2.2034821  28.5629591  58.9985982   2.4509959  27.1533161  58.5402445
   5.4195787  28.8526171  58.1919274   4.8462216  29.5924257  58.4787507
   6.3163088  29.2686551  58.3034377  -2.0063662  31.9739275  54.4557242
  -1.2853253  32.6196525  54.8270941  -2.6275642  32.6702016  54.2041328
   3.9901990  26.2165922  59.1614862   4.6169425  25.4701225  59.1480770
   4.5485756  26.9650432  58.9637931  -5.5390509  26.2822159  51.6011183
  -6.2429329  25.5565839  51.8693369  -6.0268430  27.0391507  51.8844032
  -4.4296716  22.1527098  47.5402676  -4.6601899  21.6315788  48.3270281
  -5.0032761  22.9117934  47.6648812  12.8511131  18.1314823  56.1343102
  12.0433481  18.5398297  56.5798034  12.8605421  18.7323453  55.3639925
   3.3846168  16.1783504  58.8774610   4.2001171  16.0646197  58.3180307
   3.8416997  16.2069505  59.7398744  10.3780510  19.3054819  61.5909870
  10.4976950  19.0705796  62.5400354  11.2695391  19.5290053  61.3669387
  -8.5355732  15.6150333  52.1474883  -7.9482786  15.8093672  52.9017229
  -8.0250452  16.1163809  51.4713721  10.9018903  21.8391477  51.5237276
  11.2579660  21.3826889  50.7000436  10.4189023  22.5266542  51.1259125
   9.6609447  20.7484294  44.5743175   9.5527411  21.6228280  44.1214715
  10.5617694  20.8357819  44.8597410   0.0862986  29.4808176  42.5827717
   0.9644461  29.9046386  42.8087588   0.1248424  28.6821714  43.1962500
  15.6966513  38.5689056  57.5450531  15.8963327  37.6512904  57.8419941
  16.1777584  38.6451819  56.7232195  16.7987788  32.6288721  56.7347133
  17.7097226  33.0076715  56.6065552  17.0601642  31.7134122  56.4242649
   9.6465505  30.7129007  52.5987538   9.9835914  30.7841390  53.5365218
  10.0543824  31.5795905  52.2987726  14.7595964  53.6488092  54.4229779
  14.1351713  54.1593603  54.9938515  14.1461740  53.0319061  54.0003990
  -4.6276896  38.7882386  41.6846599  -5.0448701  39.7318558  41.7342436
  -4.8371422  38.6720106  40.7118289   7.0268165  33.8369473  57.5728340
   7.0913953  34.0138428  56.6104161   6.0396420  34.0035941  57.7165808
  -0.6500767  26.8192105  60.9338719   0.3017446  26.6950692  61.0779241
  -0.6823129  26.4903460  59.9628341   4.4671252  29.6930310  40.7597845
   5.3735575  30.0642169  40.6437814   3.9754944  30.5494993  40.8993771
   5.8287385  36.6273906  61.1281974   5.6807842  37.2686062  61.8412447
   5.0700493  36.8573557  60.5568397   1.0376596  44.2096073  48.9056482
   1.6094606  44.4673680  48.1421352   1.5928971  44.6431700  49.6280231
   5.5298886  28.9347385  53.6483297   5.7200830  28.0345099  53.8699792
   5.6887608  29.3994921  54.5159858  -5.8665772  39.1438753  44.4673394
  -5.8937465  38.3698716  45.0042492  -5.3778378  38.8914799  43.6825089
  -2.5724256  40.9301745  51.5927986  -2.8612222  41.8570642  51.7992196
  -1.6559568  40.9594886  52.1053950   9.0267612  26.8491425  57.3472808
   8.7142021  26.0630322  56.7897856   8.7197767  26.4991951  58.2100928
   8.8416069  35.1609834  50.5543679   8.9135214  34.4750039  49.8778498
   8.9114402  34.6217432  51.3526257  -0.0874975  32.9724992  56.0199538
   0.3773431  33.8817449  55.7300006  -0.0421693  33.1806439  56.9945088
  14.9595902  33.5320402  44.9677030  14.2089477  34.0779613  45.3291608
  14.9186230  33.8122312  44.0328914  -1.5242552  19.1383888  37.7892720
  -2.4865913  18.9698061  37.4991401  -1.4694743  18.5583907  38.5467299
  -6.4377637  40.5868452  46.9332623  -7.0082027  41.3622689  46.8266817
  -6.8702982  39.9816921  46.3032966   6.5641161  28.1781704  76.3383825
   7.2055356  27.6734462  75.8230030   5.9473021  27.4426211  76.5837964
   2.4059746  19.9782574  51.9874484   1.8557574  19.3005145  52.4891631
   1.7708345  20.2480327  51.3098963   7.1472520  36.0807569  46.1978907
   6.4921413  36.5078885  46.6968960   7.1819968  35.1560509  46.5949678
   9.3960750  29.3558680  56.5510573   9.1912799  28.4270237  56.8503255
   8.5773516  29.7938697  56.6377367   6.0723120  38.9917119  70.4078438
   6.8300086  38.5883864  69.9250104   6.4963213  39.3762704  71.1671812
  10.2607562  40.7411568  62.0144319  10.8285044  40.5750891  61.2888645
   9.3725901  40.5930405  61.5534370  -6.3974799  33.1437995  58.9965089
  -5.8744233  32.6128043  58.3277069  -6.7052073  33.8491891  58.3659235
  14.8679344  42.3936881  49.4962514  15.6957425  41.9638562  49.7318437
  14.2349106  42.0106754  50.1334622   6.4490892  33.4573687  61.7973379
   7.0681691  34.1402316  61.6158151   5.6876111  33.7355586  61.2657464
  10.9074603  40.1247752  54.5083297  10.4705103  40.1795889  55.3938280
  11.1578629  41.1108837  54.4729531  -1.2827258  22.6747435  51.1953484
  -1.9215848  22.4835547  51.9543771  -0.9376600  23.5351736  51.4808870
   6.5448286  42.3596207  55.9481483   6.4489991  43.2627382  55.6024636
   7.0531335  41.8857986  55.2692360   0.3586360  12.3247444  60.1382839
  -0.1263934  12.1458339  59.2727713   0.8663315  13.1126071  59.8695716
  -5.5923830  33.6725705  51.7024047  -5.0205136  34.0182633  52.3908280
  -5.1038384  32.9726951  51.2927930  -0.9970326  28.0248175  69.3650530
  -1.7194347  28.5657081  69.8151725  -0.4870930  28.7859646  68.9428714
  15.3723874  40.1367536  54.1703490  15.7642149  39.8908778  53.3001959
  16.1987026  40.3658250  54.6143689   0.2571309  36.8542798  59.3395604
   0.1739041  37.2798427  60.2597189  -0.4185432  37.4737900  58.9062661
  14.5622234  34.4072996  42.4900021  15.3872658  34.3918201  42.0686735
  14.3600787  35.3625571  42.5473564  -1.1748653  13.6631829  47.4082708
  -1.9457727  13.4881149  48.0134144  -0.6042507  14.1746310  47.9607740
   3.5860072  24.0419418  62.0281814   2.9173596  23.3012006  62.1989117
   4.3828231  23.5361924  61.8557952   4.1960068  56.8281482  57.7044181
   4.9866733  57.0197343  57.2187917   3.6444717  57.5868065  57.4688642
   9.0344207  40.1034713  56.5944136   8.3903977  40.0703294  55.8340348
   8.4492264  39.8615145  57.3301777   1.7653746  38.6099608  64.5466339
   2.3247637  39.0078626  63.9436991   1.8047169  37.6763999  64.3575871
   4.6389191  12.7444149  59.3946314   4.3554708  12.2914004  58.5686190
   5.3633715  13.3029397  59.0112232   0.5333295  43.9750055  56.6977595
   0.6703704  44.9569059  56.6712517   1.4574709  43.6623820  56.7338579
  -3.9358697  36.9021335  55.0458251  -3.1737029  37.2335626  55.5954538
  -3.8142558  37.4362176  54.2127446   5.7825669  25.8316306  50.5231283
   5.4762267  24.9427421  50.5688266   5.8750263  25.9894245  49.5174169
  -1.8798483  39.2558621  49.6310480  -2.3039158  39.8545433  50.3179878
  -2.4908927  39.5557457  48.8930536  12.8119072  30.6510093  48.0630166
  13.5383764  31.0325878  47.4889333  13.1267945  30.7770459  48.9206101
  -8.8103688  37.2340592  52.5173226  -9.5370017  37.1574348  51.8732735
  -8.0414509  37.1985491  51.8565717  10.1947803  40.3187442  40.0043623
   9.2389514  40.3114455  40.4534704  10.6708520  40.1131176  40.7769438
  11.6358297  36.1814531  49.9129928  12.0245053  35.5355510  49.2945527
  10.6952474  36.0073854  49.8935667  -2.4042323  28.5221121  50.0124999
  -2.0785613  28.0525753  49.1968971  -1.8763716  29.3182271  50.0113113
  15.1694468  23.3784675  52.0855951  15.2897731  24.2063240  51.5555185
  14.2245302  23.4783869  52.3518544  -2.7269444  27.9331277  45.2054734
  -2.9446703  28.6424661  44.5617218  -2.4341596  28.4884194  45.9638350
   4.4592842  30.7864121  48.9044362   3.5292765  30.9740495  48.7833279
   4.5142423  29.8973342  48.4860967   2.3482594  54.5350212  35.1880084
   1.5075943  54.4762545  35.7290452   3.0032900  54.5765651  35.9312917
   7.9194218  23.0056295  45.9748421   8.0147960  23.7523959  46.5919401
   7.9551966  23.4925733  45.0831596   6.9476044  24.9676219  40.8615891
   6.6227552  25.8406036  41.1939541   6.2080806  24.3746723  41.0813219
  -1.1720264  26.8994646  48.0140134  -0.4576474  27.3848887  47.5604615
  -0.6799734  26.6982527  48.8356147  -1.1632705  38.7290228  58.0285879
  -1.9729655  39.2775553  58.1660088  -1.2686891  38.5383066  57.0865805
  19.0610932  30.5500367  49.4924591  19.3707943  30.3983276  50.4100355
  19.8870510  30.9717947  49.1361042   7.1917645  39.5995930  58.6653453
   7.4811724  39.7464321  59.6162615   6.3543457  40.0998887  58.7582743
  19.3783102  21.5417754  39.8480801  19.8914849  20.7720530  39.5901357
  19.0007019  21.2227633  40.7425922  -1.6787858  24.6789750  46.4304862
  -2.6421564  24.6977559  46.1880029  -1.5301836  25.5289741  46.8934152
   9.8656058  30.9169129  42.8727671   9.8001297  31.8652415  43.0282809
  10.1812101  30.5890391  43.7423795   4.7978230  15.5317700  39.4481308
   5.5066096  15.9498603  39.9910431   4.1550570  16.2580401  39.4202320
   0.9900638  41.4658839  55.5443449   0.7673769  42.3494871  55.9102035
   1.9729309  41.4140198  55.7037966   6.2939148  36.0445200  50.5807450
   7.1360775  35.5548560  50.4121614   6.2764694  35.9676784  51.5480896
   8.5158886  39.6559983  49.0319861   7.6355463  39.2384243  49.1756917
   9.0588859  38.8522467  48.7259203  -5.5185997  25.7587806  48.9590170
  -5.0716688  24.8988636  49.1189414  -5.5277632  26.0590167  49.9005247
  18.7354609  31.4178955  58.8005632  18.9099257  32.0486085  58.0875996
  18.6178201  32.1172710  59.5527551  -5.4013180  32.1683177  40.6716026
  -5.0834859  31.4160024  40.0782375  -5.0386177  32.9001091  40.1736164
   6.0914226  37.0464801  57.6341632   6.8741284  36.7789525  58.1105176
   6.1478485  38.0377430  57.7607773  18.5721802  34.3830191  49.6861254
  17.7998290  34.3738360  49.0834927  19.2800883  34.5622758  49.0361999
   3.9816962  32.1286040  56.3988865   3.3859507  32.1127634  57.1659107
   4.3974536  33.0374684  56.4589476  13.4446924  40.0396273  71.6634607
  12.9783306  39.7117633  70.8111033  13.7300200  40.9353576  71.3364793
   7.2536372  31.6332862  63.9972638   7.2951836  32.2685019  64.7117845
   6.9725047  32.1631838  63.2348563   3.5544952  36.6944848  68.5825007
   3.5421075  35.8157037  68.2509895   3.7262491  36.5725053  69.5085664
  10.1582838  51.0124855  52.3804324  10.5884427  50.8339050  51.5266442
  10.7963983  50.6082574  52.9776665   6.0573085  38.5495457  49.6195582
   5.3963286  38.1853484  48.9497906   6.2194647  37.6603244  50.1039374
  16.6972299  37.9413861  38.3798352  17.3222794  37.9823740  39.1098906
  16.3218009  37.0308417  38.4543191   2.5276171  40.0549105  60.6262117
   2.9734989  40.1140800  61.5093532   1.7572678  39.5604652  60.8578576
  15.3691058  44.8886652  56.6039659  14.6441891  45.1225877  55.9929222
  15.2465864  45.4881519  57.3295613  -0.3899846  28.7808023  57.6789358
   0.3807412  28.2610954  58.1244196  -0.4057513  29.5237582  58.3767104
  13.4457606  40.9106230  51.2725909  13.3349496  39.9281176  51.4126471
  12.5333088  41.2172114  51.2312331   0.8320158  35.3557302  55.2808378
   1.4598771  36.1388217  55.1665293   0.2916650  35.5509477  54.4988609
  -6.6169388  37.3216225  50.5748710  -6.8809287  38.1971841  50.2521030
  -5.6294470  37.4428496  50.5663558  17.5187916  30.2448340  55.6744492
  17.7483179  29.2613408  55.6943978  18.4313402  30.5633062  55.4416216
  12.6038929  28.6500361  55.3243156  11.8278858  29.2166375  55.2704531
  13.2101393  29.1984892  55.8026111   7.2566391  46.4562899  56.5468981
   7.5957636  47.3319721  56.8216541   7.5942785  45.8812414  57.2086167
   3.1148483  29.5790601  59.9453569   3.9852952  29.7198419  60.2236159
   2.6336141  30.3454141  60.3746217   3.9386438  36.6033455  52.5987267
   4.6607961  36.3533999  53.2088529   3.7334546  35.6887915  52.2763868
  24.7221014  32.1374443  42.2883677  24.2616191  31.6960177  41.5158747
  25.6076580  31.8311740  42.2205041  -5.3347204  31.7471147  56.8662894
  -5.3908224  30.8318251  56.5064117  -5.6925014  32.2668113  56.0573980
  14.9422903  42.1390972  46.8959600  15.6266843  42.7513055  46.6615348
  15.0346817  42.1483187  47.8599481  15.0905077  23.0802471  58.3813928
  14.6447831  22.1786202  58.3378669  16.0127859  22.7764841  58.3294817
   2.5626676  31.6029929  51.0652413   2.8067759  32.0677200  51.8960219
   3.4977413  31.4800589  50.6931985  -1.5776116  41.9023141  47.1141753
  -2.2976360  42.3093982  47.6224596  -1.7895366  40.9560178  47.1224832
   3.5798533  42.5246057  46.1233885   2.6246543  42.6660208  46.1395811
   3.7708351  42.3435161  47.1024616   3.0753665  29.4112106  56.1206427
   3.4478023  30.2872397  56.1959261   2.0948578  29.6418672  55.9854886
  12.7326045  47.0534340  51.6429043  11.9680521  46.6898906  52.1136604
  12.3537002  47.1209827  50.7177454   9.7205157  46.8791595  59.0492905
   9.2787850  46.0706431  59.3995806  10.5897375  46.7873244  59.3981728
   5.2111643  41.0466196  48.9332123   4.6466197  40.7521616  48.2269625
   5.5929197  40.1793589  49.2188912   1.7729169  44.3461131  53.8483200
   1.1502234  43.8566561  53.2651847   1.4209976  45.2513304  53.6687200
  11.2630000  28.7786304  64.5519681  10.6182590  29.2999081  64.0335826
  11.0214662  27.8922402  64.2848326   3.3133388  39.7823161  47.2933201
   3.1254260  39.8544623  46.3766498   2.4804517  39.5377990  47.6955969
  -3.3256343  31.7099227  58.6423351  -2.9676752  30.9014563  58.2475841
  -3.8721528  31.9422502  57.8087791  21.0897147  31.8750726  48.2971522
  21.5307753  31.5812068  47.4634885  20.8001809  32.7757164  47.9396772
  -8.9357362  32.8497392  57.1940896  -8.3581474  33.6875772  56.9491573
  -9.4087463  33.2778166  57.8933778  -2.7984395  26.5184123  51.7146245
  -2.6190536  27.1170170  50.9373098  -3.7958672  26.4084876  51.5794809
   2.8706968  38.9914087  51.5240122   3.4070285  38.2131800  51.6563408
   3.5092295  39.7426852  51.4904570   2.3356660  34.6557679  51.0075437
   1.8803437  34.2474944  51.7304294   1.6690598  35.1823431  50.5317199
  -4.4810952  29.3912166  51.8011314  -3.5469842  29.3348578  51.4416496
  -4.2522439  29.4995018  52.7676001   5.6730531  33.9393915  53.4055261
   6.1965288  34.7910321  53.5179157   6.3900657  33.3518711  53.0337569
  10.8199924  35.9584952  56.2057439  11.0247065  36.7106388  56.7745017
  10.7621239  36.3845228  55.3379905  15.5915469  46.0459472  44.6435460
  16.1622901  45.6135460  43.9103563  15.4127485  46.9237290  44.1890404
  10.4935716  35.9242913  68.1594363  10.1041825  35.3689698  67.4549000
  11.4852222  35.6537822  68.1636315  -0.6227685  12.4884518  57.4321971
  -1.2911360  12.2641594  56.7317566   0.1634219  12.0638166  57.0074347
   6.4257722  28.3331532  48.3147688   6.6298317  28.7434993  49.2022096
   7.3153215  28.1838767  47.9481572  10.4391421  42.7112720  36.2843122
  10.7012534  43.2288936  37.0273070  10.0182900  41.9075554  36.7739298
  12.0568507  29.8840180  41.3386281  11.3455748  30.4094125  41.6609215
  12.9081097  30.3729843  41.5504035  -2.2567235  48.2373030  58.5900345
  -2.4576564  49.1499775  58.2831713  -1.2792671  48.3494638  58.7280529
   6.2014001  51.8854942  50.5984343   5.7918646  52.2276897  49.7204944
   6.9479100  52.5821244  50.5935725  -0.0850734  33.8088632  58.9588381
  -0.1909506  34.7175061  59.1606870  -0.6362463  33.3903496  59.6258255
   1.8318165  28.9346194  50.4314597   2.1117490  28.4783990  51.2474208
   2.0634636  29.8566675  50.5923237  10.7606690  33.0496020  51.9561769
  11.0945982  32.6735972  51.1253582  11.4638887  33.6566236  52.2527329
   3.9990040  33.9197993  60.5185594   3.4526581  34.2916495  59.7991110
   3.3498957  33.2226374  60.8497310   7.5475637  37.1607461  39.1540809
   7.3411141  37.7173336  39.9540764   7.2830616  37.8694842  38.4698889
   3.6475547  28.0063027  67.8806557   2.9180540  28.0895079  67.2060141
   4.3899499  27.9100029  67.2343704   2.7215559  24.7650354  56.4241923
   2.3907753  25.0331130  55.5295291   3.4288909  25.4446501  56.5545528
  12.3054594  44.2090255  60.5224042  11.6299767  44.0097454  61.1931632
  11.8250334  43.8627422  59.7018148  10.4596948  38.7719965  52.1947602
  10.5503185  39.2426013  53.0599284  10.6814807  37.8963462  52.4350657
  13.1329894  38.3874111  53.9016325  13.8859964  38.9344229  54.0999148
  12.3968760  38.9695431  54.1631718   0.4751733  27.2397586  54.7384000
   1.2017295  27.5190291  54.1455642   0.8564294  27.6024116  55.5590670
  16.3755436  34.7699430  47.2723204  16.3379225  35.6261525  46.7726703
  15.4551697  34.5330793  47.3902146  -2.7843735  34.4421854  43.3965955
  -1.9994212  34.2316370  43.8992091  -3.3611198  33.6432470  43.4607453
   4.6466549  24.0646230  45.9674981   4.8639681  24.7833247  46.6351381
   4.7105552  24.5704466  45.1288500  10.7685833  30.8826559  55.0488636
  11.0293749  31.6438108  55.5725015  10.2054191  30.3708845  55.6242544
  19.6897999  37.3043138  46.8436820  19.1966475  36.6584577  46.3566495
  19.3982221  37.1971061  47.7867152  13.0451787  39.8754262  32.6939448
  12.5693356  40.1716772  33.5385620  13.0311946  40.6961280  32.2536272
   3.2755281  32.8379880  53.2626847   3.2342126  32.7452189  54.1945984
   4.1311058  33.3254316  53.0788067   9.8536577  36.0665846  32.6094517
  10.4450597  36.6836886  32.1035072  10.5062924  35.3520083  32.7589024
  14.5461887  22.3301901  48.8197575  14.5610063  23.2469929  48.5350227
  15.2908821  21.9706739  48.2894131   7.5630742  18.8942060  53.8044797
   6.5917663  18.6844110  53.8416553   7.8973504  18.0423489  53.3952004
  22.2065444  38.4873992  46.5993789  21.3034612  38.0753931  46.6159340
  22.8009802  37.7747860  46.7155526  17.5922209  33.5829792  45.1585997
  17.4840003  33.7415464  46.1250143  16.6219646  33.6516985  44.9162455
  -3.1987788  35.2129987  59.0299842  -3.5464942  36.0849629  58.8826590
  -3.1637545  34.8216510  58.1338072   0.9375913  29.9984901  38.3592879
   1.2437666  30.8955371  38.6663787   0.0037327  30.2345129  38.1822989
   6.8296558  31.0569132  50.0230722   6.8524247  31.3607584  50.9761503
   5.8496208  30.9617669  49.8701936  -1.6094697  34.6354528  52.4906470
  -1.6197579  34.8939224  51.5345152  -0.6714795  34.1722435  52.4299024
  -0.1731798  24.7764921  57.3538338  -0.5316154  24.8365885  56.4075103
   0.7688543  24.9041927  57.2048806  -0.8374849  20.1854168  41.2138391
  -1.8090434  19.9419156  41.2237209  -0.8118965  20.5923212  42.1407047
   9.6923884  38.0339866  62.9541747  10.0624214  38.6618376  62.3095351
   9.2611851  38.7718191  63.5323639  15.0117419  27.6852182  43.9518767
  14.8811706  28.5348323  43.5367779  15.0902371  27.9640814  44.8972647
  -3.1268365  23.6866850  49.4593056  -2.4967798  23.2273903  50.0525059
  -3.0424440  23.1907897  48.6330235   8.1363701  37.7219757  69.0814262
   7.7147438  38.0369310  68.2834488   8.6032608  36.9457173  68.7164529
   8.3013868  35.4914864  61.0439180   8.8381506  36.3296689  61.0765756
   7.3892973  35.8485483  60.9628050   9.5320103  27.3971073  43.7837988
   9.0928428  27.9917564  43.1532587  10.4728957  27.6180397  43.5477335
  -2.7341210  29.8387397  43.2353105  -3.3524625  30.5369777  42.9883723
  -1.8453692  30.2005859  43.0632559   3.0434641  17.5383510  39.2986499
   2.4800055  18.0722957  39.9272646   3.1754353  18.1744930  38.5775494
   9.0880039  42.2541293  53.0902053   9.5283168  43.1573140  53.1713054
   9.8285610  41.8512574  52.5325564   8.2513475  25.2976494  47.5630740
   7.7806045  25.2888091  48.4091394   9.1558412  24.9661397  47.9120009
  17.9388346  42.0509084  47.3375634  18.8694887  41.7383881  47.1746028
  17.8602689  42.7716135  46.6675594  15.9798378  35.3177818  35.5332072
  15.8848941  34.8384037  36.3795910  15.1411791  35.8758598  35.4745261
   3.8840581  40.2400108  68.2730590   4.0455420  39.6714092  67.5415818
   4.6080390  40.0251280  68.8761264   3.2632788  25.9852526  41.1922475
   3.5195140  25.4235963  40.4370702   2.3062082  26.0073548  41.1071774
  -4.5426652  37.8437739  59.0710329  -4.4082455  38.8014680  59.0469791
  -5.2801353  37.7370885  58.4531851   4.2818855  27.0653848  56.3281855
   4.0005507  28.0083545  56.3452616   5.0187803  27.0987285  56.9392861
   3.8178118  18.1464132  62.1456379   3.8834701  18.0613489  63.0995986
   4.5830625  17.6106261  61.8134648  26.1163769  49.9557449  55.7186841
  26.2899229  49.0806060  55.2820437  25.1472926  49.8182230  55.9334361
  23.0154876  48.3676801  49.8734146  23.5717809  48.4194337  50.6812442
  23.6819187  48.2144761  49.1859169  13.2820451  56.5178961  49.8209763
  12.4616914  55.9589598  49.7620700  12.8732932  57.4205452  50.0075373
  24.9314226  53.5432571  63.0870696  24.4701983  54.4252674  63.1970540
  24.2958572  53.1662601  62.4342136  11.5527710  58.2603827  45.1381506
  10.6302527  58.0185589  45.4443185  11.3091110  58.1414814  44.1501487
   3.6906355  46.6602163  61.4678103   3.5834450  46.3164046  60.5573391
   3.3194713  45.8667650  61.9493666   7.8589072  53.6700206  54.0890146
   7.1915151  53.9471152  54.7737278   7.5043295  52.7656508  53.8618986
   9.6747203  44.9329985  53.5790359   9.4683897  45.8838342  53.9217219
   9.6174419  45.0924580  52.6203583  18.3286816  53.7638358  51.8206461
  18.0132156  53.3294566  52.6702390  18.4930591  54.7043450  52.1725187
  20.0346645  46.8582899  53.0838419  19.0807515  46.7450553  53.2417846
  20.2156670  45.9631294  52.6988201  18.5937248  43.0473417  52.7086695
  19.5126117  43.3968963  52.7844888  18.1496233  43.9186248  52.4466737
  15.2851177  45.2004554  49.0873229  14.8557442  45.3681178  48.2345744
  15.4251222  44.2331910  48.9756350  14.6193046  46.9779528  41.1693622
  15.5575910  46.8523362  41.0393939  14.4941931  47.6043698  41.8892555
  14.4127008  42.3558969  60.5854672  13.7301020  43.0118386  60.3992813
  14.5197914  42.0254876  59.6563430  14.4225147  45.2624600  53.2612729
  14.5512933  45.5426388  52.3960356  14.5056369  44.2829158  53.2152005
  16.9006420  46.2136609  38.7072394  16.1748501  45.5808355  38.5846991
  17.5779277  45.6657321  39.1227110   1.8330794  49.9842879  50.4077464
   2.2559280  49.5493136  51.1639423   2.3273541  49.6073443  49.6250559
  16.0056078  59.8493127  46.2525522  15.4860145  60.6641406  46.3715078
  15.5711970  59.5110538  45.4664297  14.7479499  42.3667943  57.9325990
  14.5783549  43.0593082  57.2348645  15.7166938  42.4194404  57.9325991
  15.3985273  34.2045768  67.5601083  15.0943781  33.9213198  66.6661595
  16.0400566  34.8868093  67.2715057  23.3145161  52.5350776  61.2949988
  23.0616055  51.6934857  60.8380016  23.1940522  53.1560304  60.5780211
   9.0101464  29.5749826  60.5709486   9.8337057  29.1859005  60.1432360
   9.2212691  29.7364187  61.4887160  21.2288246  54.7617082  66.2168124
  22.0837794  54.3598693  65.9964140  20.8152383  54.0039522  66.7106000
  20.4742098  51.2193864  47.1886704  19.8142783  51.7969939  47.5747618
  20.0195042  50.9135362  46.3462511  19.8688583  51.7492661  59.9525437
  20.6657771  51.1637764  60.0408345  19.2625986  51.3809067  60.6345156
  13.7736034  50.4797934  64.1450507  12.7991676  50.5809229  64.2895260
  13.8443753  51.1267866  63.3850439  17.3273955  40.8516420  56.0614056
  17.2672365  41.5270028  56.7738418  18.1145182  40.3775281  56.3127733
  17.4236339  59.4063579  67.5908464  17.4811020  58.4860002  67.9139900
  18.3471993  59.7043151  67.8541202  10.9914938  53.6081893  54.8651880
  11.2189009  53.6953142  53.9051731  10.0196265  53.5817082  54.8285315
  18.1472748  49.9905415  53.3639829  18.0454649  50.9745645  53.3481991
  17.6505052  49.7660510  52.5498302   3.3511933  50.0604432  61.5401063
   2.8824950  49.2470387  61.1975442   2.6206948  50.7422313  61.3637830
  12.4796000  46.3769340  43.8889956  11.6733402  46.7448251  43.4656529
  12.5474969  46.8718481  44.6808810  19.7186133  56.3313486  59.5462902
  20.2980048  56.8618477  58.8886333  20.3986813  55.9420503  60.1162586
   9.2833245  39.3262199  43.5992610   8.4820260  39.2719491  43.0644737
   8.8872082  39.5954671  44.4730094  17.3415962  45.4779679  52.5543606
  16.9147512  46.0932577  51.9283879  17.1036975  45.9143875  53.3912550
  -7.1339462  43.4266480  50.2145665  -7.0931835  43.7005819  49.2866816
  -8.1425292  43.3780191  50.3214133   0.5891356  53.2689367  57.0818151
   0.5215630  54.1701899  57.4309609   0.1681655  52.7153230  57.7706196
  19.1844145  25.1800753  69.1965833  18.9211358  24.3496207  69.6463735
  18.3013640  25.4508833  68.9409819   9.5289611  51.9697941  40.4488663
   9.5901499  51.0751244  40.8239106  10.1991669  52.4317604  40.9495331
   4.8068959  55.9717930  53.3944731   4.4472604  56.8004498  52.9964085
   3.9798275  55.4826174  53.5611507   5.5257823  42.5019942  65.5976847
   4.6491228  42.3301117  65.1251197   5.9006031  43.1366356  64.9502415
   7.1064489  41.3791869  51.4496966   7.1826471  41.9036892  50.7004811
   8.0381128  41.4889562  51.8792295  15.8187533  46.4282356  72.2659747
  14.9876994  46.4404381  71.7829579  15.5660760  46.3157466  73.2189160
  18.5647488  53.9768754  58.7780947  19.3676179  53.3862361  58.8712024
  18.9566250  54.8399189  58.7382161  16.6698591  47.7331861  61.4737856
  15.7766619  47.8229341  61.9255418  17.2322642  47.6288758  62.2411311
   7.0240059  55.1026995  61.4378019   6.9946024  55.4716410  62.3007427
   7.8396781  55.5747576  61.0679180  17.2907443  29.1379166  59.4426280
  16.6662291  29.5468372  60.0873592  17.8574877  29.9081483  59.2343078
  10.8662472  54.4149698  51.5895344  10.8994349  54.1903217  50.6527294
  11.6440388  53.9022397  51.9455634  11.0488366  28.2829903  51.9675408
  10.4425240  28.9893845  52.1911019  11.7127059  28.3672502  52.6544124
  17.6619695  47.5394865  54.3811858  17.2156633  47.9332549  55.1230850
  17.9246886  48.3993446  53.8957153  19.4121799  37.0307171  49.6753942
  18.9685911  36.2945982  50.1900646  20.2244082  37.1320686  50.2275235
  12.9125604  50.1085270  37.5772303  12.0316451  49.6806663  37.4354020
  13.5245188  49.4483765  37.1912770  20.6153993  53.6017339  50.4266582
  19.8157888  53.8854976  50.8904279  20.4691692  52.6354108  50.4798076
  23.2208210  47.6887969  63.8309550  24.0475656  48.1320106  63.9323727
  22.6332489  48.4144877  63.5346166  22.8052503  37.1938553  41.0403890
  23.3102393  37.8682188  41.4596266  23.3083478  36.3607135  41.1942310
  24.8259218  48.8846584  51.8814284  25.0639829  49.4735599  52.6678395
  25.6714238  48.3797392  51.8190136  10.3411462  47.0621122  47.4073491
   9.4928559  46.7103374  47.1798834  10.1859056  48.0174752  47.4652237
  12.7392972  48.8958804  55.8721627  12.4957325  48.8346558  56.7996740
  12.0906817  49.6107828  55.5447657  21.3269891  55.4465096  54.6596419
  21.6159813  54.5458923  54.3341821  20.3873513  55.2453818  54.7691461
  20.5689676  42.0228749  54.9076313  20.4275882  41.3313732  54.2421196
  20.5919136  41.5256480  55.7236956  12.2302446  50.8611972  45.4859889
  11.5693739  50.1860309  45.8086908  12.2997594  50.5520282  44.5324588
  10.9266754  56.6687368  35.6491375  10.4159438  57.2531294  36.1972437
  10.9310847  55.8106836  36.1457980  15.8695095  58.6928411  49.1531403
  15.2674089  58.1499770  48.5538546  15.6118482  59.5648125  48.8638926
  20.4920507  33.6347158  45.2570633  19.6171277  33.1784812  45.0776532
  21.0691384  33.0594996  44.6698829   1.9211135  39.7642854  44.8913344
   2.2970710  40.0364176  44.0264074   1.3900345  40.5762334  45.0932904
   4.1997073  41.7375682  51.9981456   5.0472362  41.6324637  51.4770876
   4.4037320  41.2186866  52.7982497  16.8351617  37.1607714  46.1600451
  16.4805169  38.0101532  45.8667003  17.2226050  36.8558626  45.2623879
  23.5334399  48.8252900  56.3008943  23.1959646  48.5031536  55.4147200
  22.8077010  49.4696399  56.4957997  17.1771680  49.3399777  48.3110379
  17.6520572  50.0198248  47.8344741  17.8788527  48.8573211  48.7780596
  17.4266652  44.7265362  60.0863450  18.2767182  44.9594440  60.5054587
  16.9728831  44.3323189  60.8675995  26.9257045  50.7663586  52.7709836
  27.2634818  49.8754821  52.5316314  27.2587890  50.8726798  53.6632982
  12.2777798  55.5464397  46.2194357  11.9579047  56.4940220  46.0918458
  12.0661290  55.2099810  45.3505950  10.9287956  61.4403877  66.5744000
  11.0826703  62.3190204  66.9781230  10.1501102  61.1822131  67.1006331
   5.5322581  49.0676898  57.7464647   5.8032821  49.5455797  56.9566818
   5.5336201  49.8310191  58.3623947   1.5615270  42.0715812  51.4800793
   2.5345302  42.0651182  51.5508501   1.3642112  41.8699345  50.5501099
   9.8173676  37.5242189  59.6385036  10.0324954  37.6063029  58.6590420
  10.3560666  38.2734156  59.9402967  26.1593285  47.3939455  54.5241651
  26.1007878  46.8554565  55.3619750  25.4702804  46.9484354  54.0148256
  17.2412274  38.4585636  48.7256082  17.1573317  38.0510820  47.8481430
  18.0465923  38.0852444  49.0830946  25.4411135  44.1378472  63.3297876
  25.3319488  43.1730238  63.5221405  24.5491842  44.3621949  62.9165316
  25.3529699  48.2462871  60.7804516  26.0769471  47.6611187  61.0092368
  25.2402036  48.8861080  61.4353171  10.0948977  54.9648719  43.4998152
  10.5867842  55.5679825  42.9177840  10.3996818  54.0719990  43.1115045
  18.0665300  64.2078588  36.0486659  18.1605120  64.9694685  35.4572017
  17.4914080  63.6174953  35.5098732  19.6268722  49.0299515  49.6189302
  19.6376835  49.7380215  50.3218517  20.5754504  48.8762664  49.4932800
   1.9204592  47.8219542  66.3140731   1.2347962  47.9334704  66.9759499
   1.5898975  48.3580388  65.5531061  18.5693570  48.9418624  60.0873347
  17.9006765  48.4491961  60.5623555  18.8946842  49.4902797  60.8340312
  18.4209180  48.2759697  63.6240768  18.9721284  47.5121643  63.9492505
  18.0144021  48.4911664  64.5384854  12.1219356  46.9629831  62.9081403
  11.5936135  47.7957538  62.6835508  11.4196232  46.4080138  63.1854107
  14.5190471  58.3811268  60.1464371  14.5860581  59.0115218  59.3601101
  14.1267664  58.9914727  60.8212372  -1.0843523  52.1613356  48.6501701
  -0.2476259  52.3160183  49.1171460  -0.9221369  51.2619391  48.2644502
  17.7345018  44.7133906  71.6165348  17.1716392  45.4486367  71.9792773
  17.8325939  44.1391812  72.4375133   7.8144789  48.5410595  42.9838202
   7.9331429  48.7409332  42.0262984   6.8665416  48.7504568  43.0793653
  18.9349051  39.5924918  45.3171166  19.2077961  38.8077467  45.8497058
  19.4750098  40.2864090  45.7216501   5.6093906  51.1259639  59.2347835
   5.4539473  51.4971480  60.1109770   6.3120593  51.6481699  58.8868877
  14.7295445  55.8752610  52.4147003  14.8040610  54.9916988  52.8172749
  14.0781641  55.6729750  51.6921929  14.5165511  60.3096827  53.7564862
  13.6432305  60.5384386  53.3242855  14.3746878  59.3028377  53.7524659
  29.4356093  56.9377457  67.0428877  29.6892325  57.4249866  66.2237749
  29.0242126  56.1487748  66.6447833  18.5601899  60.9638998  46.8211704
  18.8975768  60.0377677  47.0397410  17.5822624  60.7446163  46.8927379
   8.4249129  47.7237462  51.3342359   8.6206221  47.9366968  52.2675743
   7.4748374  48.0396829  51.3447487   3.2774735  53.3785586  62.2354959
   2.4760552  52.8442852  61.8419758   3.1347610  53.2115779  63.1722904
  17.2628231  52.7585150  54.3376670  16.9829049  51.9752732  54.9509650
  16.2814861  53.0950255  54.2776238  13.9212345  55.1141013  57.9909036
  14.6654344  54.4936970  57.8097682  13.7371067  54.9833709  58.8850136
  14.9337089  48.7226734  46.4875803  15.0161556  49.5049001  45.8963679
  15.6564968  48.9572170  47.1003637  -7.0422751  47.4006866  58.7213872
  -7.3817386  47.1165870  59.5760375  -6.6763547  48.2589237  58.9222912
  11.0888477  50.8518598  55.0638797  11.2830807  51.8154056  55.0038940
  10.1563478  50.9017056  55.4102888  -0.0810184  47.7041323  46.0866361
  -0.1804580  48.6741481  45.8683319  -1.0288906  47.4355907  46.2279125
  11.1417607  64.0530978  57.2129317  10.3271892  64.5649748  57.3775068
  11.0725915  64.0008278  56.2411967  -3.3678529  40.1174677  57.9570639
  -2.8407334  40.4065852  57.1810267  -4.2127884  40.5819776  57.8285023
  16.2639833  53.6810904  57.7151319  16.3897221  53.3452883  56.8384815
  17.1552408  53.7716051  58.0791545  29.9364643  48.8127597  65.1633290
  30.3000233  47.9388447  64.8861279  30.7020713  49.1630659  65.6758827
  14.2890015  45.2481733  35.8663635  14.6967765  44.8773219  36.6720132
  14.0850462  44.3600766  35.4128949  20.9343377  57.4946548  66.3816000
  21.1107640  56.5105659  66.3204046  20.6147866  57.5132327  67.3372960
  17.3072614  66.8919282  44.4270548  18.0729501  66.4224533  44.8512760
  16.7534679  66.0653385  44.2991562   8.3711252  48.7837437  60.9881020
   8.4419093  47.8576049  60.6441456   7.4523988  48.8330312  61.2216224
   8.9284356  47.3921467  54.5789378   8.3861967  46.8731451  55.1382632
   9.5325924  47.8393086  55.2369449   3.4580643  49.1755688  52.3495973
   3.2463746  48.3996549  52.9545085   3.3080365  49.9277366  53.0128294
  12.2728643  48.7458428  58.4442106  12.6257486  48.2508206  59.2131141
  11.6419293  49.3525165  58.8319601  20.4511364  41.1435755  46.8328552
  21.0064951  41.7111784  46.2234368  21.1314020  40.6934219  47.3015723
  24.4188596  52.2977588  56.1474181  25.0727853  51.7082909  56.5591423
  24.4807823  52.0276806  55.2220824  13.3869554  40.1657242  57.7806793
  13.9333949  40.9916543  57.9888407  14.1875753  39.5979603  57.5756485
  13.1963186  46.8214537  60.3570637  13.0551895  46.7583639  61.3659092
  13.2378139  45.8679362  60.2172877  16.6144689  26.0058112  33.8186986
  17.2192737  26.0039136  34.5595705  15.7353828  26.0555687  34.2929158
  17.4994917  40.5849213  52.3319607  17.9751803  41.4768722  52.4725076
  17.4314200  40.6508913  51.3442004   8.9799632  52.5551362  36.2056770
   8.6148048  53.1808409  35.5709285   9.2360330  51.8214915  35.6406325
   3.2712992  52.7893189  51.7021173   3.1676134  52.0112733  52.3372600
   4.1509829  52.5331363  51.3522815  21.7761582  51.2294803  54.2459721
  21.8322871  50.2708502  54.1092158  22.6424694  51.5136689  53.8844194
  -1.1649563  37.7023056  55.0102698  -0.2722424  37.9995736  54.6518462
  -1.4613261  37.2046438  54.2083134   6.1799178  33.8301247  47.3621088
   5.6051383  34.1498008  48.1535421   5.4420292  33.3574195  46.8808827
  20.5212368  34.6410485  47.7965521  20.5045321  34.4365973  46.8200314
  20.9838441  35.5103080  47.7738725   6.5832250  43.5096852  53.3470945
   7.5348245  43.2447343  53.2873586   6.1765411  42.7158371  53.0119411
   2.8549789  37.3725417  55.5755829   2.9396280  36.7101324  56.2862591
   2.4747391  38.0851368  56.0574342  11.7817157  54.7434350  61.1115652
  11.5391777  55.1844838  60.2784769  12.6391024  55.0800079  61.3519851
   4.7709965  46.4406585  58.7851230   5.2040463  47.3284952  58.6200684
   5.5407546  45.9312966  58.9910137  20.3139888  47.6070620  58.3671978
  20.5455556  48.3791061  57.7329314  19.6462506  48.0813739  58.8942242
   2.6486108  58.4340468  65.6690736   3.3439864  59.0545547  65.3281947
   3.0258778  57.5669390  65.3586105  13.7948773  37.4636221  51.4174897
  13.6708694  37.6973288  52.3566993  13.0454442  36.8539012  51.2448627
  24.3880802  44.7626420  66.9548715  23.6285399  44.6635269  66.3558247
  24.6157116  43.8167888  67.0629508  21.1309667  49.8279591  57.1963546
  21.4655567  50.5144826  57.7838313  20.6541740  50.3780033  56.5581475
   6.2941449  51.4771467  46.5156808   6.4656669  52.3073914  46.0003469
   6.9964591  51.5753493  47.2173562  13.2577116  37.7898712  60.7756931
  13.2222634  36.9459947  60.2606202  13.0165624  37.4470350  61.6593955
  20.8560694  60.2542946  60.7785873  20.6693627  60.0362556  61.6684828
  19.9697008  60.0803897  60.3765610   8.1238787  52.7676991  48.1058033
   8.2649661  53.1150862  49.0646337   9.0381864  52.5994956  47.9051279
  14.2348912  46.1766918  46.8774323  14.7129698  46.0385780  46.0234903
  14.2395830  47.1566422  46.8820950  12.2041238  42.2750176  54.4741105
  12.9967735  42.5567016  54.0080069  12.0367647  43.0889484  55.0085604
  29.5679095  33.5706915  35.1301110  30.5307705  33.9092533  35.1196190
  29.1681862  34.4001241  34.6838513  17.2656372  40.9182837  49.6432610
  17.2457096  40.0091139  49.3260064  17.6771512  41.3317770  48.8407268
  -5.7298061  47.6364633  40.1526009  -5.2803788  46.7630361  40.1687087
  -5.1961798  48.0591792  39.4073002  11.1317068  57.2698803  42.3133205
  10.2156671  57.1672506  41.9111295  11.6337317  56.8650209  41.5927789
  14.4835188  60.0427152  36.2796129  14.5579459  60.9046843  35.8709210
  14.9592522  60.1373463  37.0928528   0.5188474  38.9798770  41.8388181
  -0.2939308  39.1079398  42.3504000   0.2523216  38.1966132  41.2774756
   9.0035858  51.8015455  56.9295703   9.2160373  51.1874217  57.7179183
   8.2380427  52.2154561  57.3216146  12.9421881  50.2096294  43.1052307
  13.8142854  49.8520464  43.2943388  13.0846040  50.4963672  42.1206464
  11.5746692  32.6931329  58.7121565  12.1335649  32.9267385  59.5056319
  10.7163297  33.0906447  59.0242280  14.6239808  55.7151523  61.0198619
  14.4729952  56.5743407  60.5634953  15.6233919  55.7692577  61.1713586
  16.7197195  53.7362338  38.4039542  16.6106127  53.4319870  37.4705134
  17.4978873  54.3246183  38.2436529  -3.3612567  51.3798278  53.1943777
  -4.1819929  51.9475420  53.3603553  -3.6579602  51.0092708  52.2997164
  12.7819238  34.6636930  52.4051805  13.2486756  34.2800754  53.1580394
  13.2578998  34.2239644  51.6414258   0.7226273  43.4227042  70.4230759
   1.2038838  44.0114005  69.8336681   1.0470466  42.5793991  70.0436236
  -0.9975761  55.6240070  48.3984718  -1.0939876  54.7582043  47.9232050
  -1.6379437  55.5229896  49.1032179  11.2613478  44.5027027  55.9512884
  11.9530356  45.2014648  55.7711407  10.5607339  44.7303994  55.2988455
  15.2307963  53.2416491  70.4376595  15.8076900  54.0046855  70.1473625
  14.4068682  53.7354685  70.5856124   6.9322083  61.1321707  59.1053730
   7.8069686  60.7035607  59.4060292   6.8465156  61.9321284  59.6319472
   7.4795005  64.7371403  60.0012010   7.7063231  65.6198725  59.7184716
   6.6158702  64.8025962  60.3517163   6.2682804  50.0570689  55.1695520
   6.9858888  50.4276754  54.5819296   5.8364068  50.9239045  55.4080415
  15.3871400  46.8252296  58.6482853  15.8895701  46.5592677  59.4814884
  14.4744432  46.8621260  59.0646828  13.2258279  46.3337278  27.9288860
  12.9896827  46.1446711  28.8450317  14.1088757  46.7593048  28.0900149
  11.1557132  61.3231080  63.6285061  10.2116108  61.5085656  63.2919811
  11.0058294  61.5453596  64.5661553  10.6163140  43.9007017  58.4919019
   9.8316399  43.4438747  58.0815459  10.8881503  44.3976464  57.6852738
  15.4595148  46.9918027  51.0388172  15.5498245  46.2552758  50.3389113
  14.4827129  47.0824262  50.9649607  20.8828780  47.3927693  82.4645180
  19.9500867  47.5721436  82.3220148  20.9039584  46.4551327  82.3966484
  25.7072818  54.6578688  49.5568485  26.3688262  55.1935653  50.0726166
  24.8996831  55.1500735  49.6936874  30.4749268  67.6870258  62.0532854
  30.5268339  66.9202557  61.4997728  29.5134145  67.8931680  62.0632090
  21.7948713  69.0850978  60.3401396  21.8721275  69.3739996  61.2763848
  22.7691157  69.0053265  60.1249796  17.6533756  62.7024135  44.8845412
  17.8916915  62.1421195  45.6600207  17.5028942  62.0694439  44.1841670
  14.8130691  62.1966240  46.1304177  15.1430018  63.0376338  46.4862993
  14.0363688  62.0572522  46.7620766  15.4473811  72.9118833  40.6385442
  16.2159791  72.2637998  40.7188267  15.2915103  72.8074440  39.6696159
  15.4954822  63.1056825  39.4858873  15.8177468  63.8891397  38.9623402
  14.7348570  63.5257089  39.9535047  21.2132534  65.6116226  63.3729715
  21.1807605  66.5233516  63.7935605  20.2957314  65.6604485  62.9915667
  24.4672741  71.0632935  38.0938036  23.9712970  71.5963043  38.7490117
  23.9317171  70.1970701  38.1874714  25.1787382  62.3126797  58.0520414
  25.6283624  61.6460230  58.6535440  25.3714682  63.0939845  58.5148995
  23.0983925  57.1815495  55.4326318  23.2585142  56.3525146  55.9093293
  22.2263453  56.8326966  54.9953913  17.4589133  50.8635782  58.4892778
  17.7335150  49.9851025  58.8502807  18.3190426  51.3484219  58.6966487
   6.4458236  59.4599078  53.6842459   5.9610699  58.8210425  53.1363420
   6.7654547  58.7924349  54.3665097  30.1161580  74.3853709  51.3281564
  30.2717668  74.0759172  50.3943456  30.1605662  75.3649517  51.1594573
  26.4705797  46.5520687  66.7959289  26.7975924  45.7817772  67.3273241
  25.5165731  46.2099242  66.7196900  19.0313381  63.0815558  62.1227454
  18.7191237  64.0306240  62.2171831  18.8577865  62.7818908  63.0706067
  21.7570466  63.5371762  51.0679875  22.3072526  63.5529997  51.8384046
  21.8194314  62.6029060  50.7687263  15.1995287  51.0784930  68.9251104
  15.1003700  51.3993963  68.0250500  15.2069722  51.8878534  69.4749238
  41.6834319  61.1959437  50.5017364  42.2397684  61.0608559  49.6790535
  41.7502937  62.1811142  50.5994340  37.4524356  62.1046807  52.9799497
  37.5561005  61.6261784  52.1216222  36.5336145  61.8360589  53.2162750
  17.6113763  52.0725190  47.5429535  17.1295834  52.4597941  46.8094681
  17.0730571  52.2085485  48.3288163  25.9830012  64.6479325  46.3010014
  26.7858036  64.3493520  45.7886064  25.7714891  65.4139839  45.7043845
  23.2417874  71.6921359  35.5741888  23.9212133  71.2392778  36.1379530
  22.4839013  71.5592180  36.1507805  16.1008629  62.4324078  71.0838934
  17.0544219  62.2110389  71.2377149  15.8394987  61.7194455  70.4647201
  25.4386304  58.8327788  49.0939253  24.7069210  58.4194768  49.5233262
  26.2156896  58.2753808  49.3782208  38.7238004  75.4212949  50.3122085
  39.4862230  74.7652283  50.3608691  38.6801672  75.6360815  51.3158005
  19.6504015  58.4824839  47.3305431  19.2598358  58.1771789  48.1823757
  20.5817577  58.3496090  47.4465662  26.6793848  69.2254457  49.3183919
  27.4638842  68.7734772  49.6356428  26.9516669  70.1644349  49.2614304
  15.1654123  73.4319557  54.1577499  15.8877128  74.0046207  53.8151461
  15.3177229  73.5978790  55.1251484  32.2951921  75.6588188  36.7813108
  31.4703918  75.9010880  36.2454307  31.9115092  75.6433288  37.6820069
  22.3559812  52.3664392  58.1465831  23.0218257  52.6653881  57.4943155
  21.5221519  52.5775246  57.6289515  13.4768605  75.2525355  60.9201292
  13.1409591  74.4215818  61.2564941  13.0977939  75.9199580  61.4696863
  29.2771319  77.0360814  54.4260300  28.7215010  76.8489692  55.2013044
  28.7375724  76.6830880  53.6877795  21.2163744  61.7155315  66.4565675
  21.8500724  62.0798535  65.8266810  20.7247474  62.5312024  66.7478474
  18.1345820  61.7734202  50.5012558  18.1846353  61.1777264  51.2851494
  19.0415284  61.6070305  50.0800568   6.0052264  74.2682494  64.6354980
   6.4256636  74.9393758  64.1053381   6.1580369  73.4667219  64.0919658
  29.2247567  80.6006449  52.7429256  29.5749517  80.7912588  51.8645538
  29.8724108  79.9381901  53.0369913  14.7416069  57.2294284  64.1408945
  15.2977619  56.4426378  64.1192924  15.3244029  57.8488017  63.5817784
  27.7940977  61.1362132  58.8168760  27.5868814  60.2098087  58.7612147
  28.1089430  61.3576339  57.9576421  16.4471232  58.0330732  51.9072174
  15.8820715  57.2141388  52.0039725  16.0230196  58.3538935  51.0309795
  10.1276729  54.6926090  63.4093000  10.6500055  55.4393362  63.8845407
  10.6605326  54.7684045  62.5772435  36.0573831  63.6630381  57.3434387
  35.7275198  64.0678674  58.2033834  35.2230603  63.0651180  57.1726051
  22.1951183  56.8935069  47.7845644  22.6197505  57.2909198  46.9713409
  21.6862701  56.1504671  47.2750725  24.2611938  51.7124951  53.3286712
  24.2143266  52.5240764  52.7851670  25.1595329  51.3724618  52.9077767
  23.7623895  59.5436163  54.4116824  23.8722219  60.1079893  55.2021516
  23.5285614  58.6881593  54.7814218  13.5717331  77.1555450  48.7835983
  13.1607971  77.8914045  49.2494812  13.0374131  76.3793746  49.1094727
  39.9800296  68.4166221  52.7142033  40.2101992  68.1046438  53.6181583
  39.3867376  69.1568698  52.9119364  24.2093514  67.8827663  49.1728415
  24.9026348  68.5468031  49.0583144  24.6443849  67.2527461  49.7995204
  13.5615983  65.6242068  44.9350230  13.7675261  66.6114593  44.8929990
  14.3282445  65.3618315  44.3739472  22.7970459  60.3237098  47.8674966
  23.3498305  59.8426541  48.4997645  23.3663344  61.0726200  47.6119262
  28.3344250  63.1937857  42.5194212  28.2718528  63.9978720  41.9339485
  29.1490561  62.7792315  42.2626510  15.4861519  66.2722839  49.8474671
  16.2134721  66.6819881  50.3786825  15.7815995  66.6383199  48.9805875
  21.5507535  69.3086179  57.4963629  21.1228615  68.6997691  56.8427312
  21.4684800  68.8819322  58.3240615  24.2686823  65.2945189  56.8186769
  23.9745311  65.0085824  57.6909864  24.9633410  65.9138896  57.1235692
  27.3252764  63.4579326  63.3074784  27.6515771  63.3222731  62.3847588
  27.5087212  64.4201824  63.4123161  17.2245617  63.4299608  59.7254107
  17.9794395  63.2254204  60.3522678  16.9172146  62.4719951  59.5494601
  24.9983874  75.0104768  55.4458798  25.2498159  75.8231268  54.9904096
  24.0861765  74.8906764  55.1225928  19.5543928  58.0805910  64.1999037
  19.4050089  57.1843081  63.8575493  20.0879670  57.8901404  65.0043074
   7.7332989  54.6933186  64.3278388   7.7057650  55.4117287  64.9277111
   8.6802996  54.6026835  64.0420503  24.0309976  53.7939293  51.8622882
  23.3139886  54.2049746  51.4209672  24.5719964  54.5897629  52.1407370
  15.7044952  52.3329127  60.2027553  15.8786777  52.8648821  59.3798715
  16.3794658  51.5980685  59.9097685  26.0001145  63.4441366  52.5229125
  26.9205924  63.4019498  52.8650273  25.4085254  63.4165706  53.2532987
  32.6974300  65.4135068  53.6870925  32.0798645  66.1614126  53.7195354
  32.5166378  64.9911389  54.5358482  25.3485825  68.1836065  42.8116344
  24.5159678  68.6363716  43.1284136  25.5841298  68.7854825  42.0634632
  27.7009198  73.5606109  45.0841814  27.9322335  72.8447869  45.7309871
  27.5287845  74.2871426  45.7424168  35.1853917  79.4969422  36.6129415
  35.0858561  78.6992320  37.1138307  34.2519254  79.7269055  36.4601650
  19.7600736  63.0404967  56.1568595  19.0683165  62.6067282  55.5691909
  19.2223801  63.7943818  56.4833218  20.3228608  61.2133410  53.7886077
  20.9877300  61.8356285  54.0917816  20.5802297  61.0140192  52.8480263
  31.0671766  62.9065426  37.3544382  30.8280617  63.7796745  37.7160312
  31.6213479  62.5309525  38.0254027  14.7868474  62.6869551  55.5678571
  15.7256811  62.3912652  55.4478714  14.3055056  62.0993733  54.9487817
  24.8078465  69.2375813  59.4350442  24.9965766  69.8040381  58.7206545
  25.7253306  69.0313555  59.8062547  14.7113909  59.8230737  57.9605959
  14.2594363  59.7845339  57.1002433  15.4438404  60.4100610  57.7683596
  14.2847621  75.8643338  58.5572953  13.3058122  76.1440545  58.4706223
  14.1513990  75.5050556  59.5064641  28.9837077  64.3755363  48.3296617
  29.3676977  63.9460138  49.1211818  29.8320259  64.7272112  47.9279200
  17.2262484  60.4313108  52.8550799  17.3533019  59.5924455  52.4143416
  16.3567411  60.3676786  53.2651276  20.2629174  52.4725949  56.5502424
  20.4479552  52.4639769  55.6404600  19.5060540  53.1087027  56.6193402
  20.4648003  61.0941916  48.8479059  19.8833443  61.2102635  48.0200544
  21.2274812  60.7595999  48.3556951  22.6103679  63.2652740  64.2732440
  22.0841958  64.1081436  64.1813854  22.4638509  62.9414804  63.3646057
  22.8362694  79.9874123  55.9450958  22.1260364  80.4175504  56.5308643
  22.2532308  79.7756114  55.2213971  22.5995743  55.1457672  49.8718770
  22.4296147  55.5537096  49.0004816  21.8259315  54.6085163  50.0109486
  15.0612121  63.1390005  64.1020292  14.7864259  63.6703500  64.8555155
  14.6181465  63.6178806  63.3680667  31.2751758  61.2730615  54.8825212
  31.0222215  62.1350792  55.2471362  31.6032125  61.5399366  54.0153405
  20.4369638  50.5516228  51.7153154  19.9792759  49.8410152  52.1747181
  20.8646105  51.0566248  52.4437510  25.5820453  67.3558874  45.5560806
  25.6737213  67.2988821  44.6138385  25.8440226  68.2519064  45.7356648
  25.5478880  77.4878648  54.1640923  25.1902229  78.3260444  53.6636659
  25.7406531  77.9338398  55.0050943  13.8202460  59.0481961  68.3632625
  13.3523821  59.7252966  68.9243574  13.7862200  59.6017089  67.5162106
  15.3511708  70.9181998  57.5413172  15.0762007  71.8685402  57.1902309
  16.3176542  71.0328165  57.2884150   7.8647135  68.0975754  51.7009365
   8.1462809  67.2938593  51.1508131   7.7740995  67.6217002  52.5686080
  16.8717831  58.1612376  62.9369828  17.5970502  58.8209865  62.9298829
  17.1163569  57.5107169  62.2486412  25.7011203  68.6054384  62.9320076
  25.3342652  69.4615798  62.7073541  24.9716823  68.0031535  62.6534164
  23.5470255  53.4046164  65.7528610  23.7067350  53.2348282  64.8362580
  24.0561772  52.7889483  66.2505819  16.1382498  63.9255828  47.7530099
  15.9566434  64.7788538  48.0792973  17.1226601  63.9231748  47.7074093
  23.6866182  59.5337173  68.9223526  24.4370509  60.0232154  69.3308901
  23.6716118  59.9742518  68.0007065  16.1786330  67.1445159  47.2705918
  16.8238969  67.0833907  46.5124819  15.4261498  67.5644976  46.8068129
  30.8240757  67.6837676  53.9361231  30.9975175  68.1148161  54.7665505
  29.9991895  67.1874999  54.0725510  19.5384733  64.8946832  50.8320687
  19.9366618  65.7069177  51.2346090  20.3087867  64.2644074  50.9828104
  31.4264180  63.4175952  61.9864464  30.9519574  64.1241203  61.3952135
  30.6668889  62.8662815  62.1590417  22.3881753  45.0254573  64.6329875
  22.8455397  45.8736704  64.5692206  22.3942341  44.8137624  63.6611913
  18.2535377  54.8551738  47.3839334  17.6038790  55.2869828  47.9110456
  18.1054976  53.9222469  47.6307537  22.6135663  65.6525770  43.9594249
  22.0842604  65.4551861  43.1467648  22.1185565  66.4541733  44.2764282
  37.9345243  69.4413438  57.7955902  38.8615277  69.4642336  57.6264332
  37.7354585  68.6209885  57.2024459  26.4046480  65.8528439  54.4313413
  25.9968934  66.6796202  54.8165413  25.5632553  65.5275500  53.9632078
  22.2433846  49.9958444  60.2806740  22.3602800  49.7867777  61.2246120
  22.3711299  49.1238607  59.8722413  21.8387418  50.2975246  63.0074497
  22.4146153  50.9961526  62.7302490  21.8657319  50.4521988  64.0147021
  21.1631695  58.0736364  52.0867897  20.5957077  57.2477061  52.1074515
  21.2749556  58.2671106  53.0389144  39.3170469  77.6621849  44.2026709
  38.9383553  78.5691011  44.2379778  38.8642641  77.2667351  45.0036791
  12.6986586  69.0794238  54.5429344  13.5386918  68.5342307  54.5875425
  12.4956822  69.0194469  55.4929396  27.3650646  57.1056401  49.6856145
  27.8330516  56.8413007  48.8865067  27.8203695  56.5857119  50.3648785
  22.8590196  67.3737334  46.2539922  23.4793572  67.5897512  45.5704566
  23.4886965  67.1819753  47.0086752  11.2256840  53.0799966  57.5271895
  11.1720695  53.4115065  56.5706003  10.6275766  52.3200028  57.4363581
  34.2262017  68.0295132  37.4433469  34.1389628  68.4567527  36.4918531
  33.4107565  67.4464786  37.3452174  23.5715258  71.6133465  48.9079917
  23.0449423  70.9570055  49.4384794  22.7942015  71.8802625  48.2815330
  21.2587963  69.6981524  49.2189473  20.3369542  69.7291596  48.9230920
  21.4976630  68.7502407  48.9754568   7.3263562  60.1044082  56.4727731
   6.9446571  60.9905215  56.1594967   8.0976961  60.5199978  56.9646443
  25.8519587  74.6271853  57.7542439  25.6509128  74.7534027  56.8017249
  25.5108979  73.6891168  57.7558384   6.9400031  61.3915204  50.1150116
   6.8630874  62.0101573  49.3774498   7.9567056  61.2738804  50.1085516
  23.2513670  66.3933320  65.6168575  22.5295920  66.6714190  66.2157605
  23.9035752  67.1088003  65.7889547  23.8558263  64.1872447  66.8684859
  24.2827059  63.5888149  66.1637047  23.6415630  64.9234625  66.2296428
  20.7611631  60.0341441  57.7252927  21.5569238  60.3723375  57.2907357
  20.6400187  60.7316163  58.4046095  21.2120326  71.9067796  37.3947151
  21.0281358  71.5502392  38.2705919  20.2916698  71.9599418  37.0183766
  21.7105281  62.8004044  61.5624557  21.7197859  61.8893810  61.2285044
  20.7341677  62.8195203  61.8432368  26.9150377  60.9240449  54.1379738
  26.0227446  60.9273678  53.7796728  27.0271238  60.0221430  54.4938821
  30.2779613  68.0184813  56.8802307  29.6057008  68.6257845  56.4222314
  29.7068114  67.2182866  56.8782896  28.9125081  65.5184194  55.9734982
  28.3389213  65.3386310  56.7532429  28.2723192  65.2537951  55.2555895
  20.9254887  65.6810003  37.1599554  20.4766152  66.3240208  36.6011299
  21.2378204  65.0178777  36.4907055  25.1702979  78.6707318  56.7796359
  24.4971279  79.3397492  56.6177770  24.6348112  78.0414983  57.3360467
  33.5837871  73.3399670  44.5280737  34.0042525  73.8539864  45.2207175
  33.1184372  72.6592077  45.0599326  35.8197132  73.1447214  51.2249534
  35.4786733  73.8471522  50.6048477  35.9390109  73.7157682  52.0203496
  18.6589458  64.4537515  48.2119343  19.4909895  64.8425529  47.9058316
  18.7707006  64.5594334  49.2067590  18.0246068  57.4368440  55.1738702
  18.2757795  58.3595543  55.4295013  17.2001703  57.3987109  55.7848308
  21.8861366  69.8190461  62.8944385  21.5420359  68.9231749  63.1666570
  21.3504498  70.3804959  63.5232511  25.8348889  49.5149938  63.1495875
  26.5039286  48.8705822  63.5159070  26.0636729  50.3552295  63.5363209
   6.8501526  53.3367713  58.2297396   6.1954803  53.8661007  58.7896880
   7.3481103  54.1002150  57.8364851  11.6833455  64.7326167  65.2268462
  11.2191822  64.6971571  66.0812513  12.5882423  64.7836806  65.5249158
  11.0179187  64.9339959  44.3891137  10.8020380  64.7822138  45.3022183
  12.0029550  65.1266213  44.4599005   3.8289747  72.7810953  57.4345162
   3.4356372  73.5249668  57.9023685   4.7687605  73.0379787  57.4845734
  15.6908712  75.4033381  47.4518889  14.9169407  75.9155531  47.8143940
  15.1771846  74.8809896  46.7568903   9.4689497  61.6603314  57.3035315
   8.9450306  62.5296857  57.1712990  10.2941658  62.0518145  57.6199564
  24.2231064  62.9176649  46.8942010  24.9924023  63.4302691  46.4914748
  23.7498772  63.6315545  47.3400218   8.1685377  64.1249837  57.2202495
   7.8159635  64.0429952  58.1150577   7.7578581  64.9798866  57.0020957
  31.1868362  62.6338445  52.5114986  30.9644067  63.1644602  51.7136938
  32.0380723  63.1034884  52.7498669  18.6332316  54.5114910  55.6258103
  18.2921150  55.3617242  55.3191839  18.2009497  53.8771682  55.0361151
  16.9271736  60.8619650  59.8770068  16.3144028  60.8339389  60.6455759
  17.5145448  60.1096350  60.0440501  19.4798101  64.0700725  65.9904503
  19.4647322  64.7157328  65.2806916  18.8811072  63.3906963  65.6999910
  30.0298088  71.0160319  44.3522430  30.4954640  70.3057843  43.8589119
  30.2418073  71.8232509  43.7913824  18.8046713  69.2881366  48.0602489
  19.2677177  68.6258485  47.4614438  17.8925687  68.9242879  48.1144848
  10.7376169  66.3179475  53.2525449  11.3394371  66.5567751  52.5143990
  11.4030541  66.4360161  53.9957825  42.6970764  73.3524642  65.0655202
  41.7741894  73.4990876  64.7862469  42.8453502  72.3944107  64.9659114
  25.2608475  87.8053829  62.5161728  24.5598550  87.1151105  62.5154208
  25.2939990  87.9395837  63.5038290  28.4549925  69.1324468  55.2425285
  28.0910685  69.1318468  54.3669606  28.1491069  70.0175597  55.5877842
  38.2429236  64.6635696  62.0633260  39.2351790  64.7414975  62.0667597
  38.1004614  65.0416092  61.1531961  20.9035757  78.5712286  50.6528395
  21.6668027  79.1672347  50.5319907  20.4505020  78.6555662  49.8018902
  45.0585940  76.9949993  42.0051870  45.2378636  76.0594667  41.6799056
  45.1984587  76.8983550  42.9453632  27.6091309  77.0544720  48.9132737
  27.3321783  76.9578459  49.8445065  28.5942223  76.9809764  49.0770611
  35.1655634  66.8311424  55.8544105  34.2886121  66.5520505  56.2477232
  35.3107673  65.9041686  55.4719278  36.9056968  75.7256618  41.6698326
  36.2967735  75.5816538  40.9499722  36.6337587  76.6594175  41.9015819
  47.9918801  76.8997210  64.5021280  47.4632516  77.4346943  65.0770531
  48.0888526  77.3966837  63.7249772  32.2838918  70.8270748  42.2285829
  32.0018592  69.9626239  42.5991835  33.1225082  70.9798451  42.7200288
  42.1572236  71.9308682  48.6141661  41.4779827  72.1018214  47.9161342
  42.5664484  71.1572314  48.1853422  40.2739810  61.4388926  61.1478084
  41.0632143  61.0219219  61.5844265  40.4714108  62.3836219  61.2513846
  37.8359083  71.2236783  50.1918647  37.1626016  71.8662725  50.4366321
  38.3694065  71.7237952  49.5469684  33.7968629  84.2610322  45.9427418
  33.5348544  83.4464335  46.4144726  33.9195293  84.8727397  46.7077345
  41.8316729  88.0673770  64.9167111  41.0853682  87.9106964  64.2888392
  42.3367403  87.2365763  64.7848359  32.6599420  71.7532732  50.6478086
  32.3141259  71.1046036  51.2992455  32.3399812  72.5895244  51.0354535
  35.8836909  69.1824301  41.9477799  35.3273404  69.0726146  42.7284085
  35.2218675  69.5871933  41.2901247  24.9005585  84.9008350  57.5086651
  24.0616040  84.3717847  57.7732097  24.4591146  85.6692833  57.1791922
  35.2947311  64.6061809  66.6838993  35.9817297  64.5692270  65.9704694
  35.1527813  63.6609893  66.9046342  38.5517323  82.7545572  60.1042705
  38.6392641  83.4749487  60.7431924  38.6861180  81.9780875  60.7039810
  46.2947762  70.6493581  59.6051235  46.6723566  69.8076712  59.1130973
  45.6195836  70.8911681  58.9338055  29.6753042  81.6368982  63.6335036
  29.2863700  81.8539946  62.7651689  28.8861618  81.6364659  64.2066649
  32.8230508  80.1595315  60.9454791  32.7000937  79.2800940  60.5129659
  32.4147325  80.7475697  60.2582626  34.5231835  76.5086560  57.1633971
  34.2451952  76.0171114  56.3941695  34.5800324  77.4553193  56.9029378
  36.1057850  75.5277510  49.6951169  36.3553181  76.4059793  49.2888447
  37.0914945  75.2301531  49.7886715  38.6737515  72.8511728  54.3168974
  39.3111301  73.5955240  54.1667004  39.1880332  72.3139449  54.9639904
  42.5519290  71.0813517  53.1403201  43.1063547  70.2294353  53.2321783
  42.9531910  71.3313683  52.2552010  28.0175937  65.2795889  58.8661607
  27.9091167  66.2676490  58.9034353  27.1488256  64.9573338  58.9905219
  38.4708372  66.9047935  50.2320537  38.7897280  67.4811500  50.9677131
  37.8487989  66.3307181  50.7419670  31.2236460  85.3351624  45.3936225
  31.8355229  84.6466286  45.5478890  30.6217813  85.3903458  46.1644226
  32.0936967  96.0048872  48.2990674  32.9905841  95.5343551  48.2884797
  31.5539778  95.1983617  48.3390037  39.2950865  65.1743036  55.8871297
  39.8293408  64.5041727  56.3432237  39.1230472  64.6231083  55.0891524
  27.7703915  81.6021146  65.3624387  27.8505682  80.8431507  65.9500519
  27.1403199  82.1332519  65.8252920  23.4117768  67.0262886  62.3335185
  22.8900414  66.5355630  62.9057890  23.5141833  66.4405706  61.5248453
  38.9450029  88.3357984  70.4070990  38.2840053  88.8583559  69.9523214
  38.5474526  87.4420531  70.1465234  36.2806629  73.8231882  62.8263800
  36.6434809  73.5462470  62.0045583  35.3319762  73.8508716  62.6452939
  34.0305091  90.0936754  59.4159166  34.1773531  91.0303386  59.5727571
  33.6952163  90.1292353  58.4634640  24.7071527  68.8341794  65.8249076
  24.5167196  69.7964995  66.0174100  25.1612222  68.9238789  64.9769033
  51.6137241  87.6205149  47.9610202  50.7635812  87.5853452  47.5037784
  52.0733571  86.8105327  47.4619036  29.8082076  69.0131107  73.6229977
  29.3593188  68.7302809  72.7653860  29.3896375  68.3938266  74.2767584
  31.8816304  64.8189697  71.2339396  31.0211920  64.6445235  71.5124678
  31.8923268  64.9520320  70.2780025  33.6392081  62.6286973  56.1877368
  32.7061803  62.9299934  56.0100604  33.5796657  61.7470784  55.8699038
  33.4632511  83.2949562  69.2591975  32.8150091  83.3909642  68.5460156
  33.2839041  82.3903421  69.6292715  41.6766355  64.4336850  67.6915527
  41.0451835  63.7633880  67.3082743  41.1800694  64.6375995  68.5379472
  29.5423317  79.5106341  60.7358009  29.9551691  79.2958961  59.8570087
  29.8317280  80.3817998  60.9484157  32.6844600  78.5207684  50.8541254
  33.5570012  78.0420685  51.0190675  32.3529774  78.5627409  51.7887889
  38.1601870  78.9556476  41.3133507  37.8765090  78.6713796  40.4517709
  37.4691644  78.6437256  41.8858649  43.8176579  80.3038906  49.4153324
  44.7690093  80.1026138  49.4413072  43.6901475  80.3887061  48.4197693
  42.0607966  66.5751088  66.0378911  42.2243309  67.0359488  66.8871724
  41.6960192  65.7076212  66.4031131  44.1562979  82.4421501  43.4166937
  43.3532367  81.9546745  43.7181727  44.5910126  82.6005875  44.2671460
  34.5377222  69.2889882  50.0375617  34.2467858  70.2319982  50.1904159
  34.9230213  69.1523840  50.9412964  25.0723030  81.7093099  44.9436505
  24.9388003  81.1254908  44.1365257  24.2396501  82.2797412  44.8171773
  37.3916931  78.8278212  50.7232966  38.1078916  78.5104383  51.3238962
  37.7960866  79.7228535  50.5118390  24.3056827  70.8937382  62.8625521
  23.8774016  71.7572664  62.8408775  23.4149943  70.3566983  62.9153072
  44.4903105  77.8330355  46.2936919  43.7595922  78.4620037  46.0579125
  45.1411796  78.5564879  46.5980768  36.5606507  77.8787321  48.3730563
  36.0431281  78.7058610  48.1326236  36.8598612  78.1348504  49.2871368
  37.0028711  64.5554712  50.7826707  36.6273538  64.9907328  51.6190733
  36.1764396  64.6548653  50.2756297  32.3666602  71.6456154  46.2193335
  33.0376355  71.3572608  46.8442487  31.8327092  70.7822345  46.1418728
  43.8467072  83.3116033  53.2080359  43.5399720  83.1530016  54.1079794
  43.6976915  82.4138848  52.8024916  37.6265375  66.9805594  56.9346972
  36.8270845  66.6487595  56.4802192  38.3024082  66.3056661  56.5115735
  39.2588332  81.7799278  45.1911471  38.4126380  81.2913728  45.0317235
  39.8760999  81.2229355  44.8092359  40.6283991  67.3973309  55.3259666
  40.0891399  66.7042316  55.8177699  41.0385998  67.8742238  56.0417023
  39.8612223  67.8165414  62.1140158  40.6991958  67.5540362  62.5422289
  40.0212105  67.5002011  61.2366656  57.2954004  63.0993915  45.8523216
  57.0915754  64.0592832  45.8745182  58.0792684  63.0445602  45.3199318
  40.7484877  80.4060518  53.3107104  41.1471568  80.5094504  54.2222432
  41.6415386  80.4096503  52.8034768  37.1958991  80.3600788  44.5248719
  36.4105722  79.7569760  44.6262817  36.8805964  80.8690615  43.7078739
  38.1309406  82.0837683  40.3184745  38.5980159  81.2409689  40.4181619
  38.6408426  82.5171131  39.6206606  26.0549327  77.9734948  44.8091257
  26.2562065  77.5870962  43.9208217  25.1514557  77.6907734  44.9528168
  38.4427294  75.7649352  56.3630064  37.6970339  75.1757384  56.6639856
  39.1467863  75.0885448  56.6253613  51.7925434  71.1698690  55.9775201
  51.4768901  70.3182224  56.2640076  51.4675102  71.1241732  55.0207866
  26.1220809  74.2865772  51.3847506  25.3735708  73.9918291  51.9603983
  25.8236236  73.9780562  50.5187650  55.0899349  80.8797068  59.0402171
  56.0665101  80.9120630  58.8825675  55.0657281  81.5737459  59.7547296
  30.5952631  81.4443724  50.1785034  31.4338213  81.2174980  49.7016139
  29.9377415  80.8562211  49.6982185  20.1440776  72.2082198  55.2146913
  19.6245519  73.0037793  54.9083030  20.2083616  71.7010941  54.3681893
  35.2739112  76.4442572  66.2523251  34.7963296  76.5642879  65.3858028
  35.8125331  75.7085548  66.1346085  43.0199885  81.2216546  59.8568054
  42.5197304  80.4201240  59.7766696  43.8490316  80.9997839  59.3511764
  30.8281958  75.5126758  61.0623783  31.7809165  75.5766337  61.0757648
  30.6345427  74.9337544  60.3345148  43.7601466  98.7265697  64.4561123
  44.0422582  97.9610763  64.9154917  44.5826964  99.2895684  64.5000495
  35.7801834  77.8705636  62.1646744  35.7365532  78.8308535  61.9309573
  35.8318805  77.5114821  61.2321091  30.7178097  91.1507570  50.7803644
  30.3878560  90.6283492  51.5328276  29.9168044  91.0923550  50.2068542
  18.4837788  65.5449066  57.0853709  18.4074650  65.8354801  58.0291103
  17.5620587  65.5052235  56.8451687  39.6763684  65.1819516  48.2367828
  39.4916421  64.3466084  48.6361694  39.2393799  65.8717028  48.7683372
  34.5152190  83.8781536  57.9137808  33.5726045  83.8004645  58.2202207
  34.2944203  84.3890259  57.0824340  36.2863703  91.0052118  62.4579855
  35.4480300  91.5118894  62.7755533  36.7418051  91.7743123  62.0819902
  27.0533692  75.2193682  61.2200693  27.3671695  75.9927197  61.6908887
  26.4813953  75.6054245  60.5880286  31.2391359  68.6894073  43.5030174
  31.2060402  67.7661046  43.2451641  31.5002657  68.6605541  44.4333673
  44.2033106  89.5959024  56.8293127  43.3011663  89.4256806  57.1841412
  44.0419307  89.4809955  55.8848949  17.0864017  71.5023720  52.3110326
  16.3640734  70.8615488  52.0565955  16.5084763  72.0920728  52.8119301
  32.5601493  79.9904236  48.4060625  32.6940251  79.2162660  47.8279011
  32.7528941  79.5065921  49.2628989  31.9508424  68.6448969  46.1090628
  31.6364114  68.5332094  47.0593396  31.9430364  67.6715813  45.9091006
  36.5463496  69.5692777  46.1662421  37.2955553  70.2340240  46.1018471
  36.8249399  69.1652682  47.0008762  34.2675436  64.4688461  50.1222283
  34.1244071  65.4747491  50.1005525  33.7975335  64.2262666  49.2626818
  41.3870505  80.8478826  55.7641590  40.5012162  80.4995291  55.9901147
  41.9021001  80.0687448  56.0911146  38.2013001  66.4522795  59.5952086
  37.7450981  66.8792243  60.3279449  37.8860498  66.8924785  58.7956231
  49.6172427  58.0057192  60.4941648  49.7794649  57.1945712  59.8942903
  49.0850218  57.6350027  61.1721721  37.7776831  79.5842323  58.6833771
  37.0743068  80.1682746  58.4239489  38.0886867  79.9598196  59.5429472
  36.3351160  78.2421689  69.2762586  35.5435193  78.2852222  68.6970765
  36.6910454  77.3575536  69.1079920  18.5646008  89.9938516  56.8574105
  19.1723331  90.7928495  56.8955008  18.1034608  89.9741742  57.6779499
  18.6815668  58.7850349  59.8779015  19.1441205  57.9290595  59.8835689
  18.3066491  58.7881701  59.0127817  22.9273888  86.5326960  56.6590637
  22.0366984  86.3073243  56.9294924  23.1243205  87.2662215  57.2515979
  27.0926033  75.7230866  46.4379439  27.2699903  76.1145265  47.2901349
  26.6818747  76.4892206  45.9653519  27.2706189  66.1318364  64.0445400
  27.3220234  67.1241514  64.0765595  26.3272408  66.0880054  63.6567004
  27.9921553  82.9957530  52.5593649  28.3439994  82.0930581  52.7416779
  28.2516270  83.1222966  51.6116866  30.8000554  68.1253809  48.6421027
  30.4554180  67.7347030  49.4668654  30.0274774  68.6383329  48.3746127
  23.3462832  73.3506222  52.0347276  22.5167610  73.8712763  52.0286928
  23.0410417  72.4381333  51.8408552  21.4309456  57.4760249  57.7218604
  21.1060453  58.3960475  57.6851661  21.8206173  57.3991187  56.8289974
  33.0693893  75.3065754  52.5261505  33.7034991  76.0807617  52.3705863
  32.9279440  75.0241497  51.6232980  29.9578842  67.1331417  51.1071102
  28.9961876  67.1935906  51.3778130  30.3522143  67.4436472  51.9207223
  31.2578997  70.8539621  39.1465618  31.1404087  71.5714228  39.8082957
  32.2269921  70.7246307  39.2195515  35.1367704  64.3019239  59.9247561
  35.0718963  64.7521365  60.7773475  35.8128359  63.6258015  60.1044844
  36.6093350  84.1206729  34.8668631  36.0871697  84.6717789  35.4675240
  36.3620981  83.2577298  35.1938384  30.9520234  64.4977744  50.3785814
  31.8200557  64.7631351  50.0445555  30.5459887  65.3498703  50.4848811
  27.8223731  77.8140785  56.6003831  26.9560242  78.2393044  56.8543913
  28.1692210  78.6114012  56.0619470  36.8071560  57.6287048  60.2334119
  36.3308292  58.5171080  60.4178065  36.6255765  57.2169879  61.0861539
  36.9135928  62.1732917  60.9558830  37.6288530  61.9923431  60.3672334
  37.2252828  62.9633911  61.4779211  39.4260648  78.2248168  52.5456921
  39.8236136  79.0692232  52.7306530  38.6820102  78.2120336  53.2159193
  15.0409137  79.9437822  56.2641684  14.9504612  80.3270655  55.3382793
  14.2553158  79.3419055  56.1928065  45.9921123  70.7224679  45.0755627
  45.1894504  70.5194396  44.5552233  46.3106472  69.7964567  45.2137768
  44.8148314  73.0445762  72.1116565  44.1535928  73.5368307  71.5665143
  44.2221390  72.4257721  72.6076356  33.5204303  88.4872488  61.8083932
  33.4149114  89.1815823  61.1677879  33.7632499  87.7113722  61.3561705
  33.8930606  74.7962203  55.0212645  33.4665004  74.8851200  54.1513092
  34.8280637  74.6510006  54.7032669  35.6514669  82.7892189  60.0416235
  36.5866644  83.0841430  59.9634264  35.2857735  83.0259929  59.1750792
  29.5931822  72.8373622  55.9785958  29.3266612  73.7871459  56.0990414
  29.9891417  72.8814701  55.0717558  38.9989494  80.3640452  61.6550861
  39.6704813  80.6553352  62.3074139  38.2325499  80.1824751  62.2708470
  43.7537464  75.4017170  38.7735385  43.0183558  75.7488824  39.3235166
  44.5130219  75.5704585  39.4062774  43.2923630  76.5489881  53.9641767
  43.0863637  76.1948098  53.1158266  44.1182917  76.1183671  54.2186180
  27.4689336  84.0469221  47.8543370  27.4915631  83.6247477  48.7188991
  27.5501420  83.2649928  47.2947941  30.9727065  76.7326548  57.6754230
  30.2286004  76.2590845  57.2199182  31.6600544  76.6345267  56.9811200
  33.3032351  67.0108905  49.6649066  33.7606998  67.8782740  49.7023120
  32.5968554  67.2766974  49.0026715  42.1867112  74.2895375  55.3834705
  42.3291023  74.8201198  54.6111963  43.1386784  73.8729284  55.4266611
  25.1226782  59.5209257  52.1427161  24.7116155  59.5673179  53.0600777
  24.4394321  58.9249375  51.7510741  39.0362451  81.0854362  50.5554954
  39.6277862  80.5849410  49.9724594  39.7124427  81.5565391  51.0628972
  43.3685552  69.4571664  44.2742926  43.4183548  69.2336255  45.2273184
  43.0981280  68.5751061  43.9021390  46.7825578  66.3832175  56.2260296
  46.2594935  65.9341905  56.8470786  46.1046822  66.8211462  55.6370757
  30.8222335  75.0398891  39.4637877  29.9990283  75.0071298  39.0158739
  30.8003187  74.2249700  39.9862151  32.1434914  71.9883894  57.4106770
  31.7613718  71.3176928  57.9538582  31.4474963  72.3395873  56.8858730
  43.1916951  64.7134121  56.1729003  43.9399874  64.2246628  56.6601562
  43.0004634  64.1024325  55.5033554  57.6920331  83.1585607  61.8877189
  57.4488696  84.0567269  61.5226716  58.6425217  83.3723730  62.0631945
  38.1003655  61.8406962  64.4473951  38.3228934  60.9226839  64.7053031
  38.4615944  61.8957770  63.5631673  42.9576280  80.1012943  66.5368849
  42.4443255  80.2529937  67.3494476  43.7007644  80.7348559  66.7306263
  32.1622215  76.7116285  47.6477636  31.7663805  75.9276274  47.1264712
  33.0996017  76.6864873  47.3268179  21.6192750  67.1758498  49.2109456
  21.8788796  66.3441174  48.6912980  22.5325061  67.4552348  49.4909925
  32.8886138  68.6649212  59.9952387  33.7690402  68.9621492  59.6884312
  32.8757385  69.1751243  60.8519319  29.1221666  64.3715373  39.8954848
  28.1872420  64.8022078  39.9634202  29.6489308  65.1812094  39.9429383
  31.3921957  65.0571210  47.2335119  31.6206124  65.3941090  46.3230244
  32.1414732  64.4700539  47.3693549  30.2999496  65.4134496  60.3757717
  31.2007220  65.4197387  59.8944731  29.7226826  65.4357292  59.5609234
  34.9511179  77.3222618  37.7178259  34.1796754  76.9739151  37.2204735
  35.5008217  76.4902508  37.7549392  32.7757356  65.9974802  56.9566144
  32.7362392  65.8188744  57.9513226  32.1108929  66.6755945  56.9014895
  36.2375875  66.2415601  52.6741390  36.1534489  67.2256964  52.8309499
  36.2176758  65.8756289  53.6060306  29.1394489  85.3214318  62.3873515
  30.0220042  85.3572392  61.9948420  29.1527120  86.1327821  62.9465602
  33.1886857  84.2983512  55.0982832  32.3692006  84.8068948  54.8564563
  32.7673634  83.5044445  55.4346562  28.2910706  63.9770384  45.0437303
  28.7107837  63.1136212  45.2288334  28.1819726  63.9011105  44.0586614
  53.9728351  68.5232473  48.4551264  54.6381299  69.2786013  48.6491679
  54.4821763  68.1445422  47.7122000  55.0511285  79.0925641  53.1334091
  55.3747047  78.2118799  53.4528732  54.9017805  78.8009844  52.1708219
  42.3292669  72.6097567  41.2370992  41.8866292  72.8472866  40.4179100
  43.2557490  72.4830458  40.9363522  45.2480861  64.3018328  53.4684501
  44.8868596  64.1484473  52.5376262  44.3979782  64.7362620  53.8155138
  42.7218203  65.9650206  48.6530517  42.8429419  64.9872393  48.6052680
  42.4279441  66.0873495  49.5658072  43.6760703  71.2969503  50.6505567
  43.0528179  71.6442242  49.9787297  44.1231951  70.6329692  50.0476572
  49.8781897  80.2945998  53.5184557  49.5522567  81.1847321  53.7607943
  50.1860133  80.4911926  52.5789849  38.5039838  77.2216626  46.6096378
  37.8542293  77.5858008  47.2730572  39.3263907  77.4017484  47.0982735
  22.5182017  74.4083375  54.6467512  22.1140208  74.6845811  53.8021658
  21.9006695  73.6899230  54.8675935  41.1838131  72.3535807  61.2822241
  40.7864562  73.2264651  61.2804346  42.1259755  72.6536478  61.3766398
  34.8165005  74.3379866  46.5805805  35.8077945  74.3428018  46.6880093
  34.6132746  73.5102638  47.0995310  21.6616973  62.6044383  57.8759393
  20.9414989  62.8324765  57.2410310  21.6412134  63.4242484  58.4146837
  42.0612537  83.5335514  58.2869552  42.2439499  83.0276797  59.0631964
  42.7175115  84.3002650  58.3510965  55.9124302  89.8425874  50.6194931
  55.3805740  89.7551476  51.4488177  55.2802587  90.4241938  50.1049154
  45.3352339  82.7577026  60.6492488  44.3619788  82.6674592  60.7056662
  45.4692226  83.2683043  59.8319883  36.2544174  81.8627916  53.2269610
  36.3713798  80.8699680  53.1418915  37.2345413  82.1370570  53.3335448
  49.7637190  99.6483650  58.4740792  50.1605122 100.1687823  59.2101008
  50.2762043 100.0340549  57.7566106  58.7893264  92.8294131  51.5044370
  58.4167038  93.0584834  52.4111413  58.7772720  93.7605151  51.1473311
  52.5693847  83.8752105  48.2652041  53.2639906  84.4680794  48.6270860
  52.8118051  83.9327274  47.3421111  54.5953878  77.9725200  50.0243329
  55.4641428  78.2586608  49.7668922  54.4387118  77.2490364  49.4063224
  38.4381042  88.1961161  65.6831023  38.6183445  87.6009875  64.9844283
  38.2416010  89.0110880  65.2800151  41.4824387  90.6739104  52.9389583
  42.0538702  91.3713971  52.6379571  40.9614289  91.1246004  53.6665133
  52.3509361  93.3794413  42.1141783  51.9832109  93.9587995  42.8169494
  53.2686996  93.3312223  42.2893624  31.2025030  63.0371033  67.2095679
  30.9687837  62.4771476  68.0127850  31.2833728  63.8758644  67.6345982
  48.0249766  77.4295821  55.3136426  48.4123383  78.1979462  55.7807786
  48.6405948  76.7320452  55.5807483  37.7581212  85.5721623  53.0391678
  38.0333569  85.1610593  53.8854691  36.9544957  85.0149698  52.8641751
  55.3822434  80.6903492  49.1420463  55.2746701  80.7400345  48.1862104
  54.5165591  81.0525685  49.4417307  54.2505613  83.0003412  53.2844340
  53.6118676  83.4108927  52.6612281  53.8237917  82.1287731  53.4348755
  54.9310646 110.1597258  52.7242837  54.7339121 109.2434948  52.4675499
  55.6956239 109.9612886  53.3680569  50.1039604  83.5142052  49.2941699
  50.0166242  84.2875821  49.8987316  50.9832473  83.6738790  48.8964100
  39.4473929  75.0631151  39.1008022  39.7601595  74.1329224  39.0504450
  39.9565051  75.4541205  38.3419807  37.8959207  72.8911685  60.5838726
  37.9396308  72.7464497  59.6366742  37.7103315  71.9816165  60.9081782
  53.7745788  83.6188357  45.6366755  54.0018136  82.7075198  45.9788786
  54.2948923  83.6167866  44.7959203  37.5068648  82.4571692  48.6513926
  38.0384494  81.9752822  49.3237420  38.2186355  83.0048513  48.2337505
  34.6292512  93.5703682  56.6163496  35.5704551  93.5707297  56.9425191
  34.7147398  92.8510554  55.9408700  46.5598475  94.9588193  45.8436114
  45.9254399  95.4834925  45.2413290  47.3060445  95.6165986  45.7492048
  62.2032788  94.3500166  58.7829860  62.0015489  95.2289264  59.2349687
  62.5365050  94.6942944  57.9081530  48.4810784  70.6383406  56.6387691
  47.8908562  70.4097781  55.8989812  48.1647991  69.9268581  57.2683561
  49.6256984  76.1587576  51.4102012  49.5262026  76.6140967  52.2731996
  48.9956795  75.4769912  51.4569067   6.1655618  17.4640127  35.7413685
   6.4465569  16.7381620  36.2719929   7.0439229  17.8176007  35.4506620
  10.6168029   1.4104300  34.5796074  11.5869219   1.4047778  34.4650929
  10.3769989   2.2860714  34.2191916   4.2264527  15.5418687  34.7696738
   4.9067349  16.1305142  35.0944324   4.0696489  15.8824791  33.8811060
   3.8542482  13.2062932  40.5263555   4.1911473  14.0108573  40.1739527
   2.9377367  13.3767787  40.7737772   1.8484955   9.2882627  35.6767216
   1.0601726   9.9089616  35.7284035   2.2510338   9.7258286  34.8322232
   7.0576514  20.7004273  42.3937015   7.1865000  20.2042786  41.5788584
   7.6388338  21.4676918  42.2634258  -0.7234104   9.7420855  32.2329993
  -1.0496200   8.8785554  32.0295310  -1.0001139   9.8908757  33.1245613
  10.1235715   5.6531233  44.7925869   9.8101188   4.8768106  44.2808137
  10.3744795   5.1223950  45.6464750   1.2138541  15.3577306  34.6822355
   2.1143746  15.4079298  35.1768368   1.2899204  16.2055035  34.2271155
  16.9943901   4.6865448  45.9391970  17.0665368   4.5882262  44.9581346
  16.2677374   4.0951859  46.1672859   8.1532255  18.4756068  43.9760187
   7.5010035  19.2881214  43.7410614   8.7979235  19.0546834  44.4503861
  11.3140184  12.9777561  41.0262463  10.6565920  12.6392792  41.6636201
  11.9037990  12.2167682  40.9440825  14.7851366  12.3412437  47.0819292
  14.9232658  11.8063177  46.3068501  14.5471017  13.2096023  46.6626068
  -6.0240829   2.9230804  44.3907096  -5.4976134   2.1326914  44.4898107
  -5.7704251   3.2730413  43.5147441  -2.5753765  29.8099272  24.6286699
  -3.2776506  29.8804446  23.9916281  -2.6733375  28.9224159  24.9615766
  -1.4834910  13.0199076  38.3805594  -2.0739867  13.8337819  38.2125803
  -0.6713736  13.3499619  38.0240387  -1.1975123  13.8064170  34.1097164
  -1.0690433  13.3501899  33.2534301  -0.3357369  14.3606600  34.0895295
   4.9546842  13.5974534  37.3585309   5.8016726  13.3256239  37.7638694
   4.7740447  14.3952014  37.9216846   4.5994335  18.9933174  50.9375318
   4.1970436  18.7486352  50.0811170   3.8642532  19.5004506  51.3678191
   8.1742640  16.4884998  29.3338244   8.1260014  16.0174006  28.5052606
   9.1235928  16.5957536  29.4752682   8.1982046  16.0191071  37.6104299
   7.8828779  15.1180070  37.4843723   8.6291885  15.8451776  38.5042847
  21.7258552   7.3228879  27.8987046  20.8864987   6.9412443  27.5935071
  21.5895767   8.3024949  27.8306966   9.8003201   1.4893159  39.7786303
   8.9265776   1.2649669  39.3821164   9.9595509   0.5975354  40.2290794
   7.9948235  15.0093385  26.8129468   8.3119842  14.7965048  25.8819783
   7.1040659  15.3762439  26.5612182   0.9246054   1.5840130  43.5584700
   0.1027015   1.1070472  43.3387739   1.3767243   1.6126413  42.6727596
  13.5944291  13.9179911  38.1540324  13.9874553  14.5697887  37.5817845
  13.5049324  13.1466097  37.5029131  12.9193998  25.6274425  38.6257025
  13.1840055  25.7760970  37.7060602  12.4913779  26.5438011  38.7903213
   9.6643152   9.7927275  47.1032389   9.6943708  10.0620964  48.0699483
   8.8919783   9.1438928  47.2360526  16.9428156  21.3773256  33.9137839
  17.0212592  20.4642738  33.9670040  16.0210433  21.6037238  33.8749290
   7.9781726  24.8369241  43.7684588   8.5677086  25.6549456  43.8519621
   7.1097638  25.3234232  43.9121985   1.0813445  15.6733496  39.4892182
   1.8817246  16.2727372  39.5268848   1.2722217  15.0859844  40.2391851
   5.8816855  17.5678205  41.4797258   5.0074306  18.0200610  41.4383008
   5.8915494  17.3704139  42.4580040   2.6859091   2.3776121  24.5089175
   1.7427948   2.5155680  24.3927109   2.7835629   1.4236479  24.3823830
  14.4671760   0.3941302  42.3008941  14.1468217   0.0727767  41.4597250
  15.4037014   0.6606786  42.0725550   2.4403339  12.4134749  43.8130142
   1.7593566  12.8972484  44.3696856   2.3049053  12.7010072  42.9527183
   9.3272163  28.3323970  32.9397269   8.8366324  28.7707020  33.6265962
   9.9210008  29.0605915  32.6666941   6.1839150   5.8060428  41.4550274
   5.3923738   6.0896248  40.9754917   6.2936020   6.5727818  42.0676746
  12.1315279  18.6202635  48.7974346  12.9037892  18.4943736  48.2220601
  12.0234392  19.5996119  48.7604057   5.5808920  24.9109158  28.8855135
   5.7735581  24.1680738  29.4992273   6.4535703  25.3340033  28.8406501
  10.2474386  30.6674411  36.1782847  10.0458939  31.5105304  36.6161634
   9.4266522  30.5491803  35.6317835   6.8272778  16.3282337  31.6218849
   7.2435159  16.6706768  30.8117258   7.5043086  16.6006745  32.2741415
   1.9290953   4.6372037  42.3107989   1.4763361   4.5587500  41.4338262
   2.5845991   3.8811412  42.1297511   0.0434063  11.3983593  36.0300346
  -0.5538634  12.0980222  35.6972860   0.6955384  11.8703543  36.5561062
  11.2052270   9.2250827  32.0287952  10.3089348   9.1761929  31.6963691
  11.5569969   8.3136498  31.8363399  14.8855582   3.4309908  43.1057505
  15.2432555   2.5740974  43.5137626  15.7087381   3.9408245  43.0470506
  19.8419151   2.9963664  47.0213029  20.7802707   2.9597387  47.3191782
  19.9056138   3.9693634  46.6678441   1.6454046  16.2387236  46.4006806
   2.5430069  15.9662985  46.5989071   1.7605779  17.0791883  45.8985085
   1.4345219  14.0588374  41.8955806   1.6008640  14.8703213  42.4602309
   0.4721102  13.9661245  42.1886336  11.5757646  22.4335863  46.6421620
  12.0019793  22.1745619  45.7865502  11.1269542  23.2365299  46.2912083
  12.2778047  11.9890961  31.7547540  11.3852662  12.3341486  31.7721700
  12.0621620  11.0503558  31.4727020  10.1859494  11.4498388  35.2532843
  10.6136110  10.6024351  35.0187570   9.2807630  11.1986856  35.2728013
   7.2419708  12.6260242  40.2999894   7.3216152  13.2474271  39.5597073
   8.1754078  12.3553791  40.4715244  -2.3296491  23.6181083  37.7448636
  -1.8984153  22.9078752  38.1520805  -1.6506044  24.2301450  37.4824954
  15.6437720   9.9540302  51.2216567  15.5910247   9.6414792  50.2870195
  16.5659003  10.2963212  51.2709635  -0.0882022  25.0421541  36.9835414
  -0.1186158  25.9406548  37.2984317   0.8879118  24.9962245  36.8139549
   4.0215470   9.0133967  44.3768226   3.7505105   8.7532362  45.2882253
   4.3755328   9.9203964  44.5169337   8.8456933  12.8365544  46.5606026
   8.8761711  12.5040324  45.6587972   8.9697890  12.1233649  47.1363666
   2.8221200  28.2744619  26.7308673   3.1900469  27.6612223  26.0974522
   2.5820843  27.6886279  27.4471044  14.9638236  18.2620354  45.9700020
  14.0734795  17.9090711  45.7357270  15.1805455  17.5550634  46.7024706
   7.6189656  12.0265470  26.3304723   8.4459911  11.4940044  26.4166383
   7.9987097  12.8021153  25.8360205  -0.5541412  15.4459312  55.8284176
  -0.9050638  15.1029463  56.6587499  -1.3198801  15.8815340  55.4318353
   5.5112001  11.9856263  53.7732715   6.4221454  11.6409901  53.8493629
   4.9581888  11.2704979  53.8520238  13.1994383  12.7338456  29.2136937
  14.0597374  12.3426149  29.2739254  12.8865389  12.5442250  30.1502466
   4.8510964  37.6358058  47.3919786   4.3309542  38.4320251  47.0856383
   4.2666700  36.9257312  47.0070000  -9.1097619  11.3483469  39.2798589
  -9.2209464  10.3877055  38.9444359  -9.4979195  11.2444464  40.1516435
  15.4522735  11.1172057  44.6247418  16.1034955  10.3545997  44.8856446
  16.0595353  11.6342815  44.0948185   3.5960201  10.3972284  49.7933833
   3.3304501   9.4751077  49.8544004   2.7366058  10.8274974  49.6554865
   5.2608983  16.9057079  44.0863924   5.8343076  16.1147853  44.2160753
   5.0778470  17.2428055  44.9721930   7.5744865  12.9761768  37.5685814
   8.3164087  12.4139512  37.8788327   7.5603633  12.7849715  36.6384399
  -1.0111784  30.8357875  50.1652150  -0.3926319  31.5946573  49.9711890
  -0.8645439  30.6794535  51.0902917   9.8203311  13.2129163  32.0781611
   9.6933719  13.5216990  31.1831013   8.8990318  13.3566563  32.4524640
  11.7489729  -1.2120970  42.3445317  11.8402870  -1.4290423  41.4001644
  11.2447258  -1.9495330  42.6731569  -4.4075005  31.0424840  31.0145170
  -4.7178347  30.1571382  31.3127415  -3.7104710  30.7247452  30.3718484
  12.6110265  21.2910311  44.4558837  13.5999288  21.0812382  44.3098366
  12.6135814  22.0504532  43.8674920   0.5660068  20.9255569  50.0952558
  -0.1749385  21.4765400  50.3885883   0.2079610  20.4180243  49.3600441
   4.1452522  16.4006238  32.2066760   3.8895833  15.5471084  31.8043998
   5.0694108  16.4565987  31.9101156  17.7274458   7.7127595  53.7452506
  17.5448267   7.2411133  54.6209203  18.0215457   6.8866689  53.2719288
  -5.8482265  23.1380296  44.3428519  -5.0191542  23.1326452  43.8554796
  -5.6018391  23.3391972  45.2407613   4.1277057  13.9439550  49.9268876
   3.2295235  13.6913299  50.1960514   4.2512207  14.7765007  50.4933570
   5.6687372  11.9631042  50.6840692   4.9571580  11.2838744  50.6380620
   5.1074602  12.7686721  50.3832092  20.3780941  15.4423318  53.5908047
  21.1008493  15.5410578  54.1777125  20.6929124  15.7825233  52.7656674
   8.9149985  25.1205250  32.8995317   8.4848573  25.1566229  33.7840899
   9.7820223  25.5236038  33.0525926  11.6397393  22.1484055  31.1994511
  12.0881105  22.9073157  30.6808410  12.1146814  21.4276908  30.7834608
   6.1462792  21.4773493  39.2695948   6.8632046  22.0948432  38.8938562
   6.5728240  20.6240359  39.2391330  -1.2520310  16.4008363  35.5320446
  -1.5582399  15.9855674  36.3768999  -0.5555472  15.7423447  35.2412938
  13.8111820  15.8378420  54.6799603  13.5885156  15.1746456  53.9830994
  13.8524736  16.6177318  54.0731199   2.2987224  37.2716046  46.1784761
   2.1541487  38.1415365  45.8349738   1.4512941  36.8402824  46.1045924
   2.5711526  24.9136955  32.3751058   2.1192623  24.5577246  33.1799841
   3.2457803  25.4583621  32.8185507  10.2019400  26.1100000  37.2506681
   9.7778155  26.9415795  37.5378424  10.2209024  25.5962284  38.0651760
  12.2442087  19.4674258  42.3876903  12.2960400  19.9383564  43.2288630
  11.3570373  19.7498878  42.0840961   4.3614419  15.3650500  28.5889115
   3.9998499  14.9982870  29.4377160   5.0608485  15.9525451  28.9848264
  10.3032426  15.1106180  54.3598350  11.0190315  15.4821445  54.9496342
  10.8113135  14.4583364  53.8663611  13.0016653  16.9736013  44.2932821
  12.7858037  16.2191634  43.6672596  13.0265236  17.7109262  43.6120138
  23.9294178   6.6443198  39.8828696  23.2949803   5.9465840  39.7309906
  23.3157741   7.3138426  40.3494787   9.3964788  17.3218432  50.7939702
   8.8111985  17.9599395  50.4083408   8.9689619  17.1366570  51.6726504
   3.0369250  29.9433519  20.7163738   3.5804072  29.1490881  20.5686897
   3.1085825  30.0127416  21.7126094  14.3658104  15.8182826  36.4369447
  14.3805269  16.8085865  36.3769826  15.2919081  15.6148530  36.2267232
   5.3047278  30.9015220  24.3393501   6.0015342  30.4081884  23.8891657
   4.5275382  30.7280333  23.7141053   6.8937293  21.3251112  35.7960160
   6.9425752  22.0583162  36.4873968   7.3148700  20.6051944  36.2853378
  16.4888052  12.7781656  49.3032133  17.3282821  12.5410978  48.8900566
  15.8779960  12.5088748  48.6399132   2.7466069  18.7712512  29.2127140
   2.2762196  19.4202887  29.7893005   3.6931286  18.8627583  29.5502585
  14.9294940  -0.3426240  30.0580666  14.1804016  -0.3292400  29.3951260
  15.6521836  -0.5890745  29.4335324  26.0615748  29.3786744  44.8992886
  26.8544946  28.8097059  44.7500712  26.5134394  30.1691783  45.2932378
  11.9091225  17.6813042  37.8366233  11.9756866  16.9981651  38.5787190
  11.4015720  17.0810633  37.1987163  -0.7216623  10.7232193  53.2847856
  -1.0254527  10.4490727  52.3742461   0.1567766  10.4110258  53.2328502
  -5.9593848  15.1514434  57.4186382  -5.3988700  15.7268781  57.9449012
  -5.7183552  14.2565373  57.7105711   1.6063617  13.4400512  37.6566395
   1.5083735  14.2781772  38.1693826   2.5367852  13.5738806  37.3091468
  14.6455932   4.1621388  39.6007711  13.8649570   3.8502420  39.1590518
  15.2973402   3.4720806  39.5205079  13.1682576   1.5499885  48.5746886
  12.7068617   1.8382788  47.7298488  13.2234414   0.5823623  48.3858911
  15.2732547  18.5072032  34.6873400  14.8308648  18.8041285  35.5864660
  14.4742859  18.0354264  34.3778343  11.4228761   9.6141670  28.9565582
  12.2292799   9.3516926  29.4773962  10.7635468   9.5104947  29.6531897
   3.9731128   8.5653257  38.5375428   3.9894727   7.8660859  39.2293714
   4.8538876   8.9739881  38.6659349  12.6675554  11.0490766  38.9111366
  13.1425133  10.9985733  38.0419185  13.3439121  10.5715164  39.4939248
   8.9538391   9.9223446  30.1963340   8.2298888   9.7747029  30.9021757
   8.5711928  10.7050843  29.7455851  15.2446729  23.0738460  54.8405496
  15.5180803  23.3031820  53.8812123  14.9867792  22.1022236  54.6381768
  19.0157051  18.3460612  48.2691982  19.9542011  18.2611144  47.9925970
  18.6936949  17.4977288  47.8752384   2.0736290  18.4284933  44.7156754
   2.1198515  19.0212278  43.9382490   2.3704916  19.1244400  45.3806031
  10.9292599  16.5348620  29.7094035  11.4693209  16.1725085  28.9422833
  10.8339845  17.4554674  29.4362756  23.5571899  24.9539979  28.8010670
  24.4535129  25.1443036  28.3588882  23.9349257  24.2465845  29.4395993
   9.2458927  35.6147190  37.2129131   9.4252845  36.1396105  38.0152414
   8.4078029  35.9978954  36.9580063  -2.8370641  30.0847234  29.0522378
  -2.0090961  30.5098559  28.6971392  -2.4697877  29.2429446  29.3773091
  15.4304507  15.7881565  42.0389677  15.5072151  15.1609564  41.2667072
  15.1743284  16.6213128  41.5833549  14.0990183  36.3705992  32.6504205
  14.9824173  35.8384654  32.8092728  14.5486929  37.1636546  32.3301331
  16.0843029  41.6141645  32.6922710  16.0488678  41.3599299  31.7317150
  16.5253793  40.7656099  33.0066019   5.5987044  18.2865291  29.9899389
   6.4691356  18.7139851  30.1264955   5.2414162  18.2789733  30.9143685
  12.3991704  23.7815520  43.0004982  12.9735111  24.1093117  42.2551530
  12.6427856  24.4670676  43.6530503  12.7545102  31.2860944  38.2272352
  13.6810816  31.0550696  38.4206824  12.7406036  31.6684911  37.3518185
  10.6695496  33.3154654  29.2707962  10.0084440  32.7704512  29.8382556
  10.8066344  32.7147685  28.5336557  21.9208259  25.7428489  35.0864676
  22.2762995  25.4575199  34.2339292  21.5218312  26.6040870  34.8158794
  21.9826822  37.4060179  38.5588901  22.8370098  37.1805301  38.0809457
  22.3158880  37.3024342  39.4862112  17.5311335  15.5457582  43.7309930
  16.6587181  15.6357996  43.3226820  18.0818503  15.7052739  42.9406027
  12.5370405  19.7579220  35.2762539  12.5086004  18.8663191  34.9181999
  12.6476775  19.5378712  36.2192983  14.6478289  27.9671774  30.3692750
  15.2173096  27.2194836  30.6764748  15.0982155  28.5167679  29.7561545
  18.0013615  11.8905743  46.6831200  17.8581430  12.3438520  45.8453161
  17.4849806  11.1068272  46.5789562  25.9468589  24.9859835  27.8232085
  26.4732004  24.7368108  27.0281316  25.9342851  25.9514498  27.7857172
  22.7048063  28.0045789  47.2278393  22.7250359  27.2182400  46.6414482
  22.2310635  27.6024948  48.0417450  12.2341724  23.2300729  37.8406812
  12.3512096  24.1468243  38.1912851  12.8378698  23.3053528  37.1014396
  21.1293956  25.6918207  38.9335948  21.0539717  25.1191892  38.1277760
  21.7084973  25.1992522  39.4663585   9.2605328  23.7256914  40.0547844
   8.6501152  24.4513722  40.3112005   9.4620012  23.3238576  40.9202213
   9.3331379  27.2459040  40.0604661   8.7070224  27.7097033  40.6373281
   9.8724019  27.9248275  39.6782745  13.2590863  35.6180338  27.9085544
  13.3396053  34.6009865  28.0858867  14.0015226  35.8568437  28.5170742
  17.2378881  31.2042434  41.1047096  16.8257549  31.3733984  41.9876320
  17.9167916  30.5807804  41.3801884  23.9816995  18.9491731  46.0733927
  24.3906560  19.3668997  46.8422631  24.7658725  18.9339151  45.4657076
  18.8846142  33.7768610  30.7107170  19.4023350  33.8633506  31.5220812
  19.6000904  33.4652744  30.1397395  16.5577854  37.2513685  52.4735564
  15.6211001  37.1557799  52.1363089  16.9985075  37.3589523  51.6022807
  14.3297641  33.8805533  50.6356846  14.8575807  33.0966128  50.9029671
  14.4116949  33.9475606  49.7226742  21.0615655  19.0841197  52.4546557
  21.2137128  19.3713617  53.3639870  21.5051247  19.8886546  52.0004389
   5.4171735  29.8106043  36.1244082   4.5274673  29.5614064  36.3564829
   5.5560977  30.6721291  36.6168848  26.3913276  26.7240541  35.0820583
  26.7597239  27.6148973  35.1933682  25.5009345  26.8940351  35.4149177
  16.5983293  30.6100429  34.7874511  17.2136739  30.9110078  35.4977361
  17.2520376  30.1640977  34.2054391  20.6897484  13.1051413  40.3213083
  21.5191502  13.1784958  40.8478579  20.6448152  13.9157620  39.8667407
  25.1613555  22.2221722  44.6382128  25.0671589  21.6853936  43.8053630
  24.2467335  22.6171562  44.6670288  12.2346549  27.8976838  43.2862341
  13.1926260  27.7231321  43.5188447  12.3246973  28.7954787  42.9402530
  18.9532176  31.2663060  38.9582436  19.4734815  30.5285241  39.3628274
  18.2595994  31.3914578  39.6093801  13.6034594  13.7452089  33.6387403
  13.1884800  13.3353727  32.8712657  12.9189312  13.5971672  34.3499600
  17.9144797  36.6751397  43.8223440  18.0892464  35.8081832  43.3639057
  17.8422648  37.2416671  43.0571228   6.1500515  32.0032941  44.0825197
   5.8232462  32.1565015  44.9899089   6.1945544  31.0190580  44.0359234
  12.1015892  26.7378877  49.2870182  13.0123521  27.0637898  49.2335226
  11.8248324  26.9854388  50.1900727   8.0733723  22.6896697  37.8539785
   8.6354397  23.1050993  38.5821981   8.8208319  22.6395246  37.1906558
  21.0232263  31.5438882  30.3092230  21.3483814  32.1978756  29.6491667
  20.6706923  30.8445779  29.6825505  11.8853594  33.3267604  40.2413668
  12.4575679  33.9991396  39.8882795  11.6432534  32.8295079  39.4517735
  33.0080521  31.7194781  40.6599074  33.5776475  32.4362162  40.9630247
  33.5366183  31.2795066  39.9387761   5.1720211  27.9339786  21.7456755
   5.9943792  27.9680959  21.2060866   5.5593433  28.2092297  22.6372972
  16.6679806  27.0897545  47.2628915  16.9142602  27.5864420  48.0782208
  16.4520224  27.7510409  46.6387084  12.5954343  30.4048634  33.3724751
  12.7548747  29.8904055  32.5570714  11.6425334  30.6451497  33.2439676
   5.3100593  41.3535980  28.5627237   4.8043592  40.5933122  28.2228911
   5.2221585  41.1858217  29.5238653   5.8016033  27.6860573  41.9784013
   5.0336157  28.1988762  41.7784240   6.5377582  28.2764010  41.7751670
  23.7842911  26.4213438  32.9620746  24.3420522  26.9994458  33.5411405
  24.1430682  26.8160096  32.0913663  12.0708083  28.6670934  35.4276279
  11.3202240  29.2531450  35.6947129  12.4353019  29.2736265  34.7404135
   5.8203389  31.9162508  37.5857364   6.5254121  32.5134152  37.8424000
   5.0253077  32.4919568  37.7060351  21.5178663  43.0429465  45.0935062
  22.3535834  43.3235611  45.5479559  21.8234745  42.8307326  44.1999878
  21.0572456  32.9534964  39.2218692  20.3986223  32.2790750  38.9582156
  20.9049981  33.0104264  40.1630376   7.6539723  20.3878865  46.4096275
   8.2643452  20.2610916  45.6576797   7.7154974  21.3726858  46.4560159
   0.8342315  24.2097885  34.3214764   1.2108138  24.3296688  35.1802478
   0.1900815  23.5173196  34.4243800  10.7483346  23.1119223  26.8387359
  11.6261785  22.7455584  26.4608016  10.4801916  23.5888332  26.0204108
  20.2654874  29.0006588  36.4446100  20.1148258  28.5275698  35.6277042
  19.9526677  29.8946005  36.2291449  16.3779438   9.0020311  35.7389519
  16.0841622   9.7260291  36.3374134  15.5512484   8.5097447  35.7079489
  17.8038335  18.0860474  34.5899851  17.8608918  18.6395125  35.4259634
  16.7814369  18.1564125  34.4582544  29.1145897  26.8687436  26.3101310
  29.5860994  26.3390273  25.6067423  29.3420330  26.2942398  27.0530485
  17.4095757  30.0449763  25.3266824  18.2767267  30.2661438  25.0000677
  16.8604402  30.0855862  24.5636459  20.9158165  30.2684527  28.0081322
  20.9868490  29.3862623  27.5182448  21.3771566  30.8317879  27.3146258
  27.5212438  23.2631326  42.7801915  28.4934869  23.4891926  42.5654255
  27.6653224  22.3017103  42.9036960  13.4570809  25.5869745  45.0255755
  12.8951850  26.2669555  45.5738573  14.1335358  26.3187198  44.8081357
  23.4581938  30.2778768  30.7639964  22.5603669  30.5581913  30.5227759
  23.9964625  30.6698331  30.0855573   5.2303351  16.2451532  26.1915280
   5.3478988  17.1438380  26.4038918   4.8209376  15.9076648  27.0317471
  21.6118209  24.2288279  26.7306346  22.2035907  24.7849796  27.2970808
  21.5270176  23.4534332  27.3631784   4.8453218  35.3911681  33.8875152
   4.6881941  34.4684745  34.0085056   5.7424619  35.3975772  33.5231203
  17.6413398  24.8550568  28.4506674  17.7021031  25.8040243  28.4380863
  17.5522439  24.6202848  29.3944200  22.4337472  21.2878503  37.4476495
  22.1814625  22.1219165  36.9914053  23.4477659  21.4148664  37.4760913
  15.2163692  30.1456201  39.1533215  16.1397474  29.8085129  38.8792869
  15.5660324  30.7826992  39.8764992   9.2482508  28.2221730  23.8790945
   9.5856653  27.4551546  23.3956762   9.8120200  28.9183287  23.5260448
  20.8340066  33.9466887  34.6652110  19.9238371  33.9324377  35.0744423
  20.7422137  33.3369904  33.9422882  23.3746673  11.1194574  35.3366217
  23.3392584  12.0090764  35.7186276  22.4524876  10.9001393  35.6839611
  19.4541393  44.2525782  43.9985630  19.8595419  44.6269297  43.1720133
  20.3242619  43.8762436  44.4084733   8.0045537  25.0697990  54.6494440
   7.4359432  24.7264567  55.3843023   7.2779504  25.5053540  54.1477602
  14.2830385  18.0800563  40.9564549  13.5448601  18.4967117  41.4129506
  14.5364774  18.7671106  40.3011793   8.0164400  24.9427556  35.4047781
   8.7353098  24.5757505  36.0168639   7.8847105  25.8018233  35.8830758
  11.2833863  29.2258979  29.3957574  10.9143854  29.9414075  28.8615368
  11.3615468  28.5305528  28.7303327  13.5621815  28.2310704  39.8188137
  13.0149552  28.7327934  40.4447576  14.1257483  28.9619205  39.4194178
  12.3487445  33.4508566  35.6512638  12.0480169  33.6092428  34.7576916
  13.2764175  33.1529300  35.4999684  14.7560306  31.5570136  46.6080586
  14.9403557  32.2319161  45.9495293  15.6462703  31.4665175  47.0414828
  26.5169832  33.3847747  32.1917043  27.1420477  32.7990808  32.6759728
  27.1824132  33.9456176  31.6933015   7.5662653  14.2436074  43.0786473
   8.3401542  13.7052504  43.4281623   6.8982258  13.5557146  43.0502696
  23.5953253  31.7719750  39.6835515  23.6862297  31.2958452  38.8512077
  22.7825437  32.1461749  39.6862940  12.0690495  37.4730052  31.2135392
  12.8802126  36.9835954  31.4341885  12.3243074  38.3887523  31.4661130
  18.1380540  28.4444037  43.7433873  17.6547729  27.6707253  44.0643446
  19.0628004  28.2020277  43.8039188  -6.3658960  22.6143271  40.9285125
  -6.8483097  23.3381498  40.5331685  -5.4229877  22.8784649  40.5935201
   3.2669471  28.5515096  45.4829746   4.2161714  28.6471634  45.1745201
   2.8044263  29.0908981  44.7796099  10.3831380  37.5360910  38.7847532
  10.2319559  38.4616330  38.9625632  10.4281272  37.1973668  39.7480030
  28.0074288  30.7450756  39.4359423  28.1390817  31.0162282  40.3236736
  28.3706491  31.4403083  38.8988228   5.0688560  23.1755410  51.0859465
   4.6985854  22.7110264  50.3007382   4.6517336  22.6590788  51.8169115
  19.1642445  30.6500238  45.7607432  19.4854167  29.8809274  46.2802931
  19.7796320  30.6670386  45.0081540  31.2216608  25.7300192  41.7232689
  31.1353516  26.7022737  41.5882045  32.1961907  25.6429045  41.8881789
  15.7629990  20.3894218  39.1177334  15.8054117  21.0061450  39.9299559
  15.7055652  21.0816493  38.4433108  17.0387577  39.2349318  33.5600689
  17.9572510  39.1706736  33.3166302  17.0479341  38.9708959  34.5135899
   7.9410214  39.8802536  45.9256373   7.0815710  40.3983373  45.8630949
   7.8183948  39.6065141  46.8654525  11.3152028  32.5033936  49.5258430
  11.6409629  31.7716602  48.9738548  10.3813494  32.5064774  49.2397124
  12.4480209  20.1672911  29.6803472  12.5855745  20.1588904  28.6722426
  11.5890188  19.6360282  29.6392678  18.3234974  23.6269808  38.4104773
  17.9484395  23.9663590  39.2603955  18.8314113  22.8580915  38.8451364
  14.5312558  30.3271207  43.2328825  14.2184121  31.0338988  42.5817821
  15.4183697  30.7513888  43.4748870   9.4876495  29.8098630  47.9675959
   9.0948996  29.5769028  48.8302780   9.1370494  29.1669231  47.3623807
  19.6281502  29.9941610  41.5603074  19.6979777  29.1631500  41.0117264
  19.8177431  29.6187431  42.4284755   3.7222315  30.0646029  32.2025612
   3.9403040  29.6498010  33.0473014   4.4285133  29.7021344  31.6305154
  17.2087659  20.0235741  46.2697464  17.7044060  19.3279926  46.7422936
  16.3796129  19.5479852  46.0975125   1.9544460  21.8990363  37.7608805
   1.0044568  21.8654350  37.5808648   2.0311175  22.8386759  37.9405475
  10.0019445  41.5802301  46.6249236  10.9256774  41.3284347  46.7445692
   9.5983592  40.7339046  46.3874439  24.1088989  27.1493424  36.3042399
  23.8648741  27.1186179  37.2339634  23.2773673  26.8174648  35.8598395
  20.0149542  36.9247021  40.9095854  20.9393472  37.0520928  41.2870087
  19.5764623  37.6580880  41.3363956  23.0777419  14.7555060  41.6034385
  23.2181454  14.6366124  42.5454089  23.3957947  15.6501154  41.4549818
  31.3558812  28.8797003  25.9625074  30.5819046  28.3649669  26.3077051
  31.3200762  29.6594230  26.5885472  12.0244320  34.2973818  32.7125358
  12.6541326  35.0751723  32.7542841  12.5940758  33.7038841  32.1362407
  28.4415925  28.7353687  43.5534211  29.2798454  29.2195730  43.5412222
  28.3438637  28.4238834  42.6539304   8.3359783  29.4508572  37.9479374
   9.2632890  29.3483392  38.2909453   8.5331213  29.9464497  37.1417149
  31.4467830  34.8599342  32.6226674  30.5236596  35.0343982  32.5691071
  31.6289594  34.6474665  33.5784202  12.0154928  44.6513830  47.4284490
  12.8474073  45.0560046  47.0615737  11.4003125  45.3817145  47.0490675
  25.4791961  34.9780416  34.6085972  24.7274119  34.7929343  33.9987391
  26.1970127  34.4455210  34.2077425  13.7801472  14.3646889  45.8696844
  13.0114392  13.8636525  45.5013373  14.0494544  14.9085626  45.0944373
  27.6160002  27.7254330  40.9216327  27.5728521  26.7943956  40.6396073
  26.8539371  28.0988144  40.4751487  10.2947058  42.4998249  33.5380448
  10.4973531  42.6500126  34.5025214   9.5881616  41.7956970  33.7048242
  20.2119503  32.2203195  32.8409309  19.6368735  31.5083238  33.0798290
  20.6848660  31.8320409  32.0411782  16.7767980  25.4329316  43.7365001
  16.0999722  26.1165250  43.6120797  16.3032929  24.7518698  44.1795776
   2.4717502  30.3411623  43.4651970   2.8085762  31.1116023  43.9671426
   2.6193019  30.6869989  42.5140970  15.4135304  40.4717440  39.2002897
  15.7838072  39.8784376  38.5153491  15.0363563  41.1984686  38.7101028
   4.8949408  25.2443666  43.2968486   4.7507028  26.0071880  42.7158681
   4.6328037  24.4661820  42.7444943  10.3405212  45.7041534  40.4932354
  10.5809191  46.4845984  39.9782401  10.1784049  46.1428838  41.3921718
   9.8228063  17.2617344  42.5442716  10.1156518  17.9380404  41.8984006
   9.1826704  17.7021094  43.1001023  17.5478906  24.4528249  41.0230532
  18.4564469  24.6440529  41.4003858  17.0320189  25.1076635  41.4184612
  17.2536673  31.4586694  47.5498701  17.8126144  31.1682604  48.3429799
  17.9002622  31.2870188  46.8522335   2.2918583  23.1590503  30.1979153
   2.2213198  23.8578853  29.5333692   2.6476456  23.7061801  30.9909690
  20.4951530  32.5764133  41.7519614  20.2061857  31.6488231  41.8972676
  21.0580055  32.6449995  42.5533054   0.2210100  23.7545394  39.7639523
  -0.2501309  23.9606423  38.9510915  -0.4895240  23.7721419  40.4217372
  22.2842748  33.5417788  36.9141720  21.5313040  33.7849429  36.3189459
  21.7756749  33.3316589  37.7381456  17.5745869  25.3726373  36.1776255
  18.0698923  24.8347997  36.9034048  16.8539182  25.5855244  36.9064756
   6.0609352  33.7942116  31.0471739   5.9953625  34.7609432  30.7157893
   5.1256514  33.6850425  31.2576585  12.8645725  23.8300230  29.7315580
  13.6835699  23.3283757  29.9075016  13.1197863  24.1858722  28.8608207
  15.1369003   7.8550077  32.9664892  15.3898331   8.7833831  32.7326275
  16.0387409   7.4662656  32.9863708  18.7638783  34.7640729  42.0394060
  19.3132199  33.9498373  42.0469884  19.2990796  35.3307729  41.4604496
  14.6551967  39.4421929  41.5677451  15.0104299  39.7478134  40.7310697
  14.8645416  40.2333783  42.1438475  27.3261759  27.0306344  47.1106554
  26.4355220  26.6760868  46.7868014  27.8450795  26.5743670  46.3506537
  14.4217849  18.6419660  37.3206657  13.6574781  18.3073032  37.7929118
  14.9479131  19.0478327  38.0780177  11.6687191  15.2642680  42.8742339
  11.5173788  14.7976101  41.9807547  11.0313666  16.0103918  42.6777698
  10.3275050  33.1709164  37.4356001  11.1024653  33.3811472  36.8638693
   9.8994835  34.0495204  37.3402281  17.4727008  17.9118441  40.0573876
  16.9425719  18.3619567  40.7050507  18.3264750  17.9583007  40.4993621
  10.8047933  29.1787844  38.7890365  11.3735027  29.4383159  39.6062491
  11.5027410  29.5063107  38.0972240  20.4994606  37.4839350  35.0165490
  20.2702870  38.2400792  34.5030976  19.9744553  37.5832240  35.8111957
   8.2389469  27.9089463  46.3706575   8.2439673  26.9664785  46.6929884
   8.4216195  27.7411073  45.4232649  10.0195571  22.2599118  36.1811065
  10.7614937  22.2298794  36.7883240  10.4559973  22.2370071  35.3598523
   5.5034789  28.2928750  33.7983301   5.5269339  28.9522880  34.4874289
   6.3131896  28.5228139  33.3228441  13.3119472  27.5263609  18.5507063
  13.9204485  26.7980897  18.4798856  13.5506318  28.0936824  19.2533821
  18.3948112  31.5235156  36.3808251  18.3288036  31.2119184  37.3084059
  18.1554299  32.4692880  36.5628236  10.7023902  35.5532416  43.8282260
  10.0847051  34.7812229  43.6200758  10.4022119  35.7943765  44.7334104
  18.0421534  29.8521518  32.6621014  17.9496156  29.1319234  31.9956964
  17.5234186  30.5601370  32.2078318  17.7557065  41.7704408  42.7371524
  16.8232277  41.9811932  42.8633237  18.1965211  42.5578997  43.1349816
   9.8352850  49.7385432  31.2932607   9.0214583  50.1428920  31.0169162
   9.8858591  49.0571831  30.5375069  21.1011708  23.7578306  36.4497657
  21.3405175  24.6083935  35.9398873  20.4611362  23.3809084  35.8795253
   6.6127515  30.6228216  29.0472712   5.9335439  31.3410863  28.9823407
   6.8217202  30.5749684  28.0722389  -1.3243864  16.8122673  39.1818822
  -0.4107583  16.4546181  39.2618744  -1.5627296  16.8799878  40.1086643
  21.0412553  26.4945108  48.9247475  20.1453465  26.0176559  48.7366425
  21.5085543  25.7272001  49.3465182  14.5799459  28.5946635  46.3224171
  14.1761635  28.6111276  47.2102056  14.6499423  29.5439658  46.1541041
  22.6877240  23.1368836  44.4091183  21.9767019  23.0804742  45.1109608
  22.0390348  22.8648480  43.6573260   5.8680084  35.6457155  36.4336838
   5.3311587  35.4293501  35.6438793   5.4885095  34.9704966  37.0529004
  24.6652356  23.9906117  36.9009934  24.6640767  23.9256317  35.9445595
  23.6930905  24.2246624  37.0164404   1.3127104  36.4946660  48.8341486
   1.4192549  37.4545816  48.9118641   1.6525873  36.3254423  47.9713490
  27.3982374  28.9312108  48.9210089  26.9017899  28.2642614  49.5188782
  27.3637434  28.3308868  48.1280834  24.8865921  34.0039863  36.8954745
  23.9029573  33.9235073  36.8093204  25.1391406  34.3663871  36.0166109
  33.0254627  27.0088282  37.1813613  33.4831434  26.2979030  36.6435833
  32.4090990  27.3291508  36.4819469   7.1842983  32.0986134  34.1702251
   6.2274014  32.1295984  34.0748623   7.3016330  33.1113816  34.0993312
   9.7080666  23.0407155  42.8844368   9.1383444  23.7353798  43.3229395
  10.5667851  23.5302774  42.8727352  15.5218076  22.9338885  38.1366152
  16.4997656  22.9057070  37.8521302  15.2406760  23.4668242  37.4037070
  16.0626827  13.0630066  34.5548554  16.3417229  13.9934532  34.7474277
  15.2331688  13.3131881  34.0159008  16.3054675  33.2727399  27.0866995
  16.1789913  33.6622280  27.9462820  15.7422067  32.5007218  27.1418480
  10.7789102  24.5409197  48.6345397  11.4391209  23.8314386  48.5915590
  11.3054623  25.3165092  48.9249969  17.7982213  12.7429660  44.2330904
  17.7660348  13.7307364  43.9775184  18.1521623  12.4034470  43.3685445
  10.2893605  51.3544537  33.7485901  10.1538103  50.8142427  32.9554525
  11.1969866  51.7268638  33.4645299   4.4162940  32.6339533  33.7306059
   4.2430913  32.3648938  32.8018894   3.5158341  32.3803059  34.1411594
  19.8629981  25.6117704  41.5226020  19.9451597  26.5777034  41.3812748
  20.1349789  25.2948479  40.6453842   3.6457818  18.6884478  35.3993802
   3.4905956  19.0228300  36.3494247   4.4860067  18.1972514  35.6057486
  24.9256848  20.8367493  47.8533177  25.5693406  21.4496762  47.5077169
  24.2866819  21.3711483  48.3432636  26.1922779  27.2220102  50.7519394
  25.4900324  26.8379985  51.2958328  25.7387226  28.0552009  50.5550029
  35.3131696  33.3062427  41.5268834  36.2147730  33.5946894  41.7008433
  34.9691875  33.3879110  42.4746454  36.8654945  20.6447503  50.3907064
  37.1644792  21.2925618  49.7528855  36.4654316  19.9858722  49.7844814
  16.5925817  33.7702509  40.4652941  17.5465652  34.0055765  40.5474352
  16.6743009  32.8210424  40.5379914  31.6722700  28.5018351  20.7886208
  32.2483013  27.8651721  21.1804868  31.3374564  27.9966944  20.0104038
 -11.4618778  40.1817312  46.4855802 -10.7777459  40.5007472  45.8214535
 -11.6474473  39.3159247  46.0096248  10.4022620  37.9671769  48.2739285
  10.9778281  37.4161898  48.8335170  10.9014735  38.8271179  48.4056313
   8.3334561   8.5359907  33.9321691   7.5209763   8.9312174  34.3451267
   8.2649819   8.9132879  33.0438631  13.2363639  11.1264337  42.9117814
  12.7568570  11.9398603  43.2033935  14.0675544  11.1861987  43.4622403
  19.3432447  12.6170635  59.6253627  18.4062057  12.6426439  59.9540018
  19.4384765  13.5775471  59.3896577  27.8534016  16.7034330  34.3816041
  28.8419570  16.5506598  34.1244463  28.0614121  16.7961100  35.3744976
   5.0306245  34.1201934  42.9893138   4.3369202  34.2346375  43.6572881
   5.5093028  33.3602563  43.4298818  13.5298612   4.1190226  27.0232638
  13.6558723   4.3214134  26.0610346  12.6119401   4.0485730  27.1491835
  30.8669457   7.0574183  40.4959291  31.2436732   6.4711583  41.1811768
  30.0905947   7.4032265  41.0075100  12.6743147  33.0442303  61.4511386
  11.7089644  32.9546301  61.6569044  12.8709198  32.0558555  61.4072510
   6.6512617  39.4076947  35.9985051   5.7385200  39.4913203  35.7536742
   6.9313171  38.5343850  35.6744046   0.8967971  32.7546313  49.3018850
   1.5345505  32.6195253  50.0214334   0.4863551  33.6020661  49.5816761
   8.6044538  32.8633196  48.8399467   8.1886012  32.0879698  49.2853602
   7.9211267  33.0282940  48.1226818  22.5707885  21.8007202  40.6719503
  22.7950551  21.5717786  39.7155837  22.5565623  22.7682542  40.6004226
  34.0916083  25.1098768  35.7098526  33.8485355  24.3215745  35.2190289
  34.5794194  25.6526439  35.0529688   8.1774854  29.3228910  41.6546708
   8.8415899  29.9218507  42.0388923   7.7520728  29.8935792  41.0272168
  10.7313926  39.4232367  26.6376389  10.6043570  38.4907397  27.0476434
  10.3471069  39.3274492  25.7885184  16.0062567  34.7475093  29.7216038
  16.7259149  34.6680864  30.3628710  15.6761330  35.6249687  29.8730517
  27.1333043  24.7348652  33.3822221  27.0182343  25.6980755  33.7216320
  28.0364352  24.5819076  33.7504099  19.9130126  22.9463750  42.9432361
  20.0299660  23.1027609  41.9927050  19.5539431  22.0446330  42.9476328
  26.6483522  31.2592116  36.6917427  27.2482619  30.5160046  36.6868475
  27.2630189  32.0272855  36.7714462  13.8290518  41.4779885  30.1312329
  13.0132488  41.0425424  29.7728795  13.3803002  42.2117899  30.6655394
   2.3944489  39.8570442  36.0081084   2.6361211  38.9477308  36.2710920
   2.4376692  40.2912430  36.8809560  33.4290469  29.9486639  32.9449218
  32.9187169  30.6159356  32.4879870  33.3912750  29.1688794  32.3961970
  -3.4670665  34.8558296  48.5274180  -4.2495953  34.4777383  48.0272977
  -3.2709254  34.0268713  49.0723393   3.7407489  18.0785852  48.5630144
   4.4173465  18.3352637  47.9069150   3.8197909  17.0605399  48.5183417
  27.6092004  19.6674218  32.1825680  28.3357328  19.5714984  32.8746369
  27.1239975  18.8028285  32.3608582  10.8527006  41.6273496  51.3191896
  10.5132465  40.8757649  50.7425314  11.2479220  42.1555595  50.5948813
   9.8774690  36.4692002  46.1255007   8.9177012  36.5594883  46.1425842
  10.1678033  36.9225265  46.9596295  17.9034076   9.6800885  28.7155968
  17.3921345   8.7928413  28.8785346  18.3358762   9.6647471  29.5734346
   7.6774951  21.8241756  51.6159063   8.1496745  22.6298021  51.9049418
   6.8619050  22.1773973  51.2482439  25.7906346  24.3394764  40.8352607
  26.6159464  24.5235732  40.3777462  26.1582798  23.9670776  41.6338373
  13.0965505  34.2816226  48.2842699  12.4424245  33.6818854  48.6257824
  12.8156002  34.4761802  47.3899123  19.5480461  37.9882491  37.5454451
  19.1809708  37.1233873  37.7524021  20.5260712  37.7955107  37.5574727
  15.8558190  30.5183289  61.4939261  16.0406317  30.5501824  62.4851796
  16.0477827  31.4411640  61.3101940  13.7811394  31.9836582  41.3287293
  12.9676053  32.3582895  40.9949330  14.0153325  32.7893286  41.9189209
  28.0673866  25.4246171  39.3953089  29.0007670  25.7574585  39.3606127
  27.9379067  25.3104143  38.4173226  22.0145453  42.5925775  42.6971776
  21.3312457  43.1154087  42.2063744  22.2275146  41.9513658  41.9666896
  32.5111172  28.1815925  30.9065010  32.3920006  27.5193829  31.5993641
  31.7623806  28.8016466  31.1392652  22.4137993  29.0132396  38.4188876
  23.1872271  29.4323964  37.9911592  21.8231506  28.8887443  37.6065727
  24.8146978  39.0575222  42.1588059  25.1205379  39.0719081  41.2502949
  25.4665714  38.5445371  42.6330715  13.4487216  37.3787748  46.6282379
  13.4883076  37.9743516  47.3875099  13.5102615  38.0380524  45.8744033
  26.2245044  36.3735413  40.7051218  26.1048752  35.4556976  40.2750315
  25.6144124  36.1569780  41.4510380   8.0148665  32.9962506  39.0333276
   8.0011906  33.7072757  39.7163136   8.8990810  33.1596521  38.6560742
  12.1195786  42.7152761  49.1630128  11.8187595  43.2846071  48.4354786
  13.0557074  42.9913889  49.2232905  19.1783621  35.5540923  38.7476104
  20.0132370  35.1322860  38.5413935  19.4690117  36.0823291  39.5448269
  17.1528280  40.6983431  30.3165016  18.1040187  40.5680981  30.6551160
  16.9384594  39.6896318  30.2368133  14.2808637  38.7130550  49.0846364
  15.1459443  38.5132833  48.7008621  14.2946507  38.1174222  49.8852888
  34.0048691  28.3084857  41.3133354  33.7049326  27.9309419  40.4407327
  33.9922839  27.4213046  41.8046365  28.9911021  32.3354449  37.3914175
  29.8780524  32.3559419  37.8355541  29.2038481  32.8467447  36.5909983
  18.4127614  34.4772655  36.3600784  17.6475855  35.0006591  35.8933598
  18.4231709  35.0254259  37.1600174  17.1828686  37.8269212  35.6675253
  16.7058624  36.9334878  35.7530499  16.9562929  38.1910565  36.5191104
  28.4409711  35.5044255  33.6997378  28.6282463  35.9043872  32.8181448
  27.7137312  36.0863283  33.9644387  24.9586417  20.6945036  41.9423180
  24.1884200  21.0742665  41.4271960  25.5848863  20.4377402  41.2997803
  18.8743244  38.9816028  42.3436066  18.9314779  39.0772056  43.3005630
  18.4586833  39.8111892  42.0348769  31.7525550  32.6473061  38.1029876
  32.4926260  33.0099173  37.6077041  32.0794855  32.7774005  39.0098676
  13.0534446  35.8068460  38.8939107  13.0665546  36.5548358  39.5334254
  12.2403603  36.0465850  38.3940262  17.2014506  45.5056007  42.4641893
  17.6271487  45.3621783  41.5449430  17.7361936  44.7529941  42.8698971
  30.4435743  29.6599758  31.9431362  29.9594685  29.6996820  32.7804186
  30.9186638  30.4802755  31.8244290  31.8874555  28.5835617  35.0802285
  32.0523004  29.2023407  35.8585509  32.5018608  29.0532527  34.4286232
   5.7858675  43.6570393  49.4957774   5.6110539  42.6873967  49.3571781
   6.7730115  43.6088924  49.6147825   2.9418091  47.8081083  39.2966885
   2.1945624  47.5770816  39.8448559   2.3995857  48.1269511  38.4837526
  22.8543663  36.2549411  34.8961479  22.0827809  36.8448551  34.9950870
  22.4183002  35.4267265  34.7376158  23.4941787  28.0850404  40.6177271
  23.1648498  28.6107819  39.9070156  24.3383092  27.8196203  40.3390350
  14.0514955  36.8844302  42.6861855  14.2826974  37.6144472  42.0379578
  13.6035389  37.3960405  43.3388994  25.2796923  65.6600600  35.7269709
  26.2253473  65.7274863  35.6415222  24.9094389  66.5071237  35.6069092
  38.6950415  59.8030973  32.3868404  39.2335084  60.5095801  31.9602422
  38.3964141  59.3539342  31.5792432  37.2918966  63.2749754  41.8557276
  38.2154167  63.1657288  41.4382345  36.9943033  62.3326648  41.8682594
  31.6235131  61.1876308  31.5352544  31.3271274  61.9361282  32.0922028
  32.4289286  60.9280594  32.0114868  30.1073934  68.2011994  38.5749491
  30.1105649  67.9408858  39.5376337  30.4134221  69.1786518  38.6447775
  39.6345977  62.8747791  37.7974957  39.7292578  63.8040212  38.1826439
  39.2125239  62.4667719  38.6015092  39.9955089  69.1322410  37.3230171
  40.6895829  68.9869244  37.9665276  39.5082209  68.3096168  37.2581845
  35.9742148  67.8249352  32.6633528  35.1710520  68.2523293  32.3593938
  36.7062817  68.3307256  32.2728227  34.1597340  61.1538385  40.8741443
  34.2199206  60.1718981  40.6904433  34.0772599  61.1224861  41.8432443
  26.7796710  70.6022631  33.6742578  26.5386975  69.9917096  32.8979062
  26.9985284  69.8784639  34.3084560  34.7632533  63.6018652  34.2024601
  35.4327033  64.3202895  34.0444467  34.6016339  63.7532790  35.1512272
  20.7971533  62.1049045  33.2169407  20.7270451  61.2866150  32.7108616
  19.8325327  61.9587239  33.6396418  20.5789818  70.7076934  39.6638601
  20.4276148  69.7850796  39.8372579  20.2903050  71.0945069  40.5431901
  32.2038783  62.4533267  39.6041864  33.0210326  61.9191607  39.8752103
  31.6863577  62.4657009  40.3704756  51.4268602  67.8734287  43.8176038
  51.6246457  67.6180960  42.8310509  50.6262806  68.4076313  43.6487718
  50.0869904  76.2752697  40.3376135  49.2714531  76.3476328  39.7452004
  49.6393315  75.8920301  41.1196810  44.8990884  72.1589540  35.9799780
  45.4329590  72.5524192  36.6957135  44.2124815  72.7834418  35.9013411
  41.5434738  74.6253552  49.6188444  42.3895042  74.8823509  49.2009812
  41.3969478  73.7672808  49.2624506  34.1905283  69.6466605  44.1471867
  33.4595273  69.0985475  44.5435766  34.7446986  69.7168227  44.9290664
  48.1281115  80.8756278  36.5178472  48.5579408  81.8207205  36.6909221
  47.3794025  81.0203280  37.2003133  42.2968500  60.2035500  31.5110615
  41.6089627  59.5284406  31.8546503  43.0384533  59.5864269  31.4224074
  45.5118993  77.2218338  56.5798781  45.5558051  76.2863101  56.8089956
  46.3691974  77.2969174  56.0836247  43.6942215  74.7025672  36.2262507
  43.8278700  74.8810848  37.1879391  44.4872412  75.1809057  35.8886648
  43.7869625  61.3698789  25.2929161  43.2406001  61.1047426  24.5265698
  43.8551174  62.2933141  25.1344253  56.1438396  62.0127648  33.7699607
  56.6705336  62.7070063  34.0738611  56.5913854  61.8117061  32.9308441
  43.0810697  71.3318413  38.1431183  42.8673762  70.4427759  38.4853165
  42.8902726  71.2026716  37.1901774  47.7383006  60.4152391  37.2881656
  46.9340521  60.0404547  37.6691734  47.3731840  60.8908250  36.5494929
  46.0644512  70.0913096  37.9534021  46.9271312  70.4323387  37.7528759
  45.6152552  70.1453240  37.0961882  44.4301265  67.6738979  33.6983858
  44.3565100  67.8117684  32.7195782  44.2304784  68.6011505  33.9852426
  44.6569116  62.0690900  39.8378603  45.0768315  61.3690315  39.2823987
  45.3091587  62.7985657  39.6985023  48.1792564  66.2326610  44.3504228
  48.3445679  65.9953715  43.4510741  47.5059868  65.5648787  44.5890930
  44.8087894  68.4291685  39.5270496  45.2296919  69.2457217  39.0609524
  45.5594016  68.2106330  40.0972745  33.9930403  69.4598908  39.5880321
  34.2405575  69.0536100  38.7260329  33.8344332  68.6659142  40.1431611
  50.1044690  64.0658667  36.1095387  51.1145755  64.0103003  36.0282300
  49.9367774  63.4276305  36.8165772  43.5298964  62.7743147  36.5492756
  43.1433811  62.2818752  35.8182271  42.8241290  63.4136473  36.8021377
  34.7716307  77.3949790  51.5761433  35.6100824  77.5397384  52.0875719
  35.0356678  76.6303407  51.0287466  48.2231938  75.9419768  38.3640643
  47.7570897  75.2718631  37.8039029  47.9870339  76.7914252  37.9684265
  47.2857014  75.0558700  51.1208788  46.5194197  75.5110759  51.5368742
  47.0018768  74.1426383  51.2685263  57.2551248  70.7842478  44.3048475
  56.5153337  70.3035861  44.0310287  57.5634382  71.1710893  43.4415717
  49.2306394  66.5083188  29.4658616  49.0809184  66.6871085  30.3825965
  48.8491676  67.3294211  29.0781041  46.8170277  70.5451816  42.4891604
  46.4713510  70.8385677  43.3376518  46.6337958  69.5329608  42.5919717
  46.9518473  69.6322127  50.2140611  47.8027946  69.2313679  50.0940170
  46.4635187  68.9622423  50.7556611  47.5852565  68.4132330  45.7663036
  47.6418093  67.6407030  45.1661453  47.9473505  68.0482541  46.6065120
  57.3794639  75.9848443  48.1261150  56.5412446  76.3602441  47.7659670
  57.5278152  76.6981649  48.7760647  67.1484593  74.1699646  36.0113388
  67.9302046  74.6300039  35.5767876  66.6542376  74.9742208  36.3197920
  40.2639504  68.4003112  46.6659167  39.7159188  68.6876516  47.4400986
  39.7517750  68.9218346  45.9784453  56.1172349  74.5422568  41.2731615
  56.5374649  74.3831217  40.3844817  56.9349820  74.9910535  41.6582843
  48.3350225  66.9849082  48.0438324  48.7699175  66.0918835  48.0303574
  48.8124472  67.3450668  48.7909981  41.5308629  67.7858566  41.5219397
  41.4740705  68.6961369  41.9533819  41.9748081  67.3269927  42.3059786
  39.3407831  83.7515323  47.0570406  39.2030272  83.0613768  46.3479376
  39.3211103  84.5846514  46.5092036  54.7893476  66.4905340  38.7586789
  54.5768960  67.2173847  38.1420159  55.3733406  65.9357297  38.1907040
  45.1921506  63.1536625  57.1901056  45.4554629  62.9621240  58.1433245
  45.9853718  62.7367816  56.7724647  60.0423546  77.7190029  48.7355164
  60.9593736  77.9420136  49.1258108  59.7448917  77.1052215  49.4517002
  36.7179402  65.4996594  34.1623928  36.6935005  66.2817256  33.6041640
  37.5720614  65.4941797  34.5281731  37.8899045  73.5624720  44.2301605
  37.6777440  72.7020393  43.7885995  37.7710308  74.1801132  43.4600537
  67.8676130  71.1708441  38.6727646  68.5255198  71.7368508  39.0445020
  67.2458492  71.8518164  38.3030664  49.5873225  77.4323371  46.5625404
  49.5507798  76.4841112  46.5701563  49.8697866  77.6735518  47.4865745
  39.2098344  63.2442793  50.3279047  38.7962530  62.3450817  50.3059898
  38.4300123  63.8243162  50.4395528  35.4506664  72.3459872  31.5755399
  36.3372375  72.3848751  31.9306371  35.3829388  73.2598307  31.1862313
  54.3522603  70.0779577  42.7485086  54.2575153  69.2536409  42.2018361
  53.9844601  69.7381637  43.5844138  44.5280331  63.7580243  51.0208740
  43.6298266  64.0141313  50.7817646  44.8077285  63.2337332  50.3115049
  49.6040304  73.9673710  49.3200944  49.0316244  73.9800063  50.1079038
  50.4159462  74.4068037  49.6586070  49.9431550  73.1485408  54.6371660
  50.2834594  74.0675057  54.7965106  49.5503895  73.0553269  55.5318958
  42.0558067  68.9384007  39.1472074  43.0322828  68.7354847  39.1711257
  41.7606465  68.4613251  39.9402863  39.3967541  69.1012180  34.0613235
  39.0030345  69.0955513  33.1565207  38.9224431  69.7383089  34.5237747
  53.9898573  72.3168315  46.5124038  54.5881002  71.8190715  45.9244441
  53.4072964  71.6020754  46.8694568  32.6701326  75.1948350  29.3436768
  32.0089032  75.3467159  28.6507558  33.5013987  75.2877401  28.8514526
  55.8823500  63.2293401  27.4795318  55.9212863  64.2479082  27.4588688
  56.6029652  63.0231985  26.8609614  53.5467821  79.7284228  37.9798071
  53.3536470  80.3519749  37.2733591  54.4072539  79.9863726  38.2657694
  45.6530503  62.3917559  22.0245880  44.8153285  62.8188670  22.3897859
  45.6840476  62.8112851  21.1740786  46.3456165  81.2729380  38.3556874
  45.6783988  81.9377530  38.1055311  45.9044767  80.9943366  39.2133507
  62.5065946  71.3945901  42.0475934  62.5954940  70.8363973  42.8548790
  63.2247021  70.9521435  41.5334599  47.6921716  62.1375375  57.7545172
  48.3202672  62.8720054  57.8889648  47.6223020  61.7246942  58.6096780
  35.7754495  62.6287435  39.3963423  36.1945948  63.3650049  39.8470052
  35.2509905  62.2117006  40.0742903  48.0606060  71.8463376  37.8596109
  49.0534339  71.8649610  37.8531097  47.8977616  71.9811954  38.8283978
  50.7684036  85.6491762  36.1992508  50.4793759  86.3498869  36.7723855
  51.1294059  84.9654565  36.7893878  39.8640517  66.0252585  40.4126195
  40.5874229  66.5814828  40.7501785  39.0804151  66.4743945  40.6672934
  51.5466420  65.8262544  50.4123956  52.2015490  65.7322524  49.7149195
  51.1101314  64.9441468  50.4562870  34.2708713  87.2443348  30.0624555
  34.9467604  86.6328175  30.4617949  33.4386399  86.6426254  30.2878676
  50.9087867  82.8846449  44.3266037  51.4652003  82.1804026  43.9490596
  51.5884744  83.4219992  44.7459960  39.0643912  64.9137672  35.3499257
  39.7474003  65.3588299  34.7880191  39.3807539  65.2219041  36.1891670
  45.1833770  75.7862272  44.5251466  44.4991880  75.2769178  45.0922674
  45.2965655  76.4841480  45.2059247  36.3970216  68.7236705  35.4024157
  36.3791463  68.3141992  34.5074501  35.4679131  69.0260616  35.4461805
  40.2948019  72.5507689  38.0606437  41.1332808  72.0242655  37.9722748
  40.1103484  72.6870530  37.0403393  45.9823754  73.4056821  31.6954575
  45.1121788  73.3858635  32.2088842  46.3102284  74.2443084  31.9691622
  58.8905145  69.1800614  38.0351973  59.7956591  68.9566024  38.2945542
  58.4090624  68.3742722  38.3782814  39.6247540  63.4991983  53.7431550
  40.0768180  62.5694502  53.6176769  38.7270826  63.1890204  53.5142148
  63.1145283  56.4162284  36.7789452  62.5266889  55.6403809  36.6656779
  63.6602985  56.0804876  37.5375997  53.4265383  81.4983568  43.0455211
  53.8259348  81.1438911  42.1867191  54.2454481  81.6988383  43.5068816
  28.3026142  73.4490364  35.5009399  28.9072495  73.2688301  34.7225745
  27.6585249  74.0470903  35.1770128  41.5482725  81.2264756  43.2413904
  41.2117140  81.0872305  42.3738700  41.9898016  80.3956164  43.4585434
  40.9632632  66.6538134  34.0738020  40.4493218  67.4906942  34.1818572
  41.3889156  66.8753902  33.1995022  60.0324079  73.3831287  32.7931638
  60.8336412  73.5972237  32.3170417  59.4890678  72.9610116  32.1013044
  46.4352348  68.1256451  43.0645979  45.8238290  67.7925257  43.7854894
  46.7234307  67.2311672  42.7188472  50.3804180  66.3595447  45.9565845
  51.0670238  66.7474587  45.3523017  49.5913241  66.3652245  45.3955964
  44.8591334  72.4125290  46.9020994  45.2553093  71.9227537  46.1144902
  44.6279992  71.6210460  47.4352076  55.4421232  77.0660500  34.5216944
  54.6520800  77.6138549  34.5272862  55.9632837  77.2784820  33.7966510
  43.6120827  78.7258921  37.9693924  44.3007359  78.4625862  38.6043685
  44.2241883  78.8094265  37.1613746  30.8456938  74.5726093  46.7395359
  30.5701733  75.1510635  46.0013483  31.2722041  73.8420071  46.1389799
  42.2872220  75.5010758  33.7592091  42.6903155  75.5110865  34.6320497
  41.4425199  75.9373051  33.9267846  39.6694068  75.5090514  42.5676760
  38.8487144  75.5896911  41.9990675  39.5573253  76.3929121  43.0345610
  49.3027570  66.8698256  55.2855105  48.4327131  66.5151805  55.5925305
  49.5220326  66.1372125  54.6552013  34.4858598  74.5937443  40.4135987
  33.9453824  74.8910100  39.6144939  34.6153330  73.6609477  40.1501985
  52.2951690  78.9787220  51.1776397  52.5709893  79.9300310  51.0653730
  52.7378952  78.5628139  50.4468460  31.1818528  69.1135534  34.3623492
  30.6237850  69.6476080  35.0128669  31.1050434  69.7548715  33.5760981
  41.9745702  78.5155886  44.9120491  41.1716893  78.1605025  44.5243765
  42.5557917  78.4292632  44.1271427  52.1657454  85.4233276  42.1089045
  51.6624451  86.1882029  42.5308526  51.3777567  85.1862071  41.5054298
  43.2001132  60.3849704  37.6896369  44.0351059  60.0802462  37.9700938
  43.4419578  61.3478084  37.5020149  66.9988921  79.2642723  51.0459471
  67.0055343  78.8803152  50.1152973  67.5285985  80.0787778  50.8410132
  43.3779595  66.3196038  37.7356608  43.6254515  66.0921998  36.7976091
  44.0534363  67.0511123  37.9604456  52.2360839  66.7588144  41.4702939
  52.0766276  66.4809734  40.5699980  53.1841124  66.9601555  41.4841407
  49.7076940  71.2795621  48.5269129  49.5302054  72.2527720  48.5442007
  49.2848682  71.0416885  47.6526223  47.2163758  76.8791774  49.0950269
  47.0661755  76.0953475  48.4503417  47.2007250  76.2794601  49.9054041
  60.2525266  69.9705071  44.7433158  59.6557263  69.2126224  44.5266009
  59.6856517  70.7347081  44.5321576  57.3779915  64.3427030  41.1779412
  57.2722000  63.4057881  40.9242646  58.2483698  64.4734312  40.6172786
  42.1451101  62.4999995  40.1869204  42.0563481  61.8843560  39.4829774
  43.0883970  62.6458731  40.1657499  46.7355102  74.3920167  47.9546995
  45.9350646  73.9082896  47.5354703  46.9630121  73.6434737  48.5769949
  56.8566758  83.2481322  22.7080630  56.5373202  83.2388372  21.7930876
  57.5156135  84.0354056  22.5709127  50.7251501  71.5991889  37.8162266
  50.9172743  70.6633444  38.0053897  51.6625528  71.9659631  37.9607693
  43.1360198  65.7471152  34.9735605  43.7313370  66.4260749  34.5609348
  42.2573733  66.0888710  34.5903201  37.5887872  74.7036769  46.5278992
  38.1083603  75.5234841  46.5620820  37.9023299  74.3197907  45.6144115
  25.8425524  72.8436557  40.9515552  26.0707030  73.2567059  40.0705449
  24.8830159  72.7206025  40.8600635  56.4300245  80.6353395  32.5939882
  55.5832018  80.5519584  32.0838366  56.3747452  81.6121134  32.7971379
  49.1402148  68.8331588  53.1956555  49.4804754  68.5216851  52.2924234
  48.7530392  67.9663790  53.5044982  36.8103481  60.7196259  33.9916005
  37.4985637  60.2460115  33.5055908  37.3490353  61.3649976  34.4956368
  54.5679632  84.9896903  55.0851762  54.7976693  84.1505271  55.5203557
  54.3864248  84.7871816  54.2379805  50.6917635  85.9172204  50.5330153
  50.2667665  86.6353355  51.0044249  50.9517366  86.2432723  49.7010767
  29.9003222  67.6937606  24.6202540  29.2875469  66.9890594  24.9546535
  29.9846675  67.3563650  23.6837550  48.8721959  75.7032312  42.7808439
  49.3322762  75.0495766  43.3454516  47.9551530  75.5100173  43.0398539
  36.0054484  61.9453681  36.3844146  36.9485936  61.9684587  36.5640654
  35.5842978  62.2938883  37.2009883  58.6937508  64.6762941  43.6112167
  58.2475571  64.9469941  42.7825269  58.7673569  63.6811297  43.4205806
  49.0571887  74.7530135  46.7666234  49.4137548  74.5828920  47.6551930
  48.0774968  74.5830258  46.9622980  46.5260260  70.8854013  31.6737677
  46.3584893  71.8917696  31.6021776  45.9527872  70.7186844  32.4934998
  56.5642595  77.5952596  32.2381166  57.2512556  77.0051944  31.8798842
  56.7973210  78.4569288  31.8018871  29.2187784  66.5167871  45.5813202
  28.9812483  65.5252269  45.3654056  30.2227996  66.3556144  45.4968952
  51.6495787  72.0314888  43.2722260  52.4773841  72.2877897  42.8726062
  51.4498573  72.7729911  43.8862446  62.0031189  83.5046988  30.0187612
  62.2636255  83.6913434  29.1229389  62.8349288  83.0040502  30.2785723
  43.0780186  74.4370415  45.6480455  43.6420916  73.6226973  45.8035289
  42.6108269  74.2107942  44.8465453  55.8296510  81.6257872  38.7397977
  56.0055899  81.5172945  37.7835789  55.3847239  82.4505964  38.8232996
  41.7600718  74.2174852  52.1375088  41.5917487  74.3169391  51.1471741
  42.1488350  73.3166599  52.1513776  45.6687899  74.5723029  40.8472249
  46.4763096  74.3241562  40.4908866  45.0581907  73.8955390  40.5341786
  37.5940417  71.2432003  42.5724869  37.4818044  71.3316602  41.6275245
  37.2847226  70.3230393  42.7529565  39.3498531  70.3022658  44.9262519
  38.7068939  70.5571923  44.2259510  40.1296412  70.1509447  44.3203103
  18.6190985  68.8257257  33.9912137  19.0450053  69.0594992  33.1678462
  17.8383179  69.4625944  33.9467657  34.8897526  61.2420470  53.9592531
  34.4899088  61.9895595  53.4641436  34.2235239  60.5229168  53.7352100
  55.9301272  86.2200611  58.6289916  55.2268236  85.4939549  58.6798236
  55.6439492  86.7179433  57.8773411  57.0768291  65.7072309  46.2146477
  57.6254934  66.1814533  45.5980526  56.2632549  66.2914555  46.1485490
  54.0993599  68.3855013  36.8345523  54.0138845  69.4097576  36.8708725
  54.9780603  68.3414518  36.3800005  42.2761175  67.0664233  51.0889748
  41.5949627  67.7600327  51.2402128  42.1928446  66.5978525  51.9751004
  43.1674928  61.1425720  48.1490916  43.9982327  61.4879461  48.5815826
  42.9078522  61.9645395  47.6251723  49.3654774  69.5406526  43.2633966
  48.3920830  69.6140037  43.3644708  49.5441090  70.1656403  42.5279388
  54.3287798  74.5210231  52.3166042  54.7050925  73.7605994  52.7754089
  53.3801247  74.5057895  52.5753238  48.2745551  68.9038740  28.6123129
  48.2223860  69.0156944  27.6494302  48.7600475  69.6660730  28.8983430
  41.2603905  70.2807993  42.5768491  41.4292559  71.0441982  41.9756006
  42.1048039  70.3307610  43.1204583  44.6830277  72.2414113  39.9488245
  44.0575426  72.0795099  39.2180100  45.4363270  71.7534070  39.7348184
  47.1653235  68.3275988  31.2747974  47.1166779  68.3208121  30.3040080
  46.8142953  69.2112449  31.5040988  46.9390830  70.0008377  54.5743597
  47.5889259  69.5406351  54.0337923  46.1557182  69.8876251  54.0137397
  53.6909934  63.9263256  31.0415927  53.5443870  63.6957446  31.9848297
  52.8670484  63.5231520  30.6462075  47.6015286  78.0739360  32.2957530
  48.4004209  78.1120141  31.7458369  47.7301222  78.7237582  32.9723881
  46.7938006  67.5993089  14.6716689  46.6484875  68.4483260  15.1246762
  45.9146352  67.2135646  14.8283737  57.8677814  68.2214451  41.4202566
  57.8934638  67.9171162  40.4352875  57.2303301  68.9434101  41.2278212
  44.6749296  65.7701396  28.0766771  44.7493997  66.6619600  27.6525233
  43.9475648  65.3881420  27.4796830  46.5461428  62.6955035  42.2077168
  45.8342607  62.1415991  41.8706072  46.7806545  62.0950956  42.9959884
  46.1239010  63.3594929  36.0272764  46.0351671  63.2512951  35.0615495
  45.1940823  63.5538779  36.3121980  59.4358584  78.6257412  43.6503100
  60.3988980  78.6738221  43.3994565  59.5453488  78.2629060  44.5467315
  58.1245507  64.6432845  48.4409843  57.7941813  63.7536248  48.6267716
  57.7081098  64.8814636  47.6121023  43.4915768  69.2326906  62.3594538
  42.9100348  68.4946229  62.7310347  43.2056554  69.1795983  61.4353568
  47.3166865  66.3213035  33.0637844  47.1097094  66.8458682  32.2392949
  46.6185482  65.6409301  32.9992203  27.4608067  71.1995761  56.7781263
  27.3748754  71.2551862  57.7213178  28.1979209  71.8349970  56.5864716
  46.5150453  57.5885756  27.6658354  46.3456253  56.8408476  27.0193703
  46.2571955  58.3611097  27.0472255  53.1064758  81.6102494  36.1024216
  52.9595061  81.4292751  35.1177987  53.7641448  82.3415593  36.0326285
  32.5068651  65.0083251  39.2485181  32.1779455  64.0552181  39.3311658
  32.4978715  65.2599871  40.1958402  54.0213781  58.4674824  36.9073068
  53.4287629  57.8548857  37.3116044  54.7678500  57.9376502  36.6277689
  37.8659025  68.9647518  48.6258452  37.9503054  68.2938461  49.3520791
  37.9189646  69.7927488  49.1460155  29.7733606  73.5406345  43.4057219
  28.9269079  73.6460170  43.9556796  30.0822559  74.4819282  43.5608949
  41.3996469  65.3974713  53.2050994  40.6128798  64.8114367  53.2193617
  41.1166539  65.9937355  53.9876577  32.3880025  65.2729820  64.0486735
  31.9442803  64.7260833  63.4188283  32.5804353  64.6040606  64.7774421
  52.0214887  75.1446276  38.9450702  51.7650866  75.2176791  38.0224159
  51.3171132  75.5847643  39.3879257  50.2423557  70.9952954  41.0309192
  50.9145674  71.4681393  41.6381517  50.8368428  70.4469710  40.4494143
  48.9279583  65.6127852  39.8792577  48.3324663  65.3897362  40.6282527
  48.3470562  65.5005655  39.1428840  31.2301577  78.6330415  44.1285703
  31.2163643  79.2351187  43.4061429  31.0202381  79.1555346  44.8956823
  56.8299499  76.7025869  23.5137324  55.8256736  76.7165272  23.6072945
  56.9474951  76.9527320  22.6035070  45.5457115  59.7682050  38.5088538
  45.8251295  58.9460768  38.0744483  45.5000648  59.4830586  39.4803632
  52.6628253  64.0776345  35.7372233  53.1671154  63.2914407  35.3886100
  53.3364717  64.7557757  35.6898952  55.9853826  66.1286373  42.5204698
  56.3992268  65.3925624  41.9343709  56.3723290  66.8729191  41.9860109
  58.0823554  72.8875829  39.5892972  59.0563110  73.0632452  39.7107856
  57.9950285  73.2299104  38.6304481  51.0296563  72.1412307  25.6172450
  51.6333092  72.9011990  25.8908328  50.5631662  72.5863741  24.9037068
  49.7003630  68.7330020  36.0433662  49.3619052  67.9496653  35.5686766
  49.8032776  68.3627145  36.9389944  55.9850822  65.6530305  61.2752072
  55.3980929  66.4577617  61.3651167  55.3687539  64.9381391  61.5340932
  43.9913673  65.3382411  22.3170609  44.1363500  65.2635868  23.3254584
  44.8825054  65.5658034  22.0393490  43.2282505  75.8135863  47.8254150
  43.7721646  76.5027470  47.4098885  42.9191510  75.3363939  47.0178816
  39.5833032  75.2430793  52.9885164  39.7691580  76.2144687  52.9784372
  40.5053126  74.9280846  52.9144573  68.4146903  69.9345331  35.1813241
  69.2960793  69.9657477  34.7253049  68.6672810  69.4652308  35.9814565
  57.9993565  96.5987780  37.6287429  58.7697814  97.0865088  37.8488508
  57.2721520  97.2660286  37.7670158  50.4946234  81.0163342  25.9132037
  51.3511248  80.5800969  26.1858628  49.8823899  80.2752030  25.9716273
  61.3091377  86.4193237  38.9932848  61.9094634  86.4241475  39.8189243
  61.0757250  87.3287533  39.0524394  60.5676505  84.7676638  42.9079236
  60.2945881  85.2124413  42.1039670  60.0034324  85.1790615  43.5783725
  52.5894773  86.9903052  34.5343251  52.1124943  86.4422454  35.1997159
  53.1210770  87.5325289  35.1499743  52.2259905  83.3839442  19.6163386
  51.5762236  84.1465559  19.4807577  51.8028396  83.0072992  20.4023310
  57.4192302  90.0269916  26.0496045  57.9407878  90.4081783  25.3035893
  58.1257961  89.4388078  26.4339888  43.8829314  96.7662367  21.0493208
  44.6894675  97.1394249  21.3887241  44.0384791  95.8324504  20.9993176
  54.5636043  84.0033080  35.8180601  55.1172873  84.7641658  35.6332944
  54.5205102  84.0241946  36.7849067  54.5277948  81.1343960  45.9576283
  54.1236818  80.2705049  45.7259267  55.4429940  80.9297671  45.7822259
  67.5538612  77.2135697  28.0152718  67.7287830  78.0731713  28.4573440
  67.8926168  77.4510385  27.1087106  57.4170068  90.9929070  30.4871300
  57.0853344  90.0592225  30.4295522  56.5488903  91.4700764  30.7028160
  57.7358458  82.1303500  49.4715993  57.0169875  81.4784399  49.5090483
  58.3710337  81.7082451  48.8782508  41.2774690  82.7758027  63.3175568
  40.8794996  82.2335615  64.0003972  42.0773646  82.2940948  63.0994974
  56.6959590  83.1247975  34.0510342  56.0627584  83.4283125  34.7376909
  57.5345270  83.2055283  34.5288928  44.5339289  85.5212530  51.5214232
  44.1837092  84.8317091  52.1505630  45.1227452  84.9181146  51.0193616
  65.0988996  86.0106542  39.2862754  65.8596210  86.5967160  39.1917101
  64.3661769  86.7082377  39.2342271  58.2011793  75.7986346  31.2314904
  57.6816051  75.2342658  31.8875570  58.5657227  75.0589560  30.6844074
  56.9154493  84.5796311  50.0554700  56.7499400  84.2385103  51.0278040
  57.2197838  83.6352130  49.7522306  56.1109164  86.9855308  47.0674977
  56.3147316  87.1481485  46.1469999  56.9162234  86.5008933  47.3924624
  64.7443300  73.7194749  57.1698440  65.5464188  73.9068907  56.6372307
  64.3336606  74.5930968  57.2419137  54.6694090  85.0161313  41.3701624
  55.0146441  85.9242783  41.2072577  53.7536008  85.2292635  41.5393025
  56.5649445  87.9954181  19.8948436  55.7540023  87.4559116  19.8024159
  57.2081428  87.2834090  19.6423237  54.5316769  85.6512134  49.0983820
  54.9706479  86.1391271  48.3799656  55.2221554  84.9964506  49.3545409
  49.2379286  85.2808416  41.5969200  48.4124679  85.7142881  41.9577129
  49.0487198  84.3770079  41.8898652  58.9552315  82.0815158  52.9721825
  58.5788539  81.2754309  53.3892893  59.8138291  82.1058922  53.5192651
  46.7001128  90.4776334  40.1835400  46.1479431  89.8061127  39.6697191
  47.3460343  89.9654977  40.6038163  47.3917034  88.0858145  34.7758545
  47.4471661  88.1247477  35.7336371  48.3106370  88.1977998  34.4869478
  54.8306267  87.4906272  40.4431594  54.5927055  88.2794120  40.9740688
  55.7865432  87.5440185  40.5555405  55.9468123  83.7320567  43.6815138
  55.6489422  84.3291980  42.9690313  56.1736414  82.9247304  43.0933560
  60.5368098  86.3353208  48.0951368  60.0525228  86.9657997  48.7299473
  60.6572757  86.9877458  47.3782863  43.9589390  85.2415386  58.3103501
  44.3166468  86.0291991  57.7847746  44.1937537  85.5192793  59.2198966
  62.8350443  70.0280194  44.4135596  63.0875818  69.0551464  44.5534726
  61.8347666  69.8586528  44.4018242  48.8485970  86.9519465  39.2044541
  49.7422970  86.9482832  39.4346404  48.4979976  86.0813334  39.4325725
  50.1727066  88.2574680  34.2944685  51.0998789  88.0034475  34.1282363
  50.3168426  89.1700723  34.6191868  52.0594956  84.2992452  32.0297600
  51.4416208  83.9590778  32.6869117  51.5580178  84.1157429  31.2168631
  51.7413005  83.4248684  37.5346607  52.0700788  82.6588584  37.0193991
  52.0667470  83.1461618  38.4844708  61.5794198  75.7477888  22.2470038
  62.1859938  76.4805216  22.2111855  60.8412308  76.0168991  21.7009571
  61.0985155  83.3407355  26.0047113  61.4395341  84.1286046  26.5266847
  60.1920424  83.6741694  25.8168060  46.9447520  81.9313602  34.1888313
  47.5255639  81.4648082  34.8414505  46.3234172  81.1883775  34.0324835
  51.6760754  78.6021075  40.2540755  51.1856449  77.7675616  40.1370363
  51.9784553  78.7764023  39.3281144  54.2693514  76.0838847  31.4377822
  54.6026316  76.4566707  30.5613807  54.9495828  76.6487526  31.9963418
  65.3220473  75.9400290  28.7857803  66.1611495  76.2518389  28.3192539
  64.8162032  76.8124091  28.7811151  61.1202431  82.0739967  44.4395682
  61.3180541  81.6473939  43.5909605  60.1237910  82.0064503  44.4405666
  60.0023861  89.1998039  30.7064599  59.2913921  89.6316983  30.1875037
  60.6203615  89.0007772  29.9565158  54.3215951  87.4163836  26.6608849
  53.5418098  87.9910222  26.8029958  55.0154205  87.8756587  27.0907605
  58.0114074  78.9140202  35.0041280  57.2930019  78.5716510  34.3877408
  58.7923679  78.3645583  34.6717452  59.4436225  64.4599502  31.4752048
  60.2565727  64.9070728  31.1429975  58.9185726  64.5033538  30.6098124
  50.7942422  80.6320977  29.5257126  50.6423504  81.6155808  29.6636061
  49.9125363  80.4797176  29.0589820  59.0172440  83.5276080  30.3419328
  59.8842213  83.8409924  30.0638281  59.3080712  82.7090257  30.8461297
  63.4077435  83.7242539  42.3207826  64.3988911  83.9873320  42.0656147
  63.5007053  82.7888236  41.9846154  66.5296569  84.2722951  44.6597929
  65.8486755  83.6133582  44.5383436  65.8674674  85.0310187  44.5343694
  50.8956272  77.4282913  18.3174308  51.6102597  76.9755532  17.8497291
  50.9218922  77.0315916  19.2694761  51.3715884  82.6098638  22.4621677
  52.2401544  82.6017220  22.8483361  50.8135909  82.9851654  23.1463374
  58.5938490  65.7016119  35.6338753  59.4918897  65.3815476  35.7515284
  58.2746307  65.1833778  34.8621502  54.4281716  75.1205376  43.2562009
  53.7781053  75.7702676  42.9194663  54.9653599  74.8751913  42.4717371
  52.8287819  79.5032001  58.3198611  53.3248047  78.7194505  58.0241211
  53.6292174  79.9950305  58.7250463  57.0845028  86.8254386  42.0819847
  57.9921209  86.9901141  41.7190623  57.2951999  86.1979984  42.8121064
  51.9657013  95.0809450  49.1798666  52.3646844  95.2850461  50.0647108
  51.6415353  94.2094728  49.3286317  45.6524224  83.2652966  49.8530202
  46.2645988  83.0707079  49.0895217  45.5972960  82.3046577  50.1758010
  52.0422229  87.2769385  38.8906814  52.8607854  87.0776056  39.3500963
  52.3396709  88.1516555  38.4701384  56.9285023  70.3963018  31.7865967
  56.1704677  69.8847040  31.5102092  56.8641260  70.2650198  32.7799778
  46.0696147  80.1214398  46.0975633  45.5994518  80.9412437  45.8884979
  46.7660499  80.1164068  45.4094716  63.2494865  95.0965783  47.9830408
  62.6393013  95.5705267  48.5852106  63.2516917  95.7229256  47.2580366
  49.9002436  79.9789568  41.9964014  50.1828173  79.3130872  42.6202788
  50.3966286  79.8903405  41.2128746  73.1734166  73.7703524  29.4934653
  72.6315855  72.9678551  29.2526261  73.8951024  73.6971286  28.8372789
  58.1657036  85.3048807  47.3275881  59.1164143  85.4653801  47.5856302
  58.1196867  84.3857046  47.5969552  64.6036124  86.0287079  44.5931262
  64.3544522  86.9150386  44.1832402  64.5627055  86.2870779  45.5314604
  44.5789538  70.0369173  48.1440673  44.2797447  69.2527293  47.6668786
  45.3645171  69.5869348  48.6149473  47.0219717  80.8367736  50.9121776
  48.0160353  80.9732376  50.9642048  47.0157912  80.3168121  50.0634051
  41.2381957  73.5293176  43.7549228  40.5094674  74.1050157  43.3719473
  41.6833296  73.2893984  42.9257128  60.0671547  80.6221340  39.7499208
  60.5560175  81.3372486  40.3012171  59.8787944  81.1733509  38.9732530
  48.5568082  83.7288003  32.8594208  48.2790899  83.4596433  31.9028502
  47.9781650  83.0978649  33.3196387  53.1202542  81.5108312  50.0216235
  52.5563685  81.2392290  49.2860947  53.2048190  82.4832855  49.8717623
  52.7867858  72.6049820  38.9171168  52.4202487  73.5087837  38.9635780
  53.0872356  72.4639622  39.8316285  56.5484439  88.3886116  30.9240766
  56.2395042  88.1195089  31.8108216  56.0398518  87.7005371  30.3755021
  57.5588151  72.9494528  57.7094062  56.7934111  72.5781470  58.1604388
  58.1594200  73.1149949  58.4862928  58.2825423  72.2246750  26.5083858
  57.3843630  72.6222149  26.4113669  58.0134809  71.3124313  26.5741428
  58.9159543  74.6207430  34.8248533  59.1809885  73.9416440  34.1408605
  59.0865057  75.4023735  34.3378269  57.9956835  76.2562640  42.4834229
  58.8407029  76.3980119  41.9841277  57.8731828  77.2040280  42.7434787
  54.5577408  90.4662356  53.6165467  53.7886351  89.9005782  53.9208959
  54.5346631  91.1362744  54.3454635  52.1765696  82.9475726  40.1492451
  52.6645826  82.1094120  40.0135842  52.2558402  83.0106340  41.1029309
  64.1783601  81.6655344  40.9130849  65.0787709  81.9883959  40.9447891
  64.0495399  81.4582085  39.9632668  47.9726640  90.1351219  45.9396882
  48.5865041  90.4728996  46.5963168  47.5703742  90.9831698  45.6018500
  54.0770529  75.0060213  36.0952413  53.1776489  75.3453584  35.8411251
  54.6607632  75.5827862  35.5575059  55.7596761  78.3262966  40.8585134
  56.6560447  78.7998907  40.8399331  55.8594850  77.8265331  40.0593593
  52.8240150  85.8895846  46.1773858  53.2707103  85.0110244  46.0548640
  53.5105689  86.4276321  45.6812128  43.3282345  77.1947097  50.1332134
  43.5081356  77.9435132  49.5437808  43.1493796  76.4926682  49.5611493
  60.7998404  81.7645714  50.6196803  60.0218433  82.1173241  50.9766991
  61.1918446  81.2612762  51.4400914  48.2455704  83.3484894  43.7540661
  47.8856862  84.1511430  44.1113831  49.1923931  83.3510167  44.0761755
  50.7950299  83.2677058  34.3472947  49.8507959  83.2813529  33.9900106
  50.7802898  84.0537739  34.9244669  62.2119312  80.5733882  52.5639865
  61.8925357  79.6296375  52.6773434  63.1167308  80.4637234  52.2830852
  42.3110787  81.9209833  36.4198705  41.4738089  81.7901581  36.9370761
  42.0654814  81.4000719  35.6091256  58.5256105  68.3003687  25.7221986
  59.3629829  68.6479648  26.0095659  57.9014657  69.0055180  26.0955815
  61.0377695  75.8970768  36.4142974  60.0872641  76.0866194  36.3168518
  61.4102945  76.3599421  35.6321030  46.7790729  86.6881272  42.4104464
  46.0140260  86.8438896  41.8170660  46.3162185  86.3470804  43.1781059
  41.1047449  87.9962599  35.3501067  40.8316523  87.4392726  36.0859073
  41.9475082  87.5617372  35.0885692  64.3631501  79.8589948  43.1435225
  65.0161881  79.0536048  43.2534247  64.8072232  80.2032496  42.3214951
  48.9717895  66.3967604  35.1016022  49.1473239  65.4898060  35.4022011
  48.5542435  66.2317780  34.2141853  55.3844345  82.9779335  20.0307355
  54.4317867  83.0080120  20.3164671  55.2317871  82.9759135  19.0956151
  49.0347446  83.1839924  37.2575763  48.6677016  83.8004037  37.9536577
  50.0251796  83.3140100  37.4595965  47.0810071  85.5811191  45.2285521
  46.3792639  86.2236676  45.4731107  47.8410389  86.0232846  45.6141115
  65.6461914  69.9414878  26.9765666  66.4151692  69.6080005  27.5197191
  65.4491704  70.7529056  27.4823193  50.6679966  88.0673191  30.6896380
  50.2905516  87.2790318  31.1593693  49.8416032  88.6394226  30.7790376
  47.2958986  63.6864667  55.0512672  46.4875134  63.9500885  54.5384180
  47.2125417  64.1715443  55.8620763  54.1184858  66.6787004  26.1354645
  54.1692693  67.0915517  25.2700617  54.8850246  66.0259038  26.0703198
  56.5331522  67.5086097  35.7333403  56.0943733  66.7030677  35.4925724
  57.5037606  67.2248852  35.6966067  61.4021379  86.7868483  45.0712286
  60.7228696  87.3144129  44.5317702  62.1715547  87.3704344  44.9131897
  51.7412786  93.5266868  53.8561029  51.0620512  92.9524351  53.4544119
  51.1536042  93.8901791  54.5699955  59.4658716  88.5505958  43.9513459
  58.5728830  88.9626268  44.0067913  59.5843772  88.4566755  42.9426656
  58.2452971  83.1691255  40.0196493  57.3687517  83.0157505  40.3862472
  58.2993958  82.6001654  39.2367702  51.1196761  94.9032063  44.2387045
  50.2066956  94.7690166  44.0993325  51.2043362  94.5557080  45.1936563
  58.3351898  82.5345903  44.6994095  57.5401353  83.0781044  44.7053143
  57.9758811  81.6674960  44.9409619  51.2334071  87.2799453  44.2294991
  51.6314715  88.1172359  44.5632164  51.8445200  86.6536855  44.6810357
  45.6939939  90.8094758  58.9619602  45.1967499  90.5477558  58.1462651
  46.4723192  91.1694573  58.5967039  54.5104292  77.6948227  25.1138361
  54.3161167  76.7743530  25.4103374  53.6012411  78.0388649  25.3515482
  47.5548641  82.4105349  48.2612606  48.3248115  82.6705242  48.7677605
  48.0138697  81.6510679  47.7999613  59.6524293  83.0151719  47.3099245
  59.5625226  82.6513109  46.4486223  59.5862938  82.1496927  47.8107994
  13.7608345   2.3426460  12.7531939  13.4326182   3.2112542  12.9050545
  13.8684091   1.9911997  13.6751553  23.4314215   9.9799479  31.5916269
  22.4474359   9.8365277  31.6551813  23.7707641   9.2061374  32.0399664
  10.0427302  10.7254398  26.8132738  10.4470674  10.1496091  26.1358474
  10.6762401  10.5260759  27.6037793  23.8082962   7.4955082  44.1370951
  23.8854069   8.3747086  44.6216579  23.1856445   7.7271587  43.4471349
  16.2171122   5.1729826  30.0564730  15.7786572   4.5769592  29.4371789
  17.1421209   4.7872898  30.0158741  18.9711371   5.3027629  17.3141851
  18.2285451   4.7835616  17.5036690  18.8199621   6.1729689  17.7100206
  13.4726884   2.7444668  29.3119144  13.3772390   3.4971792  29.9518516
  13.2699888   3.2210257  28.4811272  16.8428102  -1.0798788  28.6139071
  16.7480756  -1.0622414  27.6695330  17.5212214  -1.7251720  28.7785039
  17.0367472   2.7991547  18.1589355  17.4221544   2.3253400  17.4260330
  16.4513534   3.4536146  17.6688539  17.4910472  20.4489916  15.2780537
  17.6360806  19.7846741  15.9543860  17.2298184  21.2044382  15.8920959
  20.4874656   9.5875844  20.2843569  21.4530556   9.2963631  20.1452670
  20.2769882  10.1297703  19.5282048  16.5507058   1.8884141  30.6073693
  16.7313172   2.1405937  29.6905207  16.0113214   1.1020109  30.5297475
  10.7121500   3.4703648  26.5079768  10.9349963   3.4989609  25.5618940
  10.0129689   4.1289990  26.4995401  14.5041174   1.5171701  25.8357883
  14.2841994   2.1503189  25.1869934  14.8166866   0.7731252  25.2396066
   6.8825333  10.2911081  22.0497616   7.1110676   9.5779338  22.6220467
   6.4308772  10.9058435  22.6575055   5.1427326  -0.7208289  39.5802124
   4.2495703  -0.8154113  39.2611816   5.5407411  -0.1136606  38.9402749
  18.2086206   2.0374889  15.9681944  18.9867906   1.5015765  16.1407403
  18.4006967   2.3623734  15.0648938   8.1076846   8.3678975  27.6805996
   8.6642908   8.9910110  27.1630499   7.7389208   9.0126664  28.3117154
  15.9606031  12.5289245  29.8487505  16.0081248  13.4431500  30.1384718
  16.7009161  12.5082836  29.1803673  21.1235728   3.5468912  19.2096461
  21.6633371   3.1839627  19.9361169  20.1925879   3.2484361  19.5418166
  24.3835605   4.6630570  30.6948300  24.5300644   3.9040805  30.0799254
  23.6470084   4.1795950  31.2431631   8.3503468   5.8762792  33.4711715
   8.5228094   6.8306831  33.5417724   7.7192302   5.9128338  32.6948787
  15.3115879   1.0762025  21.8596730  14.5637157   0.5674810  21.4080657
  14.7354798   1.6412412  22.3832585  15.4544499  10.7415005  31.9575289
  16.1877135  10.8944942  32.5914746  15.5786056  11.5268367  31.3602708
  17.0132331  15.5329850  35.7468262  17.1338181  15.5916618  36.6898490
  17.2899995  16.4209699  35.4246126  16.9947219  -2.3652318  26.1951013
  17.5430176  -3.2234175  26.1840623  17.4650769  -1.9274399  25.4774577
  40.1175194   5.7795899  42.1561632  39.8096199   5.9282515  41.2614278
  40.4064144   6.6658193  42.4633782  14.3154055  13.5028150  23.4783796
  14.3993216  12.9686768  24.3247789  15.2536339  13.4716146  23.2223806
  13.2730938   2.0404836  23.3934918  12.4181961   2.3043532  23.0126704
  12.9870992   1.1186812  23.6967247   8.9570307  19.6797038  26.5700696
   8.8071091  20.6118101  26.8922831   9.7007608  19.8337822  25.9547034
  18.0470516   8.2655998  38.4217928  18.3921915   8.5430034  37.5117041
  17.4757563   7.5326137  38.1318577  18.3919566   9.1245119  31.4976231
  18.1219457   8.2931555  31.9332159  18.0609270   9.7939067  32.0603443
  15.7721295  16.4049252  18.3310264  16.1002036  15.5887354  17.8336412
  15.9608396  16.1096744  19.2349318  13.7532326   7.4182145  38.2535951
  13.6180723   7.8167325  37.3439975  12.9157848   6.9165152  38.3725176
  40.2312290  14.1133158  13.2240849  40.2313514  14.4271939  12.2663346
  39.7447687  13.2653279  13.0868307   3.1596993  17.1103671  23.2128823
   4.0795968  16.9057770  23.5304562   2.9235599  16.2555576  22.7885255
  24.6241576  11.3612322  21.6531481  24.3494708  10.6144503  22.3095140
  25.4928146  11.6199960  22.1368013  19.4281790 -10.4156949  24.5848152
  19.6761022 -11.2488974  25.0116394  18.9855511  -9.9735219  25.3550600
   5.4452812  14.3372481  15.2761549   5.2697222  15.0492210  15.9429239
   6.3718775  14.5658488  15.0511414  19.3320450   9.5291314  26.1651546
  18.9016282   8.8335250  25.6182323  19.0499489   9.3311994  27.0368297
  10.0423780  18.9957075  29.0791616   9.1841855  19.4125187  29.4389188
   9.8744886  19.1449236  28.1471560  28.0948356   9.7186296  24.8339799
  27.6265151   9.2678294  25.5815820  28.6770484  10.3146577  25.2499916
  22.5777291   3.4041802  32.0023211  22.6365003   2.9464321  32.8365702
  22.6317793   2.6802533  31.3384395  18.7766179  14.8374256  15.4961249
  19.3935315  15.5846270  15.6931073  18.7550310  14.9816149  14.5178354
  15.6420315   5.1864269  22.2071081  15.5353670   5.8365688  21.4832719
  15.1664546   4.4376738  21.7868752  24.7562285   4.2875001  17.7942678
  24.6722793   4.4675812  18.7613697  24.5676539   3.2996381  17.9118559
  32.1600182  11.7690259  21.7035392  31.2861915  12.1724377  21.7344647
  32.0268282  10.8063996  21.7723589  22.6516141   9.8965900   9.1966738
  23.4347857   9.6472082   9.7310884  22.4229413  10.7363208   9.6297476
  23.4995272  -0.0116345  22.4538567  23.0635853   0.5816350  21.7648630
  24.3059807  -0.2502110  21.9955637   9.1398444  11.8213236  21.9394617
   9.3345358  11.0969039  22.5580551   8.2952906  11.5921017  21.5903840
  26.5222645   9.5284961  31.1157858  26.3705069   9.3705067  32.0980524
  26.9342643   8.6630990  30.9438700  19.5462613  12.3293254  35.0763655
  20.0065260  11.4445518  35.0814396  20.0383197  12.7509294  34.3692929
  13.8787487   9.2999899  30.0787788  14.6418608   8.7746664  29.6901434
  14.3742249   9.8226676  30.7360162  14.0198032  11.6583989  36.3355380
  13.7364341  11.3509066  35.4381206  15.0037465  11.7488034  36.1631465
  17.6721853   8.2661962  24.5064502  16.7568127   8.4565556  24.8122642
  17.7855423   8.8211528  23.7291252  24.2659547   1.2429778  33.4148568
  24.4344304   1.4459710  34.3803159  23.5480970   0.6281063  33.4678812
  -7.0359435   3.3664488  40.8514049  -7.2943043   4.2261242  41.1997091
  -6.2121921   3.1755015  41.2736285  20.3735242   9.1143545  42.7235837
  19.8020355   9.2397036  41.9380459  21.2411749   9.2091583  42.2749458
   6.0389462   8.9445182  35.2365451   5.2777727   8.2859184  35.1677240
   5.6498896   9.6179484  35.7933493  25.3945240  12.3325796  37.4058745
  24.7783768  12.2827315  38.1785031  24.7491246  12.8438208  36.8157969
   1.6449227  17.5325120  33.4229024   2.3837821  17.3188000  32.8337578
   2.1478516  17.9268729  34.2047177  10.3454096   7.0073411  20.2742116
  10.7862182   7.7744037  20.7330176  10.3129412   7.4206729  19.3641730
  22.1547480   7.3131217  36.7934121  22.7274989   6.5495857  36.9412858
  22.8552536   7.9971171  36.5874853  14.8351617   8.2104327  25.2580680
  14.7687815   9.0454624  25.7698745  14.9846525   7.5219282  25.8984919
  11.5861293  15.4701651  27.3581123  11.6419579  16.1453741  26.6589660
  11.2304276  14.6894856  26.8320711  22.4745858   1.9327606  24.3509469
  21.7525093   1.6711677  24.9834715  22.5439807   1.0943553  23.8419304
  17.7904486   1.9430051  25.4217754  17.1741628   1.3695402  24.9222299
  18.5380918   1.2963414  25.4990934  22.3587199   2.1020976  12.0846448
  21.6888342   1.5104454  11.6867649  23.1797283   1.7908143  11.6694598
  15.4273650   6.1499330  27.0380548  14.7127800   5.4940546  27.1248897
  16.0764569   5.6028415  26.5154053  24.5784337  18.7665994  34.3935701
  25.1389802  18.3142365  33.7222309  24.4977788  19.6466905  34.0099113
   4.6886417  10.7413952  37.0109916   4.3263595  11.5914346  37.0549263
   4.0593644  10.1175065  37.4703407   4.0064822   7.2567920  35.9640328
   4.2992464   7.2217603  36.8699091   3.2614514   7.9128417  36.0705423
   7.8256166  12.5247506  29.0826748   8.4900841  13.2082173  29.2915792
   7.5493066  12.7849696  28.1771438  19.9521746  10.4853636  17.3246555
  20.9408235  10.5828778  17.1700649  19.7850017  11.2842277  17.8675210
  17.0356502  13.5107250  23.6689229  17.2025751  12.9729197  24.4948415
  17.2579535  14.3812642  24.0611458   8.4154785   9.6986758  41.4308690
   8.4388216  10.2570591  42.1705732   8.7621075   8.8434439  41.6980611
  23.4197946  -0.5913859  27.0987581  22.5893860  -0.2362293  26.7832951
  23.4723425  -1.4137328  26.5875541  16.8289693   7.6528630  15.9689868
  16.9801323   8.0694464  16.8244336  17.4970284   8.1476775  15.4062941
  10.7628571   7.8536357  35.2904843  10.3771144   7.3667108  36.0245542
   9.9978447   8.0258292  34.7476949   7.2153687  11.9588173  35.0607292
   6.2918474  11.8393374  35.3042525   7.1038413  12.5925705  34.3218051
  22.2279604   4.3437101  27.5975798  21.3933288   3.8548266  27.7742013
  21.9891467   5.2069628  27.8067937  21.0930120  12.6564328  22.0156045
  21.4879853  11.8392115  22.2979959  20.8615678  13.0040832  22.9416577
  21.8004554  10.2089979  25.0795332  20.9629131   9.7711648  25.3626387
  22.1002588  10.6681168  25.8892521  25.8032086   5.5932996  15.3072399
  26.6690838   5.9898632  15.5576898  25.5571813   5.1440722  16.1352642
   7.8661578  13.8768709  24.2706738   6.9346881  13.9391195  24.2366411
   8.1108580  13.7343661  23.3755992   5.5862819  11.7548798  24.0890763
   5.6118893  11.7298666  25.0683587   5.1330244  12.6505003  24.0214560
   8.2808440  22.0625966  27.9891523   7.6226786  22.7321811  28.1387256
   8.9712981  22.4504235  27.4365884  14.5152166  -5.7064567  27.2221847
  15.2428419  -6.0520888  27.7456048  14.8065239  -5.9124322  26.2983208
  17.0270373   9.0505848  45.1560808  16.6767391   8.2931805  45.6427442
  17.9652097   9.0780821  45.4670443  25.7073735  21.4656997  31.4162236
  24.8746609  21.0005302  31.7564490  26.3680522  20.9060545  31.8330063
  11.2217810   6.5451632  25.0291054  11.9068377   5.8946769  24.7705017
  10.4252628   6.2767452  24.5267773  16.8173056  -0.3387395  19.7588281
  16.3113180   0.2527159  20.2830173  17.6105441  -0.4847878  20.3225199
  10.3304651  16.4955118  36.0311619  10.4491366  15.7214143  35.4500262
   9.5011950  16.2800434  36.4852982  20.3672751  14.6056156  36.2661947
  19.8678149  15.1789600  35.6397558  19.9798961  13.7279953  36.1266537
  14.9954623  19.7289034  30.7258966  15.0130817  19.8969381  31.6819687
  14.0841215  19.6707394  30.4579304  28.8998468   8.2954438  19.8117431
  29.0854801   9.1830284  19.4828991  27.9401798   8.3540289  19.9954261
  13.1668329   0.8990321  33.9935170  13.3275917   0.0297360  33.5879706
  13.4839458   1.4781139  33.2537080  22.2379774  12.3450883  26.9492459
  22.1024406  12.2490959  27.9820244  22.5078964  13.2969925  26.9889409
  16.3934113   8.6046739   9.8388581  15.7198599   9.0977014  10.3245930
  16.4721700   7.8497077  10.4636048  26.7211207   1.2108228  32.4637623
  26.8531486   0.2265627  32.4394729  25.8604402   1.1665456  32.9060367
  11.2741910  -0.5914476  37.0351339  10.7579161  -0.0353631  36.4514274
  12.1018604  -0.0534343  37.0632271  25.3979882   5.6290382  42.8222007
  25.3159260   4.8839786  43.4483970  24.9014124   6.3166266  43.3342252
  32.5012869  14.5925578  35.1430597  31.7391220  14.4006213  35.7494506
  32.7517400  13.6154471  35.0101849  12.2112798   5.2933141  37.4416127
  12.1557111   4.5177458  38.0862430  11.3206263   5.6053972  37.6201690
   4.7551216   5.0000692  37.7225050   4.0190471   4.7760976  37.1717898
   5.4664878   4.9870329  37.0342572  14.5297997   2.7026874  32.0805659
  15.4862861   2.4947513  32.0532883  14.3135329   2.5971005  31.1345056
  18.8891047   6.5917719  42.5901465  19.2524061   7.0737394  43.3285756
  18.1154527   7.1584912  42.3810216  22.4902021 -10.2846945  32.0650879
  22.3255349  -9.3024798  32.0084911  21.5323189 -10.5616323  32.0042761
  13.5063568   5.0926213  31.0145332  13.3533191   5.4163390  31.9279910
  14.4601125   5.3093040  30.9089326  20.2506671  17.5868315  31.5929886
  19.3377386  17.4497708  31.2303915  20.1641669  17.2073990  32.4626719
  12.5336477  19.7126526  27.0352855  12.1808499  19.6748357  26.1467614
  13.1766792  18.9874742  27.0974362  20.0081642   2.4372791  42.7462689
  20.7501504   2.2500813  42.1323158  20.0845626   3.3664238  42.8067825
  28.1188530   4.0343207  25.8995827  28.7653279   4.5120794  26.4173040
  28.4247564   3.1319271  26.0086782  -3.0473051  16.9342886  27.2922380
  -3.2998458  16.3878468  26.4791879  -3.2121262  17.8513371  26.9219639
  24.8619586  11.0756833  10.5341146  25.8528573  10.8586341  10.5616773
  24.6820785  11.2855605  11.4350342  21.6012217  -2.7302239  13.0542829
  21.3492636  -2.8156824  14.0040882  21.4809330  -3.6928345  12.8134684
  22.3194993   8.6829547  40.7320557  21.6380691   8.8196207  40.0768169
  22.8288023   9.5069869  40.6887290  10.6993334  25.0374559  28.7454441
  10.7628032  24.3404275  28.0773871  11.4723223  24.7934756  29.3027995
  19.8288575  18.3906567  28.0738697  19.8122760  19.2531768  27.5468330
  18.9923014  18.4849171  28.5704990  26.0352570  17.6910531  20.3498929
  26.6782131  17.5277909  19.6216512  25.8393303  16.7461298  20.5732104
  37.3682266  19.4154068  30.2154341  37.1908028  19.1623940  31.1122061
  38.2811141  19.7055229  30.1732527  12.2693082  28.2437519  31.6413262
  11.7458021  28.6324937  30.9020554  13.1527655  28.2297439  31.1307340
  34.5444889  17.6133800  37.5970529  35.3588340  17.2065249  37.2028322
  34.7348154  18.5859533  37.4444816   5.7952545  23.2018550  22.6102831
   5.2772303  24.0375144  22.5425622   5.0617909  22.5737594  22.6924365
  15.7799439  25.4908692  26.5679279  16.3558216  25.0879115  27.2853606
  14.9300528  25.3984081  27.0336539  15.0821359  21.8846563  20.2645233
  14.3736512  22.5500509  20.0087056  14.7152062  21.1056125  19.7939597
  31.9972874  34.7214286  35.5619182  32.5944553  34.3555556  36.2543451
  32.1689631  35.6742187  35.6079462  21.9624051  29.6467829  33.2540023
  22.5380190  29.7986607  32.4507967  22.4768487  30.2340767  33.8905977
  27.9723793  11.6035667  15.4497761  27.9998972  11.0693998  14.6339497
  28.8781530  11.9305309  15.4882740  34.6883429  26.0429133  28.5459039
  35.3920575  25.6484172  28.0526183  34.1057282  25.2245740  28.6223953
  30.5614448  12.8066765  15.2032870  31.4993882  13.1575239  15.2149345
  30.5059869  12.7913777  14.1772905  26.3581558   8.9060479  21.2153904
  25.6789162   8.6729383  21.8624325  27.1384399   8.8791731  21.7992150
  23.8318451  25.2283657  23.2239122  23.2752657  24.7549859  22.5246870
  23.7454124  24.4599832  23.9000319  31.1790967  15.0451038  27.1985235
  30.4803624  15.1739322  27.9034732  30.5822183  15.1038653  26.4280774
  26.7942714   8.8800958  27.0208114  27.5585066   8.6064342  27.5142225
  26.1092892   8.2262398  27.3570010  20.4817691  13.0565752   9.4583406
  20.4752051  12.4285055   8.7065190  20.1597289  13.8911339   9.0816045
  24.3614563  30.4193461  37.3148606  25.1922474  30.9240210  37.1634617
  23.8283304  30.7717682  36.5104604  29.2528011  15.5068493  24.8440891
  29.2006650  16.4515212  25.2533561  29.3766846  15.7630616  23.9285036
  32.0160707  16.4045620  37.9043471  31.8303118  16.9848534  38.6480614
  32.9680254  16.6209650  37.7533437  17.8969914  13.5483481  11.4593117
  18.5007406  13.9107446  12.2094895  17.2209775  14.2642020  11.4914645
  12.9635748  17.1097664  34.5101276  13.2411193  16.2036841  34.7480638
  12.2152560  16.8829113  33.8709623  24.5915122  31.7623087  28.3480051
  24.8584223  31.8809707  27.4266549  25.4159489  31.9460006  28.8061966
  20.1019445  27.7429496  34.0028421  20.7625351  28.3627501  33.6420499
  19.5171808  27.5759369  33.2752281  37.0089747  16.4311717  42.3154585
  36.3219627  15.8728219  42.0081834  37.2630372  15.9184875  43.1688216
  25.2849050  18.6617540  23.5196478  25.3458207  18.9783653  22.5796213
  26.1839232  18.9690525  23.8630305  15.6488891  15.8124472  31.3429039
  15.2410261  16.6479112  31.2495561  14.9574177  15.2953213  31.8472666
  28.3997943  16.6448553  36.9334603  28.6947752  17.0061144  37.7902278
  28.0954553  15.7610207  37.2177897  21.2297307  16.3853824  23.9297658
  21.2211567  15.4098602  23.7371529  20.5335078  16.4452102  24.5975133
  31.3723962  17.9063042  40.0118475  30.4402255  17.5479120  39.9477945
  31.4931197  17.7694114  40.9837909  33.6850544  23.0092358  24.4190016
  33.3457736  22.9859433  25.3754362  33.8686680  23.9742142  24.3956192
  24.8342937  18.3778934  30.1115133  24.1699590  18.8866893  30.5097092
  25.1294097  17.8433496  30.8876520  35.7983230  11.9825702  24.6300333
  35.1686052  11.8578709  25.3979401  35.2676345  11.4315743  23.9701142
  33.2794121  23.6127665  28.6729899  32.5016892  23.3783589  29.1584380
  33.1836255  22.9511875  27.9061228  23.6904401  20.5872969  26.6945106
  23.2822227  20.2037020  27.5155457  23.4664170  19.7178589  26.1800910
  29.1978313  25.4716475  22.3576654  29.6567386  25.2389341  23.2049706
  28.2885711  25.5116284  22.6149721  20.0225849  20.9965958  26.7660673
  20.5876901  21.4642823  27.4060010  19.3355531  21.7180737  26.6575117
  24.6961298  16.9491228  38.9530446  24.9482127  16.0195957  39.1742933
  25.1066480  17.0862996  38.0640365  13.8308903  10.3346176  26.9926838
  13.0181905  10.1372208  26.4624447  13.5503446   9.9770836  27.8738308
  31.0398574  13.4130856  30.4654730  30.4726127  14.1735193  30.1359983
  31.5546351  13.9395936  31.1167291   0.5408360  19.8356161  27.7920684
   0.8597004  19.2831730  27.0412919   1.1459310  19.4952915  28.4716479
  18.6483515  25.4725615  48.5952401  18.1384170  25.4166573  47.6996110
  18.2582613  24.6800132  49.0246315  15.8777590  22.2788128  41.0638733
  16.6885918  22.8638188  41.0137242  15.2144879  22.8833602  40.6972983
  41.6441901  26.6763253  30.2199212  42.2638981  26.9634149  29.5054316
  40.7931202  27.0822212  30.0088967  18.1725987  29.6364573  17.6842017
  18.3354313  28.7103399  18.0513319  17.1870767  29.4146738  17.4124631
  17.4691956   1.2739024  42.9553384  17.7833477   0.3617477  42.6575988
  18.3524474   1.7530316  42.8002609  20.8464586  30.4667821  16.8016367
  19.9317056  30.3049632  17.1132528  20.8821010  29.8914432  16.0216079
  27.3816435  28.6661028  27.0142109  27.8350069  27.8553268  26.6610249
  27.1624577  29.0920514  26.1475857  15.4494261  16.3395610  48.2579410
  14.8064111  15.9305539  48.8416009  16.0341080  15.6354022  48.0096389
  18.9177459  23.1882985  34.8317103  18.0571132  22.6975342  34.6815155
  18.5573224  24.0465249  35.1751018  29.5296183  26.6322363  36.8101206
  30.0302248  26.1396083  37.4635867  29.5846795  26.0023806  36.0490491
  12.5602952  23.6699762  33.5588719  11.9486092  23.5720832  32.7504761
  12.1645142  24.5440351  33.8730927  31.1292859  30.8448813  28.1242952
  30.7372345  31.6741013  27.7522083  30.4089007  30.5516827  28.6641047
  26.8743933  22.4909621  46.7808354  26.2581801  22.3370033  46.0266402
  26.5742535  23.2540941  47.2416559  18.1736000  15.2699244  30.2483180
  17.2076739  15.4026387  30.4728015  18.5309170  15.0465973  31.1223388
  29.8653613  23.5185294  41.8676976  30.3353626  24.3958902  41.6650651
  30.6675480  22.9561536  41.8192950  15.6046336  17.2506147  24.1696251
  16.0951592  18.0763120  24.2483421  16.4055075  16.6271308  24.1814310
  27.3166083  24.5890612  36.5539912  27.2886829  25.4286904  36.1273446
  26.3877806  24.4535731  36.7776309  32.4258173  17.3049166  35.0312871
  32.5949736  16.3865965  35.3305526  32.0028314  17.6503562  35.8641685
  15.5960180   4.7798075  16.7748733  15.0004929   5.5833978  16.7898189
  16.0999350   4.9659673  15.9677953  30.0945830  20.2521141  14.3994889
  29.0885323  20.2493170  14.3082543  30.2035072  19.4335514  13.8695989
  24.9893905   9.5350669  17.5328071  24.7802405   8.8510579  16.8401333
  25.3265425   8.9680671  18.2463140  24.3952067  28.0276005  22.6117926
  23.9046337  28.2024087  21.7876640  24.1545826  27.0644246  22.7053860
  39.2146136   8.4040466  20.7893783  40.1544564   8.2330655  20.7672488
  39.1906692   9.3172288  21.0721155  10.8245843  13.1412612  25.9764231
  11.2317577  12.8250040  25.0879927  10.4377586  12.2773500  26.2224120
  30.2509589  17.3096868  31.1332823  30.2949545  17.0405249  32.0921021
  31.1985358  17.2274202  30.9021566  24.7225616   7.3353833  27.5943373
  23.7837359   7.2720104  27.7210653  24.8149167   6.6979227  26.8753123
  18.5915102  12.6115330  25.7038589  18.4854837  12.6200259  26.7097877
  18.6859615  11.5961806  25.6407017  19.1561680  33.0072278   8.2451797
  18.7459967  32.6999464   9.0833935  18.4316964  32.7324548   7.6381817
  13.5354654  27.0587502  14.0200262  13.4472356  26.1831318  14.4835409
  14.4229473  27.3007017  14.1757668  29.4891961  22.6001632  25.3928335
  29.7688611  21.8821546  26.0271367  29.1895238  21.9801693  24.6606346
  14.8991782  25.3970866  17.9654538  15.6473561  25.2807837  18.5375779
  14.8845308  24.5497815  17.4440487  20.2471980  15.0387026  20.3326728
  21.0760288  15.3301938  20.7055297  19.7774518  15.8514348  20.3324468
  25.4680099  22.1254225  39.0586306  25.3110598  22.8669505  39.6455898
  25.3853881  22.4555202  38.2026666  27.8837988  16.8706120  18.3643625
  28.6328612  17.4566782  18.6436134  28.2011560  16.6775273  17.4309290
  34.0351689  28.5872009  28.6898576  34.3588802  27.6480083  28.6642906
  33.3845806  28.4421077  29.4312990  35.7686274   9.6617153  32.7309196
  36.7302107   9.7255979  32.6053128  35.5769355   8.7772519  32.3451027
  14.6747089  17.9875095  26.6109538  15.5380011  17.5876658  26.9425633
  14.7893774  17.7190411  25.6419254  17.6343528  11.0121456  33.3753103
  17.2051715  11.7069027  33.8973759  18.2851320  10.6993755  34.1290005
  29.4625220  18.0129680  25.4417834  28.7830519  18.4499992  24.9647206
  29.6334050  18.5744803  26.2004234  26.0279243  25.0229220  15.9374515
  26.2658955  24.0869997  15.9569846  26.7261292  25.3871934  15.3674368
  29.5617693  29.3082331  17.2022156  29.7536069  29.1149256  16.2612319
  30.3545178  28.9726959  17.6222900  36.8126321  27.9346236  26.2614414
  36.8600162  26.9887985  26.5202479  35.8339892  27.9751013  26.0339582
  35.2646991  27.1736087  20.8978283  35.4935881  27.6051511  20.0762213
  34.4146486  26.6958276  20.6337080  20.2376659  29.6906612  24.6369717
  20.6352652  29.3616640  23.7636708  20.9509829  30.2993497  24.9155770
  39.9728933  10.1377685  23.3181325  39.0884165  10.3523682  23.7390817
  39.9333188  10.6374322  22.4864745   7.8151671  19.8746484  30.3285193
   7.6309389  20.7467268  30.0349742   7.8471876  20.0028349  31.2857323
  13.6567151  26.3523115  36.2696887  12.9526729  26.6246239  35.6397506
  14.1605117  27.2383811  36.2816116  11.2873563  24.4850935  17.2606074
  10.5322911  24.6255611  16.6817668  11.1614482  25.2792766  17.8883239
  24.1039304   7.8788163  33.2016433  24.2679223   7.8783023  34.2483618
  24.4746814   6.9494868  33.0787366  26.6863743  10.2238489  36.2713233
  26.1737664  10.9369870  36.6358151  27.6114696  10.3799881  36.4034008
  27.0299912  13.2136558  28.8024173  26.4856658  13.6541722  28.0622215
  26.4220688  12.4740115  29.0300627  20.4925985  12.4628716  30.0516160
  21.4256925  12.3722452  30.0420552  20.2914007  12.9564968  30.8353105
  28.1053155  28.9819275  36.7464880  28.5522977  28.1045269  36.7563992
  27.4302755  28.8732946  37.4519932   8.5959849  19.1308345  36.3467071
   9.3588395  18.4686563  36.1922271   9.1438321  19.7294702  36.8910974
  32.5259518  26.6913916  33.2803223  31.7675076  26.0711752  33.3341189
  32.4185626  27.0798958  34.1710514  18.6151441  26.4128330  22.9415045
  17.9873685  26.5745631  23.7101831  19.1361294  25.6499947  23.3400803
  26.5609550  18.8030161  27.8840011  27.4784911  18.5521475  28.1601712
  26.0955420  18.6782143  28.7535654  22.2391084  19.1933312  28.7353699
  22.1556299  19.0926784  29.6922848  21.4292614  18.7720566  28.4312714
  34.0283583  14.1258016  26.2249849  33.2627674  14.3530018  26.7837616
  34.1482013  13.1749808  26.3936746  22.0836998  19.5044119  20.3714391
  22.6528548  19.3978632  19.5573923  21.2239633  19.6317807  19.9512587
  14.1310646  14.7787546  27.6292935  13.3150019  15.2921024  27.4204688
  13.7294516  14.1426402  28.3000782  29.5768954  19.3230708  34.5669878
  29.0212547  18.9156049  35.1838629  30.5040609  19.0881048  34.8384404
   2.4470191  23.6973487  24.7715835   2.8849978  22.8409671  24.6771420
   1.7767475  23.6753544  24.0106696   9.1363351  19.7362459  17.2147406
   9.6250653  18.8569685  17.0965162   9.2921291  20.1497612  16.3612281
  22.5416812  19.2045379  31.6350515  22.1991290  19.9705017  32.1690689
  21.8696082  18.5408372  31.8415036  18.9039363  26.9829385  31.1653444
  18.6903974  27.2580668  30.2748733  19.8707003  26.8159988  31.1068295
  11.7813315  15.5422243  39.5099140  12.5141887  15.1515256  38.9432754
  11.3517294  14.6789017  39.7728824   8.0396028  27.0898294  30.9418779
   8.5604874  27.5002846  31.6667979   8.2111556  26.1719664  31.1411770
  27.4419869  33.8632828  26.7003972  26.7041383  33.3091958  26.4614873
  27.3712861  33.9543368  27.6622801  30.5851534  11.2619781  34.0252155
  29.9157190  10.8374684  34.5689617  30.1186735  12.1222369  33.7890265
  33.3657247  11.9750403  34.8636338  32.9823621  11.7140375  34.0062706
  33.0969610  11.2095362  35.4358727  23.3763905  33.8087203  29.4744818
  23.7815529  32.9894272  29.0806992  22.5976178  33.8836344  28.9262074
  25.6047122  13.1471012  19.7860532  25.9844177  12.6958048  18.9928000
  25.1692399  12.3620420  20.2023072  23.9580845  16.9632623  27.7072329
  23.9452323  17.5893423  28.4448589  24.0647232  17.5451737  26.9233461
  25.9502585  17.1855568  32.5611451  26.6906401  17.0560946  33.2534218
  26.0363789  16.3070631  32.1179444  13.1820260  24.5915177  27.0397063
  13.5264663  23.7886948  26.6263404  12.6148326  24.8554081  26.2235029
  32.7379274  21.6456298  26.7020767  31.8728290  21.3855039  27.0126353
  33.0685551  20.8357787  26.2606859  32.8395168  18.6477679  19.3145945
  32.6050994  18.7935346  18.3593062  33.8320697  18.5848310  19.2200373
  25.5392647  17.3949697  36.5355893  25.1354363  17.5791073  35.7131419
  26.0816901  18.1704232  36.7102619  27.0232918  32.7775654  29.2979966
  27.6232604  33.2250656  29.9626299  27.2184108  31.8649307  29.5494380
  28.8267518  23.5876218  20.5149497  29.6594754  23.3586503  20.0364043
  29.1835517  24.2206909  21.1569597  32.5446406  22.2897345  41.3618813
  32.9946039  21.4170194  41.2893080  32.5220168  22.3767413  42.3530571
  19.5761946  23.0305195  21.9162758  20.2631295  23.0340883  22.5921553
  19.4810903  23.9666114  21.7293541  26.8226760  28.9063190  21.7129572
  27.2397307  28.1248829  21.2588042  25.9084150  28.5634641  21.9066490
  12.9182485   6.3422540  33.3270374  13.1952880   5.9153894  34.1660244
  13.6270577   7.0786181  33.2042388  24.8568239  27.6156708  27.8324535
  25.6187291  28.2668068  27.6148699  24.5415471  27.5113977  26.8682758
  14.6708790   9.4793945  39.8431156  14.5569893   8.7354442  39.2415161
  14.1438631   9.1696974  40.6028817  15.5598631  14.2408571  39.9821311
  14.6371974  14.1033233  39.6645513  15.8816364  13.3419045  40.0302872
  29.6218184  20.6997907  39.6293813  29.6204951  20.7686224  40.5915312
  29.4502912  19.7339212  39.4803843  15.3057884  14.9861661  14.3320837
  15.9339498  14.6237761  14.9964637  14.4607711  14.5965375  14.8187596
  23.2112695  31.4904076  35.2328005  22.6492652  32.1480909  35.6705929
  23.6042847  32.1087204  34.5792076   5.8151086  23.6032648  34.6197921
   6.7090707  24.0335360  34.5848653   6.0355344  22.8114357  35.1226523
  42.8972155   3.2081166  11.2862835  43.1969136   2.4401101  10.6680102
  41.9410373   3.0202655  11.3319383  19.6123606  14.3642305  32.4360371
  19.6436675  15.0815511  33.0859040  20.3889953  13.8741735  32.6670708
  18.6325479   9.9887903  22.3254731  19.2133034  10.4676252  22.9110314
  19.1909229   9.8623226  21.5098332  30.1785462  20.6861502  27.3110033
  30.6515399  19.8819653  27.5852377  29.6961679  20.8798578  28.1216999
  17.6064954  13.2683064  21.0438250  17.4014898  13.2428833  22.0243021
  18.5831329  13.2174010  21.1472964  29.3887156  24.4714928  14.1009039
  28.9717864  25.3305740  14.2421187  28.6953079  23.9525298  13.6504585
  28.1407913  13.3951527  36.4247276  27.2335691  13.0074468  36.5887404
  28.6948271  12.8268825  36.9443054  32.0067818   6.8886149  34.0174675
  32.3659853   6.2688937  34.7132807  31.8011913   6.3202451  33.3107849
  36.7117078   1.3300109  10.2240311  36.1638770   2.1027547  10.0955377
  37.3549947   1.4142384   9.4988146  27.0830572  23.9067213  25.7214238
  26.7092323  23.0327457  26.0034830  28.0134629  23.6391458  25.6141250
  30.3127605  24.9716135  24.7341580  30.0473446  24.0704262  24.9367908
  31.1769815  25.0454724  25.2539186  15.9219544  10.7080244  21.8809309
  16.0759980  10.6604377  20.9017016  16.8547171  10.5027051  22.1552194
  32.7037734  26.1023380  21.6098943  31.9085663  25.4809291  21.6656845
  33.3417325  25.5641978  22.1081474  28.4825523  21.1580909  17.7360440
  29.1756665  21.6079001  18.2199039  28.8049157  20.2393422  17.8007372
  23.0996802  15.4374584  33.7697985  22.7301540  16.3142896  33.8465626
  23.9665602  15.5371320  34.2464460  27.8990606  17.8432633   8.7080264
  27.7352929  18.1228697   7.7952870  28.6717686  18.3436595   8.9369961
  29.2429747  15.0131117  29.2212830  28.8753032  15.7059990  29.8623949
  28.4886626  14.3757092  29.1373261  36.7869277  16.3647409  36.5520624
  37.5686602  17.0129142  36.4338247  37.1823002  15.6672208  35.9555109
  40.3757192  19.4128682  22.2960725  40.5309422  20.3599500  22.1435611
  40.0223049  19.1703961  21.4024757  16.2353557   6.0782987  38.2097657
  15.4456812   6.6149987  38.2038861  15.9152354   5.3512029  38.8099620
  32.3249049  17.7121859  24.1076676  31.9201785  18.5668806  24.2647568
  31.5838062  17.1365582  24.3671371  20.2370946  28.0170744  39.8312203
  20.8948749  28.6050955  39.2987667  20.3400974  27.2296908  39.2504014
  33.4483294  31.1316363  29.1949510  32.5768026  31.0479785  28.7380535
  33.8714170  30.3062482  28.8554252   9.7901079  28.4116482  26.6853247
   9.5493831  28.2478924  25.7019526   9.2195663  27.7645653  27.1161840
  25.7583966  24.5701565  48.6076115  26.4081045  24.2145361  49.2453439
  24.9506549  24.1075001  48.8886651  22.2401189  16.7879251  21.3351059
  22.1029641  17.6226941  20.8947826  21.8791796  17.0127203  22.2051758
  20.5296078  13.3072563  45.3067771  20.6317220  14.2516050  45.1194253
  19.5861081  13.1559772  45.4825304  24.4712066  27.6409461  30.6422382
  24.0777855  28.5167195  30.6367709  24.4143108  27.3878044  29.6831205
  28.6450124  21.9380598  37.1431805  28.5915951  22.9095701  36.9537214
  28.5817331  21.9193373  38.0870916  27.5908741  19.4657299  24.2812197
  27.1690266  20.0565518  24.8970283  28.0927397  20.0132233  23.6908676
  33.2212851  14.9250158  32.5017693  33.2088371  14.9404146  33.4769959
  33.5158217  14.0820820  32.2875558  34.3431050  25.6926876  23.9331237
  35.2800707  25.7449742  23.6989731  34.3199989  26.3988616  24.6422113
  29.8429005  20.3674460  43.1058565  30.8300095  20.1789027  43.0528247
  29.7991191  20.4418095  44.0803482  35.4662885  17.5786964  20.7474317
  35.4047850  17.6233618  21.7879848  35.5879336  18.5348973  20.5923807
  40.0818171  18.6562255  33.6508639  39.0815409  18.4706671  33.5877679
  40.0556385  19.2483212  34.3993193  17.5579810  15.8782260  25.1007901
  18.5067524  16.0626702  25.3453923  17.1641090  15.7148420  25.9774596
  16.9226166  11.5270390  37.0287093  17.8555116  11.1988825  37.2876668
  17.2056884  12.2198459  36.3378730  21.7745333  25.8939819  30.9354252
  22.3041034  25.7563123  30.1265817  22.3497295  26.4548883  31.4497400
  13.3731254  10.3291980  33.6606818  14.0816957  10.4510547  33.0603286
  12.6692225  10.0170992  33.0378736  27.2289687  31.5330579  18.5912737
  27.2287910  30.5642544  18.2417141  28.1670435  31.7685148  18.4643464
  35.4850324   6.3704005  34.3449347  34.8698203   5.6537212  34.1897660
  35.1234198   7.0112928  33.6625947  31.2246252  21.4258400  33.1841357
  31.9619997  21.0532765  33.6344800  30.4322365  21.1635788  33.7511402
  31.6469151  21.7763572  22.7263177  32.3158146  22.1630704  23.3494030
  31.9057603  22.3333098  21.9192614  21.9545207  25.3321230  12.1240487
  21.3982869  24.6475429  12.4857617  22.4393062  25.6503923  12.9276027
  29.0285230  11.6932586  26.6181866  28.8185746  11.6207695  27.5581104
  28.4273008  12.4886905  26.3745102  21.7338569  14.1327952  11.5355589
  21.2847960  13.7664668  10.7016137  22.2790316  13.3580830  11.7711068
  23.2826294   6.6765420  23.8381172  23.6074176   6.3375856  24.6777148
  22.3617888   6.7769216  23.9357302  41.3387968  10.0191912  26.6197543
  41.9076230   9.7433999  25.9572203  40.7899160  10.6786268  26.3078240
  40.7707747  22.8659504  29.5315400  40.9810533  23.7459181  29.8011619
  41.5437100  22.6943135  28.9418706  43.7365918  21.5615456  31.8141826
  43.5028820  22.1957744  32.4674535  43.1092247  20.8550443  31.9142731
  28.9376400  21.4709693  29.7954708  28.8593209  20.7065651  30.3850771
  28.1446568  21.9741661  30.1103369  26.1834560  17.7370164  14.5024674
  26.9819288  17.5360004  15.0375130  25.4387427  17.5797070  15.1687482
   9.6444188  26.5793838  18.3386339   8.9221848  26.8451541  17.6880923
   9.0946965  26.4362041  19.1155053  17.5642305  15.7685645  38.5748129
  16.9432682  15.2219257  39.0644764  17.6316321  16.5541456  39.1730006
  27.0036794   3.7580569  36.9703077  26.3538014   3.4699264  37.6664538
  26.6281201   4.6773003  36.8805089  19.8309505  16.4697135  26.3455393
  19.7482290  16.9870590  27.2037781  20.7214968  16.0335996  26.5335566
  23.4686406  15.4141647  47.7909077  23.5049961  14.4127315  47.8186273
  23.4391188  15.5069194  46.7996335   9.2913294  13.2958441  11.0498453
   9.7162906  12.9857653  10.2195712   8.3346586  13.1252039  10.8514892
  26.5431818  25.0332224  23.3390236  26.6968372  24.5779932  24.1669257
  25.6343197  25.2681682  23.3095519  24.2958310   8.6926757  36.0002716
  23.9465155   9.6021940  35.8096465  25.2931664   8.9056457  36.0724582
  32.1086665   3.5720645  22.4161255  31.6921026   2.9781578  23.1013964
  31.8701956   4.4177702  22.8310695  20.3901555  15.4785571  38.7438014
  20.2006535  15.1563971  37.7989452  19.4911098  15.7341047  39.0328054
  10.1992940  20.6839538  33.6322649  10.7130452  21.1090874  32.9310342
  10.8047880  20.1543602  34.1717153  26.4480462  21.0568877  26.4564014
  25.4710785  20.9082735  26.3499504  26.6359057  20.2240304  26.9867278
  20.2151646  23.7679087  31.5704492  20.8762527  24.3163848  31.1503190
  19.6089792  24.4078062  31.9662307  25.3204023  14.5767073  27.3410618
  24.6030092  14.2806128  26.6973310  24.9641026  15.4550809  27.5505151
  21.8215966  13.2139947  33.5489665  22.1467221  14.1572829  33.6241122
  22.6666488  12.7716838  33.2752579  26.6747410  19.7998538  38.0926613
  26.2249892  20.4749067  38.6755310  27.2662271  20.4215348  37.6023076
  16.7942237  29.8136039  27.9206130  15.9502215  30.3374548  27.8984488
  16.9666912  29.8238574  26.9374818  24.3921973  28.4212423  10.7524390
  23.8637989  27.8914815  10.0970717  25.1230573  28.6415899  10.1317513
  20.1120369   7.2024094  33.7460909  20.7945627   7.7381500  33.3547052
  20.5792931   6.3864686  34.0132604  23.5960788  15.7478509  10.6092462
  24.1452374  15.8085222  11.4256016  22.8566978  15.2282741  11.0352194
  26.7594677  12.6060263  32.8598703  26.9095759  11.6495304  33.2237152
  25.7952050  12.5910541  32.7863639  16.1189872  22.3016127  25.6962236
  16.4177676  21.4528531  25.3017455  15.7935393  22.7119237  24.8677713
  36.1212011  31.0473854  22.2011141  36.5212029  31.8314990  22.6060140
  36.3273233  30.3416393  22.8332449  35.6115862  21.1132207  28.9409635
  34.8242605  20.9432171  29.5100404  36.2507285  20.5049356  29.3751509
  10.1424923  14.0741983  29.3270831  10.3159039  15.0116299  29.1671230
  10.8070978  13.5830469  28.8190929  30.1708423  25.6162684  28.5975336
  29.9568105  24.8023219  29.0027464  29.8083914  26.3126350  29.1403903
  24.2112924   8.5554854   7.1469772  23.7184751   9.2869013   7.4787321
  24.9337489   8.9597167   6.6059605  25.9761614  28.9944344  38.8892779
  26.6225038  29.7122289  39.1015735  25.3434157  29.5989207  38.3973302
  24.4144345  22.2990083  29.3161666  24.8985823  21.8927406  28.6039468
  24.8898776  21.9306851  30.1045405  39.2528981   2.2014979  22.4682022
  38.3696904   2.3736292  22.7857543  39.8062279   2.4902174  23.1862026
  10.0858945  11.8672596  37.9905451  10.0648674  11.9322950  37.0369695
  10.9797071  11.8929690  38.2293338  38.9933843  23.0081769  15.6237318
  38.4644995  22.7572161  16.4122463  39.1538412  22.1540245  15.2426443
  27.6974091  26.6386369  13.4548976  26.6984042  26.7019415  13.3531489
  27.8364225  27.3629981  14.0526631  39.1864588  29.4074749  22.1271232
  39.5840717  28.8528472  21.4235245  38.3664341  28.8432768  22.2817843
  33.1719706  35.2352329  29.7726241  33.5522232  36.0854138  30.0273887
  32.3586304  35.2219654  30.2392018  26.9174640  28.5762815  31.4342909
  26.1053991  28.1527243  31.1377169  26.7808057  28.6954580  32.4066691
  31.2867663  29.1096978  41.3936559  30.9470145  29.3501417  40.5283265
  32.1864285  29.4926360  41.4345687  26.2433598  29.6972813  34.1590149
  26.5425599  30.5809196  33.8526239  25.6631304  29.9931513  34.9032603
  36.5296780  21.0993900  26.3486947  37.2159711  21.8233482  26.3643567
  36.0723540  21.3019742  27.2225559  34.7728393  40.4661828  29.9173774
  35.4231750  41.1081538  29.4900104  35.1980187  40.4876513  30.8159513
  33.4240538  23.0920834  33.9876876  32.5111597  22.7515559  33.9722742
  33.9329285  22.3394560  34.2358265  27.7262483  23.8973299  30.5846846
  27.1513438  24.2171768  29.8522646  27.1223779  23.9023876  31.3428441
  38.1961715  32.7149089  23.7469418  38.4533731  32.2552389  24.5621557
  38.2064655  33.6598338  24.1107596  33.0251725  38.1196500  30.4545010
  33.3284463  39.0032157  30.6173613  32.0711949  38.2378637  30.6871798
  37.2080098  25.2300395  19.9597251  36.5879299  25.6477553  20.6365596
  36.5558678  25.2698050  19.2260527  23.9112077  21.2656134  33.4597500
  22.8844032  21.3280879  33.4583836  24.1503841  22.1654391  33.6498390
  35.7601265  17.6287717  28.6771881  35.5706025  18.0081933  27.7961276
  36.3012728  18.3769725  29.0702406  30.3755860  29.3721599  23.5461637
  31.0075637  28.8381805  23.0032492  30.8448810  29.2830202  24.4256371
  13.2866944  22.0316269  26.3198410  13.1130474  21.1646421  26.7517861
  14.2845352  21.9669201  26.2613909  33.9445780  27.6094448  25.9540244
  33.8113656  27.8642173  26.9172792  33.0656374  27.8796388  25.6348962
  34.5741839  31.0233746  19.9755688  35.0238511  31.1684535  20.8182596
  34.6552670  30.0523980  19.8744025  32.6703890  37.5109615  35.2877408
  32.7329260  37.9592511  34.4585625  33.6113170  37.5609682  35.6692615
  27.6917384  29.4910134  24.3461206  27.1486290  29.1951685  23.5976950
  28.5761936  29.3919124  24.0009769  21.0514752  15.5562824  29.8504120
  20.0603819  15.4123446  29.9254321  21.1320797  16.2505992  30.5587539
  36.3103533  22.6949577  23.4809335  35.5058199  22.5720039  24.0423572
  36.6350361  21.8853644  23.2584885  29.3880056  29.5014462  34.3851304
  30.3341305  29.1632759  34.6477696  28.9553005  29.3705497  35.2792539
  32.2871733  30.2826535  37.1872943  31.9460402  31.2087958  37.2315441
  31.8329473  29.8989320  37.9539467  19.8225970  24.5059424  24.5833189
  20.4406639  24.5482340  25.3230836  19.1335565  23.8378116  24.9241181
  31.8315640  32.1116418  31.7166998  31.5982841  32.9916291  32.0651617
  31.7598953  32.2316845  30.7666572  29.9080952  24.6674140  31.8673172
  29.0099266  24.2530232  31.7796772  29.8033937  25.4598061  31.3299757
  22.6467800  35.9999898  15.7616390  22.9693052  36.9507028  15.6420214
  22.0980296  36.0428367  16.5857073  29.0111819  21.4222519  22.8444504
  28.9093962  21.4583622  21.8744146  29.9497673  21.7383569  22.8309195
  29.3909547  27.2800571  31.0429781  28.4099601  27.4393676  31.0433027
  29.7448944  28.0385746  31.5633906  36.3761548  26.4291078  30.5621929
  35.4945308  26.3238670  30.1631318  36.1653984  26.1367350  31.5085779
  31.6908115  31.3998973  20.5730185  32.5958870  31.6260310  20.4475746
  31.7206164  30.4018112  20.5612439  28.7971827  27.2579656  20.3903570
  29.3999731  27.1027107  19.6239622  29.1108476  26.5341668  20.9911858
  30.2186576  33.0238306  26.8463862  30.6303827  33.9066940  26.6501177
  29.3138536  33.2737023  26.5550733  31.3838071  22.4220637  30.1918514
  31.2659679  22.7461473  31.0820109  30.4647129  22.0939350  30.0117027
  38.6250513  22.7111549  26.5009070  39.3922646  22.3308353  26.0239522
  38.9641531  23.3623525  27.0580178  30.7140027  38.6441741  31.5948832
  30.0193440  39.1854376  31.1963743  30.1395630  37.7839077  31.5777604
  30.9073371  25.3173668  38.6778201  31.8077645  25.5357907  38.8755063
  30.9470364  24.3242489  38.7415865  32.5512518  35.5081854  13.0902311
  32.1601481  35.7643044  13.9474495  33.0416993  36.3135290  12.9218839
  47.1551118  20.3392251  20.0345538  47.3420704  20.4625437  20.9809173
  47.8746787  20.8701202  19.6312745  43.6840504  43.6189371  14.1283715
  43.9494637  44.4260155  14.6634770  42.8332143  43.4602971  14.5924472
  39.4470706  27.9761251  14.2444201  39.0485652  27.1073265  14.0781757
  39.8299659  28.1678596  13.3583345  42.7659344  23.9803967  27.5755728
  43.1267968  23.9210029  26.6736851  43.4712614  24.1747711  28.1326392
  39.9839011  28.5104337  19.4191581  39.7623543  27.5983546  19.0422814
  39.4153500  29.0426143  18.8410701  25.2352587  31.9114201  20.4293307
  25.9770892  31.6825089  19.8337985  24.4672338  31.6993014  19.8914828
  37.2106029  12.1979163  30.5682819  37.3225174  12.3149154  29.6191125
  38.1212294  12.3828172  30.9058003  22.9728177  18.3957761  25.1088217
  22.5150409  17.5924036  24.7609720  23.7763207  18.3675199  24.4978428
  32.6662772  25.1494694  26.4307737  33.0701567  26.0448759  26.5610216
  32.5845045  24.8497370  27.3480126  28.7392446  22.1747240  10.3217898
  29.1066991  21.2901704  10.1312796  28.9892474  22.6869560   9.5385163
  47.5732730  16.9517266  19.8164722  47.4583486  17.7668710  19.2799284
  48.3148052  16.5732030  19.2375008  39.3284250  34.0613517  27.0748232
  40.0285417  34.6739798  27.4399240  39.1490071  34.4627011  26.2401071
  43.0139462  30.0115532  11.2641744  43.5208628  29.2027764  11.4905101
  42.4443461  30.0865374  12.0894515  41.9131761  38.0538612  19.6219626
  42.8135569  37.8567575  20.0501593  42.0302462  38.9773089  19.3675260
  25.8142844  35.5553235  29.6379020  25.1091561  34.9478209  29.3648709
  26.5698242  34.9573206  29.7088080  25.7181476  26.5218304  18.4310077
  25.7625226  25.8971358  17.6412075  26.0596678  25.8845821  19.1038077
  36.5035450  21.4420695  20.3930193  36.2635675  20.7337403  19.7466459
  36.6316581  20.9041743  21.2049052  28.1499871  31.8589820  33.6521636
  28.6683866  32.4908640  34.1690478  28.5061353  31.0271929  34.0964719
  40.5322312  60.5086248  16.5123951  40.7094619  60.0200178  15.7155198
  41.2839323  60.4398376  17.0398572  53.5037114  48.1091504  22.4357906
  53.2763190  47.2133851  22.2126306  53.5161908  48.5541045  21.5744186
  44.4466081  45.9030969  15.4808983  45.0367556  46.3199517  14.8226134
  44.1478128  46.7468396  15.9391427  49.6261875  42.4795008  12.3356206
  49.3885554  41.5096453  12.1705323  49.1996957  42.8555026  11.5876226
  44.2197606  41.2799630  17.4425759  43.3040785  41.0629273  17.8764646
  44.2986204  40.4738459  16.9338561  45.5966540  54.0331808  19.9889240
  45.7588953  53.1018666  19.8617594  44.5894168  54.0532807  19.8292390
  69.4154070  56.0162428  33.0943633  69.6966743  56.9411016  33.2561209
  70.0989332  55.4866800  33.3812937  56.4783008  51.5004757  17.0189129
  56.3391201  51.5621271  16.0989269  56.8770589  52.3200603  17.2978921
  52.0503653  51.2740033  24.1540960  52.8153737  51.6433208  23.7119273
  52.4582818  50.4899395  24.5487862  45.2349955  59.5589796  21.6012608
  45.3549106  60.4170232  22.0335956  44.9314610  59.9496647  20.6806048
  44.1767168  51.3993710  20.9035484  44.4397107  51.4598766  21.8620122
  44.9717768  51.0224405  20.5480057  42.4747518  51.1351054  11.5144401
  41.7195896  51.6538660  11.9995534  41.9453503  50.3472225  11.3398216
  53.3763244  58.2347556  14.9558893  54.3187334  57.9063444  15.0055878
  53.0475370  57.9396895  15.8439386  52.8451757  55.9218863  10.5791685
  53.7682869  55.6502403  10.7434222  52.8031861  56.6728190  11.2042400
  60.3032866  56.4714771  24.3278310  59.8289608  56.2667466  25.1411200
  59.6681546  57.1084762  23.9196470  57.6839418  44.2639945  24.0172130
  56.7319681  44.1624553  24.2993265  57.6529816  43.5631142  23.3084282
  44.0671267  56.5198517  23.2410017  44.2990751  56.8534609  24.1343730
  44.7288479  55.7295164  23.2382848  54.9609150  44.2329320  24.1766287
  54.5901933  43.3708509  24.2387587  54.5757683  44.6075322  23.3564918
  61.6367260  66.0143093  30.8158104  62.4973583  65.8557290  30.3635986
  61.9042470  66.5033121  31.5859932  55.1749122  50.2227455  23.0659692
  54.6018442  49.4903728  22.9238775  54.8484275  50.9102782  22.4761501
  37.0304098  39.1785415  19.7158573  37.0504209  38.5299601  18.9824670
  37.8417906  38.8568476  20.1741623  66.5390578  46.5727535  28.5602583
  66.4373646  47.5468813  28.7800612  67.2372225  46.3618802  29.1974373
  53.9319736  51.4826980  31.0609397  53.0999066  51.2563786  30.6295491
  53.6267500  51.7346609  31.9562748  55.8897507  52.3284187  29.4592961
  55.1170010  51.9985427  30.0411456  56.0510608  53.2021270  29.8830148
  48.9760751  58.9853382  30.3204973  48.9878726  58.2845185  31.0630676
  49.4742229  59.6985328  30.8403476  37.5222097  40.5525302  13.2787692
  38.3771973  40.1135921  13.3474495  37.5442039  41.0431613  14.1040183
  51.2500860  40.2069216  25.5717876  50.2917718  40.1880354  25.7446995
  51.3734439  39.3379372  25.1299742  57.4638047  61.9969382  19.5276912
  56.8725876  62.8002886  19.6587103  58.3115519  62.3930571  19.8630987
  50.8700176  48.2487535  32.8850282  51.8127580  48.1247192  33.1358123
  50.3299159  47.8199008  33.5143727  49.8068041  54.1080883  24.9626666
  49.6968506  54.8351463  24.2935950  49.9162375  54.7008275  25.7700848
  52.2472226  47.4067949  17.2202533  53.0938002  47.4281035  17.6806663
  51.6021299  47.6744685  17.9156991  46.2255981  52.0812027  12.3295308
  45.7626229  52.5814143  11.6595653  46.0932514  52.6500858  13.1132744
  47.8527539  64.5031281  21.4728175  47.4444780  63.8628122  22.0340566
  48.5562030  64.0970751  21.0023221  55.5510796  52.6715994  20.4507122
  55.4549433  53.5909990  20.8027581  56.5064055  52.5618542  20.3962222
  49.3667805  51.7451330  24.1591329  49.6395110  52.6731281  24.4255234
  50.2705991  51.3632850  24.0850827  60.2481053  45.6716706  29.9551842
  59.8873011  45.4347327  30.8128321  60.2595948  46.6237569  29.9610137
  38.5720921  41.1604338  17.3058578  38.2803333  41.7500878  16.5520853
  39.2646801  40.6762794  16.8618401  48.5974447  40.6408212  25.3948228
  48.1024468  40.6040436  26.2872914  47.9331617  41.0237237  24.8053879
  49.1248010  40.9863655  22.6917714  49.2169502  40.6686709  23.6074947
  50.0910257  41.0936331  22.3873362  56.5261632  52.6637690  24.3617448
  56.6538101  53.4327769  24.9195213  55.5515827  52.7568596  24.1954526
  50.9711166  51.5615360  18.1116180  51.9197175  51.5049541  17.8709080
  50.6844329  52.2512907  17.5073017  53.1749916  49.0164014  24.8488226
  52.7724319  48.3343044  25.4184583  53.4042401  48.5604873  24.0611382
  38.1398675  33.7868440  17.3529572  37.6595885  33.2696220  17.9916905
  37.6509635  33.6004100  16.5444272  60.4417855  62.7865462  37.5040464
  60.4090555  62.4177086  36.6288456  61.3154075  62.4568394  37.7779259
  55.4374231  75.4280242  38.3202110  54.6000023  75.6929651  38.7322704
  55.1007674  75.1557826  37.4150389  49.4895433  73.6141193  15.0522577
  48.9856716  74.4061047  15.4100316  50.1392251  74.1463097  14.5280561
  62.4803138  67.8329406  40.8751200  63.2209399  68.4603363  41.1076301
  61.7283898  68.3670668  41.1438281  46.9671756  71.2008252  25.3476787
  46.5809479  71.7895688  26.0062823  47.5174394  71.8041675  24.8190690
  43.8341212  78.6646754  24.2303995  44.6851682  79.0322499  23.9475785
  43.9026600  78.7762340  25.1821464  52.5483112  58.5651723  25.2182521
  53.2599602  58.0713095  24.8266954  52.2055429  59.0658469  24.4712802
  57.7696291  66.8785236  39.1088474  57.1545137  66.4127773  38.5856878
  58.3747429  66.1777203  39.4939522  53.4993309  61.7891760  26.3777545
  53.8412455  60.9002719  26.2039167  54.3471296  62.1797921  26.7786976
  49.4235115  51.1059502  20.8473733  49.2113251  51.7399454  20.1085594
  49.9473486  51.7627012  21.4023585  64.0585737  69.7903771  20.1443555
  63.0863334  69.8688573  20.2129977  64.1548321  68.9752446  19.5892242
  49.6829749  67.1244203  20.0782189  50.3681019  67.7470098  20.4957252
  49.9659768  66.2930154  20.4958946  62.4954485  76.2293950  12.1684594
  62.4672216  77.2064661  12.0842532  62.2194729  75.9836993  11.2426292
  57.4251996  66.0485177  22.2259888  56.5459743  65.7395717  22.4763599
  57.8195158  66.0191159  23.1789186  66.3698475  58.0936359  47.6879141
  65.5720218  58.4943882  48.0698225  66.8168146  58.8309412  47.2381194
  52.4864593  55.4636768  27.6865798  52.5158376  55.4226551  28.6522151
  53.3833807  55.0614722  27.5276530  56.7296414  66.3271228  27.5251283
  57.4845309  66.6692851  27.0494188  56.1711482  67.0570181  27.7677645
  56.6569606  77.9996414  38.3030382  57.1407011  78.1456337  37.4151577
  56.3351465  77.1050411  38.1952208  48.0597244  65.1699793  26.1346560
  48.2492723  65.5199118  27.0420799  47.1932947  65.5215000  25.9074313
  54.4617299  55.1803256  20.8479071  55.2405607  55.6498622  20.5362028
  53.9307476  55.9291907  21.2298820  57.1194564  62.7657812  23.8284222
  57.4403937  62.9933533  24.7558764  57.9420902  62.7489549  23.3529576
  47.7094489  62.6400211  30.3320477  47.9489662  63.5535148  30.3823866
  47.3768875  62.5505246  29.4222766  53.0939469  73.4938420  18.5364008
  52.4574378  73.5171723  17.8103563  52.7129128  74.0869145  19.1943593
  57.7779268  58.7902760  33.9425974  56.9576120  58.5754214  33.2950959
  58.2756060  57.9513045  33.8028610  56.0111225  50.5347988  26.1271445
  55.1195426  50.2024295  25.8809842  56.1989109  51.1066642  25.3489652
  55.4099605  65.0062006  24.3865284  55.9484317  64.1615124  24.1374630
  54.5310344  64.6617239  24.3129053  46.7440252  65.5115689  41.9509958
  46.1984364  65.3248304  41.1613961  46.7526716  64.5755917  42.3704106
  58.4387955  58.4569381  42.1481805  58.8266153  59.1794014  41.6058397
  57.9804997  57.8780772  41.4586344  62.9205465  58.9130448  42.5624264
  62.6482172  59.8580560  42.7519217  62.5565630  58.8694933  41.6686350
  65.9482032  64.3383684  16.1274344  66.4883192  65.0384005  16.4502196
  65.2911666  64.2203643  16.8718132  63.3372829  79.1407867  11.6758260
  63.5127927  80.0727866  11.4728130  64.0560221  78.9361625  12.3116432
  66.7826327  51.4064565  37.7417731  66.5161867  52.1214345  37.1114904
  67.4820715  51.9500642  38.2152579  54.9557576  72.3492349  29.1653196
  54.3562131  71.5659451  28.9680743  54.4768948  72.7902001  29.9631262
  58.5953392  55.7277884  36.2159287  59.2035980  56.3748774  36.5974772
  58.6643112  55.0113191  36.9151483  51.9415025  67.7487581  30.7504352
  52.1947604  68.3411683  30.0327023  51.0917567  68.1277523  31.0032039
  44.9837103  61.2256255  28.7079058  45.7188339  61.8461900  28.5183507
  45.4241426  60.5587442  29.2749873  54.4772521  70.4822692  13.2721949
  54.2366387  70.9163319  14.0734782  55.4395130  70.2582477  13.5420534
  45.3173841  65.0454803  39.7966809  46.0186149  65.2265027  39.1554828
  44.5558476  65.3568092  39.3114140  42.6174272  61.1366445  22.6610997
  41.9976853  61.7363404  22.1821520  42.4883827  60.3028793  22.2113888
  64.3716973  67.7641610  24.4138897  64.4888084  68.4187986  23.6803876
  63.9755420  68.3708945  25.0774887  54.0532983  72.9580939  24.2607852
  53.3581076  73.6182386  24.4001250  54.7851177  73.3585254  24.7949844
  51.2336102  60.8132732  39.5820347  51.9721951  60.6686594  38.9266279
  50.9086190  61.6701390  39.3966790  41.4878650  61.5270323  34.9232989
  41.0955647  61.5260750  34.0384148  40.7192690  61.9017687  35.4492417
  72.4072517  67.2739008  39.4728085  72.6735480  66.3768321  39.2315307
  72.3843057  67.6918298  38.5090890  59.5159517  74.0000195  28.1067743
  59.3440164  73.3415598  27.3851608  58.5985408  74.3406042  28.1951102
  50.1184321  71.9903102  10.5174539  50.5979134  72.5300902   9.9022543
  50.8062599  71.6833792  11.1285421  49.8953083  69.1237092  32.0607329
  48.9998330  68.7514069  32.0265048  49.8404659  69.5934705  32.9356743
  50.0360707  59.8587578  44.3126782  50.0580234  60.8263577  44.3119158
  49.1274488  59.6616760  44.2798059  52.0339819  68.2266288  34.8556745
  52.5445648  67.8529834  35.5700510  51.3070115  68.7439287  35.2867667
  47.6646517  74.0796463  36.4001668  48.4058315  73.8186886  35.7907512
  47.9360849  73.4318096  37.1326465  47.7977595  71.9155151  40.5474624
  47.2604890  71.4251612  41.1878096  48.7069429  71.7958437  40.8412055
  54.6884657  65.6909499  34.5923998  53.8853620  65.8295863  34.0388030
  55.3735167  66.0440858  33.9275870  64.1428578  52.1954346  38.7351965
  64.8665550  51.5060487  38.4518062  63.4027649  51.6671129  38.3208670
  61.1016621  69.5633062  23.6046303  61.9350439  69.1399555  23.9063359
  61.0461149  70.3143525  24.2669452  50.1529144  46.2689004  19.4403887
  49.4401949  46.7150031  19.0046795  50.2837515  46.8633708  20.2147893
  46.5847006  56.8584402  24.8138620  46.8268445  56.1808738  24.1463188
  47.0826642  57.6357669  24.3212823  51.3386317  62.2798151  30.1289037
  50.8867771  62.1278077  30.9937816  51.7768719  61.3988747  30.0018749
  61.5654170  54.9776728  33.9434538  62.0960531  54.2316118  33.6199609
  61.0837387  54.5369895  34.6994776  58.5909875  58.0047959  17.8269993
  58.4701059  58.8352031  17.3312147  59.4152758  57.6595054  17.4513037
  57.3175029  58.9280837  25.5041143  58.1273174  59.2887388  25.0999067
  56.7242850  58.9378606  24.7345892  61.1416067  65.4151689  36.3079375
  60.7248689  65.1541966  37.1442081  61.8369667  64.7300074  36.2230185
  60.3175505  62.0215806  34.8524528  60.2021549  61.9147291  33.8689587
  59.5829864  61.5182554  35.2085450  62.7992138  54.3849945  26.8445754
  63.0998974  55.2185627  27.2747621  62.2412974  54.0005188  27.5219101
  61.8999422  71.1565941  32.9774630  62.5873726  71.5124675  33.6154243
  61.3988511  71.9918819  32.8463713  49.6249156  56.9757404  15.6318837
  49.6157221  57.2006248  14.6877156  49.7663630  55.9973496  15.6017047
  45.7452656  53.4827582  14.6336330  46.0637062  54.3153474  15.0442461
  44.8181517  53.7814471  14.4952224  59.3679342  64.6028926   8.1741660
  59.5072273  65.1728867   8.9018103  58.8660209  63.8351799   8.5148557
  51.7686239  74.5161244  13.8620554  52.3451549  74.7536571  13.0492608
  52.4342220  74.7881028  14.5689076  56.0843670  56.7619895  36.0140645
  56.9492438  56.4090587  35.8697301  55.9356081  56.5342661  36.9678061
  57.3593539  59.1796377  28.3076856  58.3578740  59.3675928  28.1811966
  57.0989099  59.2517303  27.3613587  58.7057806  55.7619074  14.9757873
  59.5999117  55.9895808  15.1688328  58.4060897  55.2412332  15.7427567
  55.5301378  73.3352339  17.4494240  56.0081601  73.6714385  18.2205275
  54.6584135  73.2889409  17.7806415  52.8124710  60.0607416  30.0268173
  53.7524664  60.4343903  29.8252340  52.7989840  59.3747429  29.2905375
  69.1144362  66.8452433  26.0499134  69.6317577  66.1081316  26.2925849
  68.2681090  66.7592720  26.5282263  58.4828674  59.8788501  38.3896294
  58.3773626  60.0737269  37.4466671  57.5816699  59.6663379  38.6547405
  59.8774498  57.8579811  37.5860339  59.2630553  58.5858716  37.9008273
  60.5509851  58.3366053  37.1344760  59.6802837  71.8535070  18.5210630
  59.2083639  70.9548697  18.3854501  60.0101321  71.9703186  17.5986522
  50.2015896  56.2886539  26.3818535  49.8878981  56.4006556  27.3288227
  51.1020762  56.0417321  26.5753364  63.9366315  72.4418640  14.8452356
  63.6201233  71.5001376  14.8479449  64.1924835  72.5891960  15.7724284
  66.8765751  62.7724904  34.6445986  66.3566629  63.0956657  35.4468698
  66.9609917  61.8363165  34.8955050  75.1991996  71.1654017  23.1248848
  74.8075910  72.0822760  22.9542171  75.9200326  71.4379591  23.7597893
  51.4756385  57.9229264  32.8772910  51.3798107  57.5162718  33.8145170
  50.6215309  57.5448461  32.5065874  56.6809760  70.0024024  26.4720401
  56.2311613  69.5120501  27.1901455  55.8512786  70.2030905  25.9038646
  53.5129488  73.1043011  31.3951833  53.7296551  72.5254262  32.1748148
  53.6376724  73.9845722  31.7820460  57.2488758  64.3297004  29.9123899
  57.4050445  64.9180638  29.1463400  56.4745362  63.8364246  29.6866562
  55.7875103  59.9227312  43.0594992  55.2308411  59.4100914  42.4099429
  55.3239014  59.6818638  43.8903792  58.8165684  53.0630993  27.6265987
  58.8584548  53.0161554  28.6013132  58.1701994  52.4251106  27.4015573
  50.1872827  62.8692248  44.6711690  51.0863790  63.0616874  45.1125907
  50.2953355  63.6341549  43.9928625  69.5201512  61.0918896  32.9499425
  69.8650808  61.8188526  33.4249542  68.9494607  61.4359834  32.2925830
  51.3051892  83.4028955  26.9372218  50.8742960  82.5903480  26.5421114
  51.4689500  83.9290183  26.1073955  53.5669445  68.8466199  45.0847295
  53.1717524  69.4670121  45.7447289  52.7230346  68.4925736  44.6592278
  47.7696485  75.5390713  15.8564857  47.6299329  75.8336142  16.7760438
  46.8421510  75.3580493  15.6019900  63.8288074  72.1620006  11.5826131
  63.1891212  71.4824681  12.0321973  64.2199790  71.5313390  10.9160033
  57.9641779  72.6604187  30.8358958  57.7990368  71.8592494  31.2672757
  57.2479856  72.7735409  30.2268875  50.8100408  57.3998939  35.4947365
  50.4135921  58.2179472  35.8330550  51.2589782  57.1441134  36.3508731
  57.8427003  71.2973365  22.3567965  56.8970776  71.2065318  22.6277099
  58.0011031  70.3167013  22.3983346  57.5109022  56.8680979  40.2253483
  56.7276975  56.7612788  39.6559347  58.1894432  56.3597045  39.7743558
  51.7522410  75.7563983  35.2889733  51.4683501  74.7826144  35.2576663
  50.8836709  76.1794981  35.3181499  56.9057130  59.9546410  50.5216500
  57.3586102  59.1257585  50.3528253  56.8780681  60.0044980  51.4867085
  47.1764324  62.7233063  27.6430883  48.0706753  62.9444252  27.4419366
  46.6918375  63.1114764  26.8773003  57.3876438  54.7298744  12.5694278
  58.3054855  54.8903547  12.8005825  57.0086530  54.4614824  13.4641380
  65.1703013  62.2785318  47.8471907  65.9714260  62.7237914  47.5543671
  64.6342366  63.0451471  48.0626843  47.0153785  65.3773783  37.6573517
  46.6539372  66.1234718  37.1316803  46.9698042  64.6452772  36.9423258
  51.4427147  63.4791181  32.9030662  52.1782517  63.0508629  33.3737484
  51.6966109  64.4106546  33.0482520  54.2723911  76.5161962  21.1268824
  53.4050107  76.1556171  20.8789426  54.0213538  77.3195773  21.6388247
  60.0718913  57.3290910  31.9096692  59.8755122  58.2596166  31.7248019
  60.5870137  57.0052696  31.1737800  67.2149674  68.0039796  20.7970234
  66.5776416  67.5602235  21.4351671  68.0370181  67.8575799  21.2446034
  51.6563576  80.9179968  34.0097408  51.9389297  81.0387493  33.0831113
  51.2453882  81.7648878  34.1938743  52.7529744  64.1875337  24.6094133
  52.9315259  63.4556006  25.2643958  51.8703206  64.4441255  24.9793431
  64.1890956  60.4563795  30.4813647  64.5284779  61.0105865  31.2569694
  64.8649788  59.7037735  30.6646613  74.1319685  68.4744490  29.9841641
  74.1756771  68.4981269  30.9594642  74.6641207  69.2472057  29.7554788
  54.6472176  68.3667036  40.5791484  55.2548335  69.1419520  40.4536156
  54.9950123  67.7579808  39.8855194  60.3223695  60.9247987  20.1989356
  60.6500257  61.2401586  19.3266243  60.5395100  59.9637621  20.1209019
  65.1101165  63.6077233  36.5402058  64.9081535  64.5260690  36.9705523
  64.2130304  63.5213200  36.1149733  63.3330011  67.9165142  36.2803938
  63.5931394  67.7534566  35.3193104  63.9524054  68.5847089  36.4704091
  55.9655191  74.7859736  25.3693290  56.5379042  75.4347122  24.8713244
  56.1741507  75.0583297  26.3017647  63.4569459  63.6182549  25.1562632
  63.5163097  63.9451362  24.2580234  63.5529629  62.6730120  25.0314637
  60.8888186  67.4244778  46.0135576  60.4938290  68.1423198  46.4904253
  60.2748972  67.4004790  45.2610408  38.9015168  62.1985156  35.3603078
  39.2197435  62.4708949  36.3001438  38.9451154  63.1692372  35.0512031
  49.1295020  79.6201378  34.2904748  50.0601979  79.9399695  34.3345206
  48.8023412  80.0399063  35.1026833  65.5179670  76.4034925  31.5693278
  65.3362873  76.1554215  30.6705814  64.8420063  77.0987534  31.6579420
  51.3531618  80.5863677  48.1637982  51.3573701  79.8070424  47.6555291
  50.5916898  81.0648525  47.8441321  48.1542500  59.9143723  25.4182618
  48.8067213  60.0013744  26.1224971  47.3400499  59.8394931  25.9205296
  47.6360410  78.3891299  37.2815902  47.8806808  79.3591548  37.0440924
  47.2123092  78.5945354  38.1333521  49.6072998  59.4751444  27.6153981
  49.6429227  59.1940249  28.5418224  50.5199478  59.3998781  27.3686617
  56.7373854  54.6488885  30.8685830  56.5393617  55.4309197  30.3170322
  57.0109416  55.0264105  31.7151690  54.5256360  61.8171900  23.3754345
  55.5061114  62.0949894  23.4477869  54.2030134  62.4806424  22.7769926
  60.0581013  64.9219752  21.4287435  60.6871573  65.6644146  21.6463395
  59.2372984  65.4696150  21.2561506  52.4801697  53.1566136  26.2199889
  52.2496494  52.9464947  25.3100725  51.7447145  53.7265266  26.4940537
  67.1512508  65.9853493  31.8182596  66.7355783  66.4532417  32.5498543
  67.2237661  66.6769524  31.1565660  70.1319166  51.6097074  45.0416352
  69.5872068  51.6559103  44.2273021  69.3641708  51.3203803  45.6724587
  57.3032951  60.8344542  31.4835372  56.7984181  60.1072545  31.9420446
  56.7820846  60.8438446  30.6603241  53.8110604  50.9650329  17.5547602
  54.0853444  50.7739329  16.6777484  54.6697704  51.2035011  17.9770550
  58.1035522  60.4264761  35.7885152  58.1883255  59.5228223  35.4275976
  57.2036614  60.6567423  35.4234257  49.3277067  54.8708636  30.9428685
  49.4182352  55.7076719  31.4672292  48.9023787  55.2569106  30.1585433
  45.8248096  43.6486353  36.1163203  45.9516708  44.4849084  36.6679531
  45.4321113  43.1014949  36.8107389  55.7479370  58.5237394  32.4989732
  55.1447241  58.0827081  31.8298596  55.0750347  59.2248665  32.8339564
  64.0153561  73.7807381  18.1069526  64.9234978  73.6121432  18.2247444
  63.5142787  73.4015950  18.8469204  50.0386586  60.3065278  32.3609727
  49.5056386  60.6686131  33.1150612  50.6449089  59.6809572  32.7361854
  60.0640110  67.1173800  28.9341755  60.5901964  67.1066286  29.7639588
  60.2576168  67.9946671  28.5612109  55.5235986  60.6056159  29.1512065
  55.5987284  61.3875965  28.5264303  56.3894339  60.1577165  28.9533020
  71.1106909  60.8824037  26.6647283  71.6032068  61.1202920  25.9168083
  71.3337309  61.4009674  27.4132458  57.4088401  64.2173134  11.8216223
  57.1779203  64.3624557  12.7189306  56.4789280  64.1906424  11.4367289
  41.2243052  65.7770560  28.7356196  41.7366076  65.6781374  27.9198095
  41.8706990  65.2931835  29.3558952  67.3263128  73.7225169  20.2820220
  66.4885719  73.1995284  20.5886055  67.2553863  73.3623955  19.3729408
  36.8000996  68.5690056  38.0314281  36.0235489  68.0127291  37.8784933
  37.0902683  68.6164783  37.0625840  57.2464247  70.9928928  37.0453217
  57.8695557  70.2167966  37.2947361  57.9553747  71.6175078  36.7818365
  43.4537307  69.5132282  30.9901578  43.0648187  70.1034690  31.7491787
  42.9409621  68.6707808  31.2692267  45.8505317  75.8285671  35.2820841
  46.7300224  75.4235934  35.5383864  46.0840797  75.8899398  34.3250225
  43.0649329  65.2491502  30.5882652  43.3266547  64.2750860  30.7186518
  43.5889586  65.4241708  29.7575873  61.1117224  65.0790630  47.4417402
  60.2385900  65.2100176  47.8770459  61.0844930  65.9230469  46.9171670
  51.0378891  66.6533548  38.6547903  50.9440314  65.9844562  37.8778458
  50.2213968  66.2736895  39.1680695  48.7962640  71.2638923  14.3867471
  49.6910305  71.0674413  14.0392114  48.8388670  72.2166740  14.5155365
  59.4041167  64.7874869  39.7566653  59.6020821  64.0370988  39.1316445
  60.3066583  65.0048963  40.1298481  60.3062185  71.0651813  35.5036296
  60.9018165  71.3324139  34.7878644  60.3855353  70.0841259  35.4521471
  60.2568484  68.3518996  32.3731753  59.3346869  68.2253218  32.6340131
  60.6183024  68.3782614  33.3108441  59.6513951  60.6055198  40.6771206
  59.3131028  60.5022865  39.7494214  60.4797821  60.0868197  40.5732333
  51.4915416  68.6197890  21.4815320  50.7395466  69.1513608  21.6923278
  52.0061291  68.6307504  22.3249677  65.9567309  55.4787891  29.9915434
  65.9403355  54.6032527  29.5807810  66.2352590  55.2758840  30.9220087
  50.5745149  69.5562179  26.3248872  49.7502064  69.4087945  25.9204380
  50.7337639  70.5039424  26.1702433  65.0029006  54.2025409  19.4750414
  65.7210116  54.4383683  18.8512268  64.5644339  53.5481124  18.9140822
  49.7858576  72.0853550  31.5604650  49.6831664  71.5220670  32.3589222
  49.0505171  71.6970455  30.9699522  52.3982869  55.2815365  30.5983531
  51.3593273  55.3397731  30.6032239  52.5356113  54.9431479  31.4516791
  59.2758707  59.9025254  24.0273821  59.3609533  60.6978564  23.4490003
  60.0995508  59.9714786  24.5196970  63.6539411  73.2105890  25.7365086
  63.9820888  73.0159464  24.8161499  62.9130567  73.8095066  25.5262242
  54.1080570  73.1978388   7.7261899  53.2064878  73.4196999   7.7588063
  54.2196194  72.5675721   8.4360588  64.5365614  69.6243247  22.6196059
  64.3783948  69.9233792  21.7364074  65.4210752  69.9845475  22.7459430
  63.0102753  54.1122901  21.5140758  62.8776596  53.9449201  22.4456725
  63.9722149  54.0241765  21.3392192  61.7244652  57.7880641  35.0692497
  61.1826543  57.2381541  34.4832744  62.2066384  57.1244298  35.5895331
  58.1129540  63.0974334  26.1934390  58.9064198  62.5227512  26.3603698
  58.5740993  63.9819585  26.3413014  63.6225383  74.7385218  33.5071036
  63.0733358  74.2408836  32.8143419  64.3093294  75.1157539  32.9592070
  70.4625002  66.5845600  29.7521408  70.3761407  66.2135895  28.8575412
  70.5981990  65.7587089  30.2342610  64.4710288  73.2728545  42.9086331
  63.8788580  72.6474581  42.4054867  65.1378086  72.6431060  43.2091327
  54.7448655  58.2936267  18.8703647  54.9659281  57.3546640  18.6482513
  53.8521390  58.2797454  18.4907398  53.4067432  59.6986982  32.7317411
  53.1754896  59.6598588  31.7816807  52.7348316  59.0921790  33.1290158
  64.6078191  65.4781145  26.4013180  64.0811433  64.8663927  25.8367051
  64.5751494  66.2647470  25.8938345  63.5582000  47.8707856  18.6662785
  63.8599442  47.0148279  19.0588860  62.6486274  47.6293270  18.4811285
  53.6253564  62.0960633  34.0262486  53.5059577  61.2740340  33.4766363
  54.6269925  62.0219144  34.1376899  60.4076967  61.7683564  26.4068434
  61.0474779  61.2441221  25.7918363  60.9519404  62.5191550  26.6098769
  39.2513505  67.4982649  29.7936814  38.5243476  67.5322493  29.1281273
  39.7867018  66.7234713  29.5022957  61.0967725  60.9539473  17.7273610
  61.3775375  61.7605216  17.2360765  61.8208776  60.3751524  17.5987424
  59.0765860  52.7919559  30.3836265  58.2039234  52.4351426  30.5775911
  59.6741841  52.2419222  30.8933591  54.1894147  55.5621666  44.1338682
  53.3636638  55.0817821  44.3884996  54.0097837  55.7523826  43.1795967
  51.1910719  67.4216911  24.4750976  52.0012207  67.8731747  24.2385747
  51.1436600  67.5918066  25.4403346  46.9437427  61.7292899  32.7176599
  47.7929356  61.8618997  33.1242386  47.1295687  62.0611674  31.7886324
  50.5389024  62.5768510  22.7706399  50.4691585  63.0163915  23.6617460
  49.7943354  61.9909306  22.7964208  58.3927080  69.4750958  18.2560598
  57.5572245  69.2785101  18.7838548  58.1206466  69.1150305  17.4078298
  67.8561229  64.1344893  23.1297754  68.6797829  64.5907133  22.8609060
  67.4119606  64.8556573  23.5864799  81.6296412  66.4038799  33.6803154
  81.7518030  65.9934108  34.5883013  80.6793776  66.4701756  33.5754267
  52.6102665  70.6175432  28.0637179  51.8391207  70.0783506  27.6975935
  52.1024902  71.1975660  28.6946075  60.9629310  71.5138419  25.3974812
  61.1955977  72.4211292  25.2070046  60.1344803  71.6379129  25.9303094
  56.7237739  56.0866973  18.5964677  57.4585018  56.6433095  18.4458279
  56.8735989  55.8516181  19.5636097  55.7128244  59.1649427  23.2469795
  55.3900138  60.0822181  23.2999185  56.2088050  59.1691290  22.4361337
  60.7177828  57.8942774  20.1950062  59.9394181  57.9180520  20.7948576
  60.9247848  56.9119340  20.1961532  53.3569727  69.0064791  23.5649922
  53.4758693  69.4349894  24.4142774  54.0482728  69.4030911  22.9733960
  58.8764101  68.1047725   7.7407309  58.8140217  69.0914461   7.6868541
  58.3240402  67.8700729   6.9754309  60.4865198  71.5196639   6.8485772
  61.0966073  71.9807585   7.4505674  59.8872511  71.0432095   7.4383080
  45.1467958  59.8192814  32.0567921  45.6274501  59.5740952  31.2114586
  45.7001015  60.6249438  32.3178568  76.2029075  65.6406554  43.8006095
  77.0198547  65.1968093  43.9570219  75.9227185  65.3005700  42.9335844
  62.1396761  63.9777431  27.3856324  62.7076762  63.8205885  26.5917725
  62.6764773  63.5161507  28.0464736  46.4001366  75.2920711  20.4419052
  45.7428115  75.0384020  19.7482898  47.1314194  74.8070513  20.0571534
  51.8296980  72.2782376  22.0419734  51.7182137  73.1148147  21.5247849
  52.2281975  72.4957470  22.8631328  66.9918856  65.8609518  27.5731730
  66.0468129  65.7804379  27.2475526  67.2488416  64.9186326  27.4735981
  72.4654431  89.1685693  28.3616481  73.3557086  89.2068348  28.7700192
  72.3371780  88.1993436  28.4166500  66.2451602  86.4924418  25.1830404
  65.6570190  86.7961250  24.4339644  66.4443264  85.5838247  24.8953180
  61.2933453  81.7658868  36.0313104  61.7731594  82.0486657  35.2014033
  61.7752239  82.2070344  36.7014143  72.0388065  61.5233494  45.6853241
  71.7122004  62.1007068  46.4589090  72.2221873  62.2539018  45.0571000
  60.2080609  89.4095085  17.7624216  59.8747846  89.4993813  16.8665538
  60.7794809  90.1527845  17.8526935  62.4194699  76.8577328  34.3691481
  63.2201316  77.3740102  34.5436732  62.8485422  76.0379075  33.9963447
  69.2938054  78.2750503  15.3534403  69.7818864  77.8805118  16.1340057
  70.0759629  78.7032776  14.9151802  64.9478978  72.1771147  20.6624687
  64.1082552  72.6300487  20.5287827  64.6563714  71.2347114  20.5002518
  76.9996100  79.5337444  37.3089984  76.2538368  78.8595395  37.3363326
  76.5414137  80.1739814  37.9798732  72.6519811  71.5163307  37.8195544
  71.9289321  72.0801278  37.4809673  72.8670830  71.9843731  38.6604048
  65.3261461  83.7905129  27.7300173  65.2758402  83.5350811  26.7696837
  65.4272112  84.7650049  27.5663806  75.2318057  75.6600120  23.4733133
  75.1412901  76.0808901  24.3749596  75.9095193  76.2554925  23.1113874
  69.2280986  74.5847441  22.7717378  70.0488223  74.0469017  22.7920726
  68.9099574  74.3630868  21.8452030  62.2159986  73.5518187  31.4496502
  63.0426915  73.2404276  30.9376995  61.8541443  74.1182554  30.7347662
  86.3989104  72.6656464  32.1858060  85.5271545  73.0760051  32.0577549
  86.1659995  71.7098984  32.2889146  67.6588685  85.3587179  35.7954289
  67.5682685  85.9735722  35.0222073  66.7811298  84.8644705  35.6205686
  54.8278327  72.5892081  34.0676050  54.6130263  72.9256434  34.9728450
  54.9253760  71.6132571  34.2324380  58.8859930  67.5491771  44.3318315
  59.0577441  66.6402245  44.0136789  58.1373808  67.7452628  43.7514402
  75.6519200  70.8212832  30.1978957  75.7282626  71.6655356  30.6176898
  76.0215809  70.2140606  30.7992143  56.2225273  92.0924889  27.3497288
  56.5868942  91.2698078  26.9339369  56.7393912  92.0415661  28.2124181
  59.3305111  86.3522105  27.9303262  59.2506649  85.7183731  27.1970148
  58.7082719  85.9193251  28.5612000  68.5273617  74.7133276  16.5821749
  68.9695232  74.1821674  15.8623267  69.2086044  75.4615630  16.6402469
  59.8369171  82.7665957  33.3088133  59.9107292  82.2348241  34.1275508
  59.8619138  82.0412430  32.6113219  56.4689023  65.1580670  37.3061334
  56.1169787  64.4778605  36.7416883  57.2825248  65.4947180  36.8186229
  66.7951255  76.3978284  23.5026092  67.1318189  75.9938975  22.7164734
  66.9021914  75.7689708  24.2448477  61.3550753  80.6842580  25.8870702
  60.9942495  80.4778168  26.7912181  61.3552724  81.6772098  25.9623034
  65.5266014  56.0171044  50.0290704  64.9247634  55.3398791  50.4317904
  64.9250481  56.6640633  49.6306514  71.7155652  88.5972078  16.7469173
  72.4269004  87.9028704  16.7375126  71.0158537  88.1078267  16.2061319
  62.7370176  63.6197188  41.8567919  62.3547853  62.7255018  42.0086883
  63.6408101  63.3822593  41.4408852  63.5199236  75.5991808  40.2681009
  63.0743540  75.3481997  39.4259477  62.7729407  75.3745847  40.8718128
  70.2679445  70.9199436  21.1720101  69.3721958  70.8343047  20.7497109
  70.8138750  71.2162148  20.4357826  59.1470055  80.9000686  31.5677772
  59.3481157  80.1495168  30.9066646  58.2964440  80.6251035  31.9234987
  72.7049767  72.1476914  26.5192540  73.5492611  72.1076547  26.9722200
  72.6831646  71.2349755  26.1269281  70.3295208  64.2942615  22.4171086
  70.9039227  64.0714582  23.1628135  70.5651376  63.5625297  21.8021626
  61.5012959  60.2923699  30.9271447  61.0458932  60.8483614  31.5796932
  62.4089450  60.6754740  31.0035952  64.8388693  72.7650201  23.4619562
  65.4356244  72.0793868  23.8236694  64.8948673  72.5656583  22.5005326
  55.2206448  80.8373659  27.2434078  55.3277164  81.3670732  28.0370695
  56.1469989  80.8584152  26.8751356  61.2846299  82.7886009  16.6378215
  61.0705258  82.7932884  17.5934744  60.5149947  83.4037048  16.3612111
  57.6199990  64.4001006  33.6503864  57.0958846  65.0787407  33.1573498
  58.4069200  64.3334358  33.1095016  65.2477897  80.5312834  23.5654270
  64.3002394  80.3931029  23.2753921  65.5445211  80.9777639  22.7653578
  62.6990567  62.9961172   9.9744908  62.6867304  63.3710425  10.8901536
  62.4645798  63.8634528   9.4891927  81.3753672  68.3095752  19.8081822
  81.6847661  69.2256986  19.9433967  81.2919609  67.9806777  20.7328223
  65.2685433  72.5270378  27.7746800  66.0973755  72.9620421  27.6075439
  64.7089902  73.0350870  27.1222396  67.5310337  76.8342748  20.5257476
  66.9039278  76.8651474  19.7527742  67.6689024  75.8220342  20.5209787
  71.1294517  84.7945747  19.0554602  70.3198226  84.4768455  19.6226264
  71.1859971  85.6663928  19.4572690  65.0769023  70.0022986  36.9092630
  65.0469200  70.9434321  37.2218184  65.6246490  69.6121829  37.5935919
  61.8782408  78.7315862  42.6119926  62.7299533  79.1342862  42.9593875
  62.0697764  78.7298597  41.6717451  61.4329840  71.4881778  29.1343478
  60.7674451  71.0443773  29.6561203  61.2234498  72.3880446  29.1975252
  68.0155841  77.5081275  36.7394207  68.9819872  77.5269627  36.9955296
  68.0670228  77.7478512  35.8146096  62.2486939  76.5633858  26.6448594
  61.8409806  77.0075868  25.8917730  62.6529646  75.8150181  26.1391496
  60.5820517  68.3468555  35.5661065  61.4698863  68.1233716  35.8788487
  60.0941986  67.5063539  35.7903549  68.2992776  75.4898370  32.3650181
  68.6711347  75.8086025  31.5532886  67.7621031  74.6949968  32.1047503
  60.7681062  69.2192267  27.2493963  60.6076995  70.1012294  27.5341454
  61.6824158  69.3295457  26.8680577  67.0946116  72.0405015  34.3945460
  67.2808920  72.4223724  35.2661793  67.4221430  71.1082747  34.5941527
  64.2485530  83.6087367  37.8657253  63.2955997  83.6903763  37.6733827
  64.3545379  84.2198880  38.5991092  59.7344323  77.1735088  33.7928585
  59.6855277  76.9776148  32.8683888  60.7038116  77.1330651  33.9574320
  53.2767575  64.0383509  38.9957119  53.8378997  63.6015982  38.3687962
  53.6180124  64.9685718  38.9178857  52.0598209  70.9235999  35.3094039
  52.2328374  69.9909087  35.1865647  52.9479694  71.1452682  35.6291690
  51.6838413  72.7278309  29.5079039  52.3820156  72.8931445  30.1356021
  50.8746991  72.6014639  30.1602800  59.9940222  72.3257102  21.0648859
  59.1381410  71.9441620  21.4298406  59.8282279  72.2504919  20.0972162
  66.3076319  76.8218887  18.0313429  66.9306298  76.1716690  17.7390604
  65.4807372  76.4988965  17.5562641  72.2254792  71.4292517  19.2844676
  73.1062527  70.9446419  19.2497004  72.5916303  72.3015436  19.6671383
  78.7864133  70.0491927  28.9364521  78.1138424  69.3318108  28.8263350
  79.5962534  69.5058950  28.6956707  80.6349642  84.9718735  42.3586315
  80.0807366  84.0963633  42.4529153  80.6486135  85.1470409  43.3098661
  70.4037363  76.7261937  24.1582530  70.0603554  75.8478731  23.8518255
  70.3425239  77.2569555  23.3567002  62.8824775  74.6141450  37.9900149
  62.2553967  75.1514055  37.3974720  62.9317652  73.8094606  37.4734905
  60.7073248  72.5664334  40.2120844  61.0611618  72.3292127  39.2998901
  61.1661070  71.8364428  40.7122745  69.6788950  68.9383385  37.8153789
  69.0219246  69.5296019  38.2106696  70.5248542  69.4053672  37.9722177
  55.4063933  72.9377461  11.7257681  55.6378278  72.9833809  12.7009102
  54.9476867  73.7818837  11.6995341  63.4641407  65.1070401  43.9154539
  63.0008832  64.8033876  43.0945521  64.2433124  65.5422966  43.4441685
  57.8527324  74.0188714  22.0075905  58.4943322  74.4784116  22.5360379
  57.9788955  73.0878380  22.4275400  66.0136182  69.6506122  29.8501449
  66.3733186  68.7815546  29.7401189  65.1814500  69.6216903  29.3285146
  57.3867365  66.2705907  18.5541656  57.1112785  67.0956789  19.0416520
  56.8161716  66.3550320  17.7686036  59.7073144  61.8323714  32.1839982
  58.8159728  61.5044293  31.9238592  59.5761899  62.7838776  32.0182035
  62.5935444  63.5001753  35.0389670  61.9158675  62.7842420  34.9459125
  62.6916706  63.8154757  34.1339098  56.7143667  74.4477656  33.0221954
  56.0291118  73.8674937  33.2671716  57.2855693  74.4785361  33.7982894
  78.4870409  72.0637463  30.8535241  78.6635042  71.3836168  30.1443678
  78.5774197  72.8757199  30.2901812  70.6972857  72.9482886  36.8914679
  70.2357957  73.1034103  37.7532276  70.1162026  73.5119116  36.3355404
  52.3477486  75.1406907  23.4814449  52.1623172  75.3325637  22.5147810
  51.7749841  75.8401677  23.9105229  72.5947608  66.6667938  21.9632888
  73.0050238  66.2749004  22.7092448  72.5938353  67.6338357  22.1655543
  59.1947540  78.9845300  29.8931557  59.6280562  78.1974387  30.3574391
  59.9142819  79.1797529  29.2954718  56.5476208  82.0858793  29.8177313
  55.8026005  82.6971535  30.0493593  57.3207056  82.6448502  30.0874075
  56.4695907  66.4823508  32.5410460  55.8487366  66.3039570  31.8043484
  57.1938406  66.9249489  32.0417585  74.6364126  76.8070683  29.6372583
  74.4010833  76.4351003  28.7247918  73.9723491  76.3412976  30.1891463
  46.0270353  83.9785612  35.6980472  46.4284563  83.1634213  35.2083287
  46.7986355  84.2299448  36.2397626  69.0840270  89.3769886  25.7978411
  68.9556142  90.0309071  26.5091924  68.6818861  88.5711990  26.1416919
  72.1278016  75.2485405  34.0460994  72.5389175  74.3045330  34.1309213
  72.1423317  75.3102602  33.0345386  68.0534878  71.3690842  30.2462525
  67.2733473  70.8049398  30.0747791  67.5803890  72.2603471  30.3730269
  70.9142275  79.7623809  27.9924908  70.0565710  79.6858089  27.5471907
  71.5237245  79.5640879  27.2616886  64.5287272  79.6689728  18.4313150
  63.8239879  80.1868140  18.9181699  65.2299936  79.7543078  19.1004816
  63.0014278  61.8378396  37.9371538  62.8307808  60.9248584  38.1595227
  63.9090698  61.8980216  37.7419703  57.9814807  72.4893065  10.3780381
  58.4426569  73.2270373  10.8063020  57.0860621  72.6447578  10.6992764
  49.5618926  74.1409483  24.6044841  48.5850544  74.1725000  24.3357306
  49.7830626  74.9459683  24.0742728  78.9062612  79.4732534  29.1331251
  78.5341293  79.6269376  28.2358938  78.2745491  78.8157970  29.4752138
  65.1508833  90.7803458  34.5769284  64.4618113  90.9393647  33.8797387
  65.0816520  89.8271027  34.7337738  77.8233118  73.7627101  39.0365001
  78.3792978  72.9431397  39.1564577  77.0173866  73.3340468  38.7315496
  68.6409672  74.2074523  25.4155968  68.9102445  73.9737337  24.4997728
  69.5257625  74.3423053  25.7947354  59.8631242  78.2270661  15.5833651
  60.6139013  78.2194523  16.1821676  60.1389602  78.9870243  14.9821658
  66.6967954  70.6380936  24.3234231  67.5402864  71.0110695  24.6294474
  66.3246691  70.3216284  25.1994958  73.8362960  57.9182689  39.5974007
  73.9017412  56.9583420  39.6857966  74.7584212  58.1898961  39.8601650
  64.6493525  77.9831061  13.8415112  65.1787211  78.0715609  14.6672648
  64.1180943  77.2284374  14.0685099  59.5443633  70.2972716  30.4468167
  58.5496963  70.3798462  30.5736333  59.7426843  69.5379931  31.0512060
  73.2784307  79.2599743  20.0735908  72.5484565  79.5306283  19.4257138
  72.9996552  78.3489737  20.2164858  77.7009231  73.7759694  25.8734957
  77.6918816  73.5483412  24.9209531  77.8579522  72.9703886  26.3229464
  63.1619543  68.7821463  31.9003766  63.1889404  69.1145381  30.9665298
  62.6237941  69.5113796  32.3011070  65.6878383  80.8674595  34.0177038
  66.1960798  81.1563154  33.2413235  65.4242079  81.7494850  34.3807362
  43.9829701  82.8993058  38.0272609  43.2911826  83.2807755  38.6107434
  43.3492635  82.4252580  37.3596586  61.3952619  79.7505172  28.5732331
  61.8924724  80.4554902  28.9926475  62.1019858  79.0628444  28.4491187
  63.7538235  78.5598885  30.8753765  64.0401972  78.3792636  29.9614553
  63.7571292  79.5377725  30.9161799  76.8843415  78.0025644  30.4603627
  76.1653472  77.4489859  30.1639839  77.4913035  77.4216759  30.8994815
  73.0054716  70.0695677  24.4602248  72.3876069  69.8011484  23.7784652
  73.8775740  70.0327465  23.9643674  73.4765136  83.3619753  26.8987256
  73.1762637  82.7645072  26.2271134  72.8699942  83.1078562  27.6378087
  76.7993721  84.2299669  17.2861802  76.2954079  84.9854110  16.8924030
  77.6038080  84.2329767  16.7414914  50.6530285  73.3939140  35.8375939
  50.4443756  72.8566071  36.6590080  51.2122455  72.7218645  35.3362452
  58.5216266  72.2119800  14.8313765  59.0578767  72.8111829  14.1671820
  59.3409554  72.0422376  15.3899837  71.0218915  72.6930804  22.8957097
  71.9822434  72.6478399  22.9781529  70.8624068  71.9270170  22.2464322
  47.1279541  75.6014248  32.9030667  47.9787733  75.1330103  32.5873895
  47.3129940  76.4766471  32.5141236  28.7095625  -4.2902846  22.0869092
  28.9049677  -3.4420520  21.7086070  28.8988151  -4.0868820  23.0432566
  28.9091812  10.1775324  13.1300255  29.5459996  10.2869167  12.4063106
  28.8821132   9.2048877  13.2403314  32.6016166   9.8254140  14.1769084
  32.7498457   9.5429756  13.2553105  33.1897295  10.5692967  14.2487652
  20.8624597  16.5724660  44.2502637  21.7409238  16.9202511  44.4522064
  20.3859541  16.9627667  45.0062198  30.9393249   5.3964463  24.3097832
  30.6964787   5.8485787  25.1905337  30.2444147   5.6301801  23.7388293
  19.9890372   2.5575852  28.0862604  19.9157764   1.9085551  27.3093881
  20.0459926   1.9402137  28.7772135  29.5368698   7.8846415  23.2827911
  29.0502154   8.5609714  23.7644230  30.4501053   8.2098046  23.2922716
  20.5510351   6.3674851  23.5409224  19.7302936   6.8263978  23.7166683
  20.3327509   5.4075129  23.7090933  28.7025150  -3.2033542  24.5202189
  29.1670374  -2.6943851  25.2818527  27.9314935  -2.6386809  24.4527493
  29.5752665   5.1919567  21.5925914  28.5985283   5.3037576  21.6046326
  29.6467293   4.2777608  21.8723438  25.2009365   8.4864777  12.7333851
  26.0953551   8.1652839  12.9755813  25.1443511   8.0206317  11.8442597
  29.1019787  -9.3991437  15.8202279  29.1815563 -10.3670806  15.6199729
  28.2406153  -9.4525649  16.3618360  16.9123063   7.0518346  12.0465082
  16.5543946   7.4068002  12.9009300  17.8286718   6.9001285  12.3922619
  32.1177233   1.0301383  26.1288943  32.9902778   0.6987457  25.8630925
  32.4122198   1.7431185  26.7688013  44.8335364   3.6894653  14.8305357
  44.2805289   3.9133485  14.0359224  44.3938879   4.0951814  15.5887253
  24.1839025  12.2170336  33.0508068  24.0474859  11.7409466  33.8698775
  24.1292599  11.4411912  32.4157098  37.9958683   0.5787332  20.0858162
  37.2041577   0.0540725  19.8138914  37.6808647   0.9818972  20.8812502
  34.8523367   0.8605278  31.2959547  34.1910064   0.5505909  30.7200949
  34.8525147   0.1254273  31.9737204  21.4531815  -4.1416222  36.2845840
  21.3600751  -5.0229069  35.9087535  21.3060206  -4.3101291  37.2344130
  43.8826809   3.6141982  29.9316801  44.8335029   3.6287673  30.0449683
  43.5176394   3.8292712  30.8206025  31.8350165  -5.1480831  27.7440308
  32.5980349  -5.6873441  27.9090855  31.8153238  -5.1485709  26.7398015
  26.5849957 -10.1546800  26.4863862  26.5715244  -9.5592839  27.2359887
  26.5673483 -11.0572150  26.9344501  17.5490437   6.7095821  32.8774173
  18.4726335   6.5998399  33.2252722  17.1287119   5.8778198  33.0757170
  26.7564982  -4.9835734  31.6754314  26.7915210  -5.9702243  31.7136582
  25.8304504  -4.8566344  31.3785124  30.4919017   2.0145324  24.0657364
  30.2094364   1.2322278  23.5160221  31.0511236   1.5127041  24.7428604
  36.2309911   9.0693524  12.2880997  36.9886764   8.6898455  11.9246954
  36.5095948   9.6023949  13.0437999  43.4826671  23.1805649  21.3848380
  44.0486778  23.2806984  20.5936402  43.6647711  23.9397970  21.9200846
  40.2203686  12.9369693  19.5341961  39.8734807  13.4732554  18.8049838
  41.0207297  12.5624555  19.0028840  30.7121919  10.6492471  17.1652907
  30.7201698  11.0908844  16.3330808  30.6063824   9.6873608  16.8732070
  43.3472001  19.0671916  22.2041106  43.8213144  18.2706260  21.9425075
  42.3889702  18.7959881  22.1436850  31.4968006  23.6889847   2.4184800
  32.1283115  24.4585278   2.5969943  31.8385806  23.3843225   1.5841396
  50.0766637  26.7285394   9.9597825  50.8950842  26.4427224   9.6657470
  50.2861028  27.4536097  10.5740052  31.6314603  18.5154464  28.0359653
  32.0697483  17.8868395  28.6207171  32.3447161  18.6981160  27.3721042
  28.4401513  16.7185342  15.6134117  28.1965568  15.7755106  15.6070682
  29.3391904  16.6056118  15.2317451  40.5841110   6.4553651  14.3446802
  39.7937519   6.5644013  13.7959201  40.1291246   6.0944345  15.1711197
  50.6155920  11.9834460  11.4431023  51.4389770  11.5653026  11.1942019
  50.1213253  11.2146320  11.8023972  34.4385308   5.2616409  14.6215479
  34.7115145   5.9678061  15.2646322  35.1014870   4.5845075  14.8201609
  37.0386691  17.0345383  13.3978396  36.1006003  17.3246760  13.1361204
  37.1110092  16.2571210  12.7596922  39.6230184   2.6355208  28.5250335
  39.0877885   1.8134410  28.5039491  40.4903107   2.3757336  28.1202404
  38.4096128  20.0349731  18.5499270  38.8757345  19.8151254  17.7402972
  38.5063086  21.0360672  18.4976253  34.9445945  15.8030392  18.7418596
  34.6620222  14.9441716  19.0085957  35.0514387  16.2864239  19.5889743
  45.8436680  12.7952306  27.1030090  46.7441117  12.8289996  26.7038043
  45.3411647  12.5849332  26.2455026  30.2794394  15.3442071  11.4615613
  29.2930775  15.4510941  11.2575497  30.5864182  15.6479770  10.5917119
  28.9518962  24.2554809   3.8383195  29.6496542  24.1039894   3.1721068
  28.2260903  24.5307700   3.2632503  42.3253306   4.7677240  31.8619042
  41.7082569   4.7573504  31.1424000  42.3634288   5.6894427  32.1588876
  44.2257196   0.8946868  25.0751760  44.4049560   0.2207571  25.7428807
  44.4591066   0.3270073  24.3031724  39.6956380  20.6884501  30.9704020
  39.9580630  21.4782520  30.4398541  40.2674026  20.0002643  30.6386844
  43.7901404  20.9879158  24.0580161  44.2468550  21.5800441  23.4152104
  43.7686485  20.1572338  23.4986395  26.6854463  13.5587880   2.4192787
  25.8909071  14.1287687   2.4222314  27.3031409  14.1662284   1.9474730
  31.2185221   7.0135635  20.3273266  30.4031218   7.3718620  19.8731675
  30.7559768   6.3286278  20.8595837  43.9434627  25.4602352  17.8005488
  44.4202409  26.2680582  18.0073696  43.0416898  25.7361107  18.0702907
  29.7028646   3.1739576  31.2806252  30.1613350   2.5499356  31.8392246
  28.8970667   2.6720944  31.0525760  44.6496154  13.9863260  31.0172154
  44.0362618  13.3626455  30.7346567  44.9114281  14.4120435  30.1566775
  32.2045898  21.7343682  13.8134547  31.3301960  21.3555584  14.2196114
  31.8137045  22.4916536  13.3560466  35.1628349  26.6398010   0.2226287
  34.3083602  26.1867735   0.3575410  35.7818109  25.8467163   0.4379680
  36.2049476  26.4465905  13.8628444  37.0835912  26.1235724  13.5750951
  35.6302682  25.7483595  13.5259651  35.6139425   7.2317342  26.5358852
  34.8040261   7.7440901  26.5774361  36.0462115   7.3818568  27.3616182
  23.7654059  23.2010372  25.1238548  24.1154324  22.5582089  25.6983630
  22.8368256  23.3198851  25.4215580  36.1698878   4.5502849  25.4753435
  36.1673368   4.5767097  26.4501527  35.7395946   5.3664875  25.2400279
  41.3955564   7.8709301  22.9654755  42.2340786   8.0476871  23.4663974
  40.8620195   8.6909214  23.2164836  21.6647552   6.0034436  20.9214382
  21.8804383   5.0565614  21.0246213  21.4282622   6.2417790  21.8450070
  36.4930835  12.2946129  16.6136109  36.4617430  12.8975744  15.7873302
  35.6595987  12.6724538  17.0381326  35.6992345  15.9917350   9.5142489
  35.8759485  16.2082289   8.5518106  34.7299942  15.8356295   9.4404023
  25.0795732  11.0735824  28.9126822  25.4779783  10.4794277  28.2376101
  25.0007315  10.4515558  29.6445413  34.9046750  17.7586472  11.7727683
  35.4159993  17.8457930  10.9345858  34.5476560  16.8586734  11.8254282
  36.9295039  25.4354208  10.0224581  36.8550263  25.4520136   9.0588613
  37.9103838  25.5257464  10.1430877  44.7988882   4.7186702  22.0409295
  43.9308430   4.9168412  22.4501151  44.5845830   4.3873803  21.1826269
  22.2024874  26.5829620  24.9478836  21.5594162  25.8967148  24.8804020
  22.9332572  26.2648726  24.3687502  38.8926668  15.7066441  15.1482510
  39.5003607  15.2646502  14.4480542  38.2413061  16.0854821  14.5886533
  41.5533234  23.7470925  15.5436504  41.8389884  22.9583283  16.1379663
  40.5737848  23.6013516  15.6106517  36.1998756  23.1535418  30.9932317
  35.3894798  23.6580702  31.3187705  35.7348372  22.7526805  30.2125854
  33.4680537  20.3756555  30.4039846  33.0447448  19.7209909  30.9946980
  32.6782540  20.8690297  30.1288388  37.5967861   7.5936931  17.3232712
  37.8555284   8.4839266  17.6495846  38.4934540   7.1572411  17.3025406
  34.0060331   8.4859642   6.6010232  34.8886232   8.6288233   6.9649123
  34.2079498   8.3788846   5.6590203  27.6046950  -0.6082772  19.9865782
  27.2722809  -0.4931251  19.0907495  27.2206013   0.1592922  20.4214579
  41.2385202  15.7336394   7.7217329  41.2576703  14.7665508   7.5209930
  40.3061731  15.8438655   8.0681082  41.1645188  15.9396699   1.7627423
  40.5389468  15.9872936   2.5280159  41.1902722  16.8284860   1.4550761
  40.7394961   6.6829388   8.6685989  40.4891716   7.6262087   8.4832120
  40.3479223   6.6132311   9.5414457  46.0864685  11.0898659   7.2905267
  45.9333562  10.2828131   6.7187608  46.8537989  11.4493741   6.7640541
  52.7244736  15.7662857  11.8948075  53.0473505  14.9422216  11.4668955
  51.9105134  15.4491366  12.3587361  36.5783160  11.3878184  20.8573444
  35.8138223  11.8156720  21.2371605  36.1519834  10.5454147  20.5503523
  44.4686625  18.5884181  17.8001021  44.2218266  17.6895141  18.1527614
  44.2215833  19.1527000  18.5613716  49.3185778  15.6390131  10.5595213
  48.9663411  16.5713351  10.6135580  49.3960826  15.6303637   9.5443830
  45.3672693  14.3687578  18.6297903  46.3211744  14.4928114  18.6531121
  45.3132022  13.4013626  18.3969759  40.5239964  14.1241647  -0.2491623
  39.8373086  13.6313656   0.2187384  40.8533817  14.7605678   0.4649293
  29.3067242   8.7977182   5.2871129  30.2621464   8.6125814   5.4764553
  29.2444319   9.7275731   5.4796018  31.3195912  10.9837256  25.3725605
  30.4992019  11.0445253  25.9076360  31.4059393  11.8588982  24.9929221
  27.3261498  13.8320540  25.6354811  27.9528628  14.6019448  25.3750952
  26.6707145  14.3839024  26.1682504  41.6822076  12.5243287   7.4987950
  40.9435632  12.1301921   7.0044742  42.3901530  11.8570849   7.3526102
  30.1431346   4.7740798   6.1822194  29.7544216   4.6574973   7.0833349
  30.9222234   4.1602589   6.2962169  42.6448189  21.6556639  17.0538116
  43.6249939  21.4618038  17.2086940  42.4189773  21.8685219  17.9851331
  47.4305829   8.9089220  18.4288046  47.2179824   8.0804277  17.8248301
  47.9665993   8.3864302  19.0688088  43.9382521  24.6140162  25.3054940
  43.4253619  24.9324892  24.4674559  44.7591356  25.1644985  25.1778721
  38.0278495   8.6269934  26.5702496  38.1801156   9.2989679  25.8569667
  37.1959751   8.2152743  26.1147793  47.6069281  24.7950760  15.4960278
  46.6734426  24.4711253  15.4782836  48.0580734  23.9752175  15.1695926
  30.9773787  -6.7621653  29.8522036  30.7475459  -7.7083608  29.8395595
  30.7897599  -6.5171701  28.9401309  43.0658814  18.6441725  27.2808119
  43.2495213  18.7834108  28.2288351  43.8596370  18.0851265  27.0416837
  42.2949710  12.3915792  10.6703431  41.9663019  12.1508087   9.7828957
  41.6038065  13.1044587  10.8906850  37.4582154  15.1700964  28.3003455
  37.0193164  16.0157657  28.5595475  37.7791593  15.3534187  27.4066117
  32.5672523  23.9293760   6.6132425  33.1120548  23.3468036   6.1009237
  31.7448615  23.3547282   6.7475079  33.4139697  13.1018480   3.3424684
  32.7803343  13.7261238   2.8743008  32.7726867  12.4005418   3.5363832
  31.6010601  17.1345860  15.0551360  32.4461201  16.8090889  15.5483994
  31.2526675  17.6076985  15.8229595  32.8408476  16.1758819   9.2990293
  32.5371550  15.7240979   8.4520052  32.3811629  17.0437733   9.1620622
  39.9967619  26.5256706  22.3317885  39.8633370  26.3300273  23.2991123
  39.0862874  26.8474346  22.1939498  34.5391227  10.0190220  22.9300093
  34.8602596   9.7166250  22.1076560  33.5560430   9.9844189  22.8591579
  31.3335164  19.3284155  21.6074011  31.4244520  20.1117997  22.1620873
  32.1833132  19.3386631  21.0989757  37.8622006  18.7028084  26.6733293
  38.7355333  18.9065043  26.2532135  37.4417596  19.6079237  26.4767080
  31.5123201  10.0545757  29.0637626  30.5208858  10.0541885  28.9917129
  31.6649600  10.9170247  28.5303320  33.6676284  13.6671858  20.4032222
  32.9639189  13.0632491  20.7567498  33.3555819  14.5339124  20.7579013
  43.6928232  28.9522904   4.8489542  43.9682610  28.0024095   5.1614133
  42.9764434  28.7109649   4.2098547  43.1957957   4.0603932  27.1856084
  43.1987034   3.9917278  28.1700228  43.9569621   4.6409460  27.0151922
  45.5380724   9.6900727  20.3195834  45.9017768   9.6779687  19.4057432
  45.9933509  10.4349306  20.7307064  42.0858129  15.5779779  24.0191852
  41.3724419  16.2603528  24.0638809  41.8659155  15.1693065  23.1441576
  42.7332724   0.7534895   6.2968601  43.6505645   1.0963745   6.2381475
  42.3336916   1.5025045   6.8263546  45.0200894  14.2931424  13.4899995
  44.7892523  13.4743445  13.0075907  45.7818660  14.6121801  13.0091929
  41.0078963  14.0428898  22.0865031  41.0004750  13.6292245  21.2320867
  40.0816092  14.3793472  22.1672394  36.0601223  28.1179911   9.7927063
  35.4039437  28.1561669   9.0308596  35.9906364  27.2134791  10.1058708
  43.5674932  16.8848173  12.7808757  44.1507702  16.2645385  12.2510314
  42.7807650  16.8394695  12.1783394  27.9883095   6.5312852  16.2979904
  28.8730647   6.1746275  16.1162418  27.7783219   6.1303281  17.1723894
  42.4369169  14.4032768  14.7596948  43.2763374  14.3607755  14.2676268
  41.7636422  14.3684321  14.0208281  46.7640876  20.4907278  15.4272907
  46.8986280  19.5570093  15.8146445  46.2624904  20.8598652  16.1852164
  34.2267203  28.2749024   7.8257381  33.7617421  29.1815603   7.8719041
  33.5296776  27.7675065   7.3695608  27.4243373   6.4820476  23.9017683
  28.2317737   6.9098061  23.5324553  27.7606270   6.3012601  24.7977412
  32.0776339  27.1125118  14.9182788  32.5847346  27.9714340  14.8655444
  32.5270826  26.6869734  14.0965610  31.6514750  23.0537257   9.6296989
  31.1640387  23.8823796   9.4468365  31.4697905  22.9429447  10.5595876
  32.6746656  35.2200985   6.8608610  32.0260044  35.9648342   6.7049270
  32.8987598  35.0328397   5.9051159  24.0124118   9.5092428  23.5033338
  23.3017055   9.7321483  24.1661479  23.9426778   8.5344230  23.5359469
  29.9262348   3.7106883  18.2435569  30.8135025   4.0717758  18.1807969
  30.0443840   2.8520737  18.6848312  31.0555865  23.1041892  36.2457440
  30.3747865  22.4340681  36.4706412  31.6556745  23.0367095  37.0046945
  49.2232540  29.1265824  17.9017026  49.0545377  29.0543311  18.8426132
  48.6195132  28.3787106  17.5746805  32.2795066  16.2291574  21.3422487
  32.4973788  17.0738423  20.9297931  32.4008505  16.4791974  22.2998763
  37.3359908   8.8017444  23.6244093  36.4212677   9.0037033  23.3056326
  37.6260761   8.1395923  23.0448980  33.7511984   4.3496565  40.3475385
  33.9746921   4.7581370  39.5031001  33.0028963   3.7360497  40.0131162
  41.5658483  15.4183701  17.0033076  40.7001846  14.9757492  17.0387632
  42.0328085  14.8357355  16.3329598  42.0471836  12.0740664  17.8484702
  43.0153520  12.2301289  17.8723007  42.0084291  11.1454380  17.5418528
  33.9570208  12.8365842  17.8518520  34.0312445  13.0669902  18.7927890
  33.5702702  11.9271357  17.9672901  44.6139059   5.4593805  10.6959048
  44.0643612   6.2196526  10.9444086  44.2275443   4.7254126  11.2061156
  14.7431331   7.6710883  20.6729332  13.9974584   7.9407426  20.0832630
  14.2793944   7.9800886  21.5213805  32.9288910  14.0586015  15.4324259
  33.2781914  14.9743863  15.6298517  33.1969701  13.6089090  16.2938684
  38.0115162  15.9343383   1.5903571  37.8512353  16.7796465   1.2607464
  38.6164477  16.1934918   2.3874123  49.3684355  19.4643054  17.5904410
  49.3786752  20.3181032  18.0417786  48.4560765  19.1096665  17.6444652
  24.5277410  14.5161923  16.4055951  25.4920801  14.4751136  16.5268556
  24.2526095  14.9591653  17.2541630  51.2364214  27.1075436  13.8627352
  51.0738752  26.7658431  14.7596321  50.6000631  26.5220508  13.3696096
  37.0668782  20.5560185  10.8943095  36.3647506  20.0146729  10.5424249
  36.6941391  21.3988256  10.9837419  33.3422570  14.3703656  23.6438596
  33.6539324  14.3213466  24.5771594  32.4202809  14.0499227  23.8228919
  43.4391658  16.1596066  18.6434791  42.6985876  15.7709482  18.0414695
  44.0978595  15.5059804  18.5007462  14.4506359  17.1455117  21.8020050
  14.9171916  17.3481120  22.6212326  15.1629090  16.5319915  21.3867047
  40.5171900  14.7014224  10.6478275  40.9818077  15.5885236  10.4132065
  39.8263005  14.7595815   9.9886600  27.6788291  22.9180454  12.6649546
  27.6737400  21.9597068  12.7864851  27.9654796  22.9326020  11.6952979
  34.5533778  27.8430514  -2.2622974  34.5579889  27.1303737  -1.5504388
  35.1620378  28.4917143  -2.0020266  13.1182966  32.9159864  16.9708132
  12.9519433  33.5517175  16.2520491  13.0869059  32.0810106  16.4618244
  32.3061627   8.1183511  22.5567651  31.6627638   7.9401902  21.8679266
  32.9783070   7.4475126  22.3568785  45.3238110  17.4398477  26.7585232
  45.3609570  17.1213058  25.8148809  46.1947305  17.0531508  27.0963869
  57.4616092  11.8226974  19.3661432  58.3072340  12.1866369  19.1188222
  57.6177391  11.2773350  20.1749987  38.8708901  12.1192664   3.2782673
  37.9625823  11.9468870   3.6238282  38.6414652  12.3704502   2.4081223
  34.1827238  24.8451934  32.0917975  33.8158130  25.6602871  32.4262121
  33.8206494  24.1671167  32.6909863  24.1360876  28.2996552  19.8209124
  24.0806523  28.8769574  19.0466532  24.6571543  27.5486251  19.4193845
  48.3647664  13.3955481  29.9503554  49.1554605  13.4204618  29.3821977
  48.2295119  12.4024654  29.9290854  38.2638234  16.2312331  25.9281729
  38.0557039  17.1003852  26.3309196  38.6307787  16.5544757  25.0118279
  33.6953216   7.3081466  29.4101464  33.3456880   8.0637853  28.9011039
  34.6557140   7.5571642  29.2916341  39.5011687  -0.2067282  17.5035870
  38.8920613  -0.8199983  17.0467646  39.1215008  -0.1369340  18.3926644
  43.1262039  12.3342785   0.9854094  42.3056663  11.8708802   1.2249738
  43.3388826  11.9638430   0.1455066  39.5656859  17.0237676  23.4076605
  39.2706666  16.2952392  22.8366529  39.6140670  17.7418083  22.7517076
  44.2524135  -2.7411238  21.1810123  44.0890394  -3.4794020  20.6303302
  43.3853308  -2.3192459  21.2400407  35.0326997  16.4181678   6.7702014
  34.2097135  16.7147737   6.2683097  34.9889928  15.4624290   6.4647646
  46.8934565  26.2002448  -2.9025020  47.3857718  26.5480766  -2.1460871
  47.1272833  25.2548917  -2.8402855  39.1312552  11.2356659  21.1110055
  38.1967603  11.4106274  20.9476766  39.5229874  11.8864960  20.4732032
  48.4183764  14.1013750  19.5850714  48.4984548  13.1568487  19.3933740
  48.9255424  14.4798231  18.8133454  35.7450035  -3.0428433  17.6298205
  35.3856195  -3.3826400  16.7596832  35.6634824  -3.8269534  18.1673566
  61.5025781   7.1208318  21.7854732  61.0489723   6.7792251  20.9902164
  60.8761158   6.8946019  22.4717066  48.4893259  -0.1718808  16.6451787
  48.8094920   0.4765899  17.3522738  48.3412483  -0.9857764  17.1361301
  33.1934088  16.8742715  29.5333952  34.0150457  17.2921179  29.1971618
  33.5649696  16.0540150  29.9077617  32.1896403   5.1238816   2.5652926
  32.5896926   4.8716108   1.6890380  31.4507356   5.6825913   2.2184575
  29.1077039  13.6399548  33.8817408  28.2297538  13.3772472  33.5877525
  29.0073999  13.7166937  34.8631936  26.8607875  11.7253261  23.3541095
  26.6699885  12.4179106  24.0248531  27.0425868  10.9817607  23.8960317
  38.7299306  14.2875807  17.6177487  38.3923655  13.4273569  17.3034410
  38.6626300  14.8299889  16.8220288  38.5645889  12.5393043  27.9468883
  38.0396890  12.3197905  27.1166530  38.2626013  13.4758502  28.0486816
  33.2894248  15.5473520  11.8836242  33.1786747  15.6577601  10.9419857
  32.3332698  15.5649596  12.1904997  20.6955955  25.9619494  20.5186617
  21.0940612  25.1097965  20.7659725  21.0166973  26.0727618  19.6078839
  26.4887313  14.8666702  31.2721854  26.0706042  14.2666276  30.6698317
  27.0871036  14.2887371  31.7494498  34.8573045   5.6570074  21.5363860
  34.8143986   5.5494341  22.5593876  35.7321369   6.1575710  21.5569609
  43.5125461   7.1792726  24.9778283  44.4386138   6.9730563  25.1739011
  43.4871935   8.1567955  25.0227190  20.6445075  20.0113861  16.8002588
  20.6957870  20.6726374  16.0999501  21.5012629  19.9799238  17.1751736
  52.4352821  11.7595735  17.5231977  52.5540190  11.7445276  16.5395481
  53.3791680  12.0801228  17.6967170  53.2415732  13.5203425  20.7423151
  53.2129353  14.3455608  21.2561584  52.3661545  13.1580832  20.9354214
  56.7444162  20.1366339  15.0734792  57.1665778  19.3451135  14.7202332
  57.3898718  20.7906748  15.1884941  44.8228773  24.3191262  13.0586574
  45.1062023  24.0096321  13.9578679  44.3068588  25.1428264  13.2531999
  35.7748711  18.4844115  15.9052545  36.4279730  18.1040559  15.2890661
  35.3159011  19.1674851  15.3816009  49.8537757  21.5913563   8.2825450
  49.5501128  22.5279412   8.6107364  50.5213268  21.8250504   7.6558551
  34.1165869  11.2254368  26.6740968  34.3867261  10.5428570  27.2597764
  33.3149964  11.6175832  27.1645837  45.1971070  16.1544355  23.9901154
  44.2350844  16.0265896  24.1194053  45.1247538  16.6038984  23.0923658
  30.0991497  18.4280739  18.5401341  30.8498848  18.5255636  17.9282963
  30.5239502  18.6989384  19.3801237  38.9625534  26.3956832  18.2484176
  38.2209062  26.4331114  17.6182103  38.4988884  25.9998965  19.0124254
  40.7980598  -1.0043438  26.1819352  41.3027177  -1.4754079  26.9317298
  40.8343225  -0.0981659  26.6495855  51.3769977  35.2167082  16.2748459
  51.2679999  34.3039339  16.5818860  52.3410793  35.2735464  16.4011864
  45.1941005  21.8190268  17.9798874  44.7447094  21.2575240  18.6104192
  45.7847931  22.3768177  18.5571297  44.3186118  26.3040354   4.9472450
  45.1813769  26.6353366   4.5986109  44.0922719  25.6421199   4.2625962
  31.4752626  24.5983589  15.7295049  31.6857707  25.5570227  15.4050984
  30.6603347  24.4925561  15.1691890  45.8828224  33.0009429  -7.4857959
  46.1536442  33.0605395  -6.5651200  45.6050810  33.9334854  -7.6109254
  41.6532615  25.5213445   3.5681097  41.1954487  24.8012792   4.0420923
  42.4340656  25.0143163   3.1715046  36.9418310  19.7650515  22.4464908
  36.4636820  19.2204515  23.1044956  37.5049631  19.0910465  22.0516792
  41.8547545  20.4735884   6.3115546  41.5344733  19.9528580   5.5202206
  41.1467723  20.2646312   6.9042780  40.9512209  34.0120780   9.5851049
  40.3239439  33.2104552   9.5308563  41.6978985  33.5345716  10.0444842
  43.2780559  20.8915888  14.4603460  43.2532069  19.8826567  14.5664534
  42.7584592  21.1160365  15.2690260  44.5512817  29.9742722  17.2778256
  43.6163008  30.2390644  17.5252530  45.0755557  30.4123480  17.9553607
  32.9006684  30.7930133   7.7216257  33.3708740  31.6311654   7.8638433
  32.6843063  30.8769398   6.8054723  44.9664936  27.7002568  15.8132584
  44.8017546  28.4598061  16.3966471  45.4418505  28.2661168  15.0999844
  53.7648147  29.0599385  11.7671205  54.0562429  29.8499436  11.2144621
  54.1066614  29.3176335  12.6408817  47.4567482  31.8337001   8.2292307
  47.0282217  31.4604619   8.9986602  46.5970977  32.2900893   7.8492181
  43.2507794  25.4946001  22.8516566  44.0682707  25.9806683  22.5169753
  42.6942901  25.6570060  22.0518951  40.2588683  18.6907060  16.5359294
  40.1324944  17.7495303  16.3981522  41.2454187  18.7438494  16.5802951
  43.6663174  18.0069539   4.6674221  43.5691631  18.8039368   4.0150544
  44.2074261  18.4036917   5.3424718  42.2447973  32.7942482  20.1785094
  42.4757557  31.8370385  20.1632934  41.3728353  32.7162549  20.6083116
  42.7151197  39.3339723   4.1136042  43.6680134  39.2156287   4.0281155
  42.4641201  39.8525626   3.3125687  51.7954750  23.5429658  17.0863835
  52.6304808  24.0183167  17.0898250  51.7354520  23.1531384  16.1944042
  44.8232958  34.8303450  17.8268855  45.5184684  34.1870557  17.5515959
  44.9501757  35.4802797  17.0853627  48.7190856  35.7446242  16.1785913
  49.7217869  35.7311080  16.0535650  48.4633071  35.8581342  15.2323533
  52.7295843  24.0967555   2.3970045  53.1780022  24.5358723   3.1508935
  52.4980655  24.9247139   1.8510751  50.4859121  13.5179905  17.3084827
  51.0914008  12.7558577  17.5846717  51.0911908  14.2546487  17.5220401
  32.1116709  23.3871482  20.7272074  33.0564705  23.6478253  20.9116012
  32.0855084  23.4776353  19.7730815  31.4710365  27.3786299  18.0058232
  31.6028388  26.7765207  17.2777853  32.2703223  27.9716791  17.9279544
  50.8000175  20.2602106  10.6453118  50.4650896  20.4676963   9.7724995
  51.2652250  19.3919449  10.4174547  32.1252685  12.5866428  28.1175858
  31.7015525  13.4190657  27.7174944  31.9377165  12.8298688  29.0838783
  38.4130671  25.2564646  13.4869387  38.1907277  24.4939742  14.0927139
  39.3220451  25.0062751  13.2480504  43.4155851  30.2234002  22.6221300
  42.5656025  30.2311875  23.1201804  43.6742512  29.2707790  22.8019717
  27.4222657  20.1091490  13.7672865  27.3678224  19.6861857  12.8225325
  26.8066743  19.4799281  14.1778731  43.3830675  32.7421215  10.7160194
  43.3501342  31.7929922  10.7083353  43.4642879  32.8864434  11.6873215
  39.3637188  18.1484647  20.1077568  38.9449729  17.2390786  19.8637145
  38.9102278  18.7108306  19.4330329  28.5918904  39.6514740   3.4062746
  28.8864204  38.7711930   3.8028618  27.9628837  39.2569794   2.7541753
  41.0632323  39.0269822  16.7930161  41.3815186  39.4930909  15.9582588
  41.6527738  39.4764967  17.4535845  41.4344505  23.7663890  19.2874569
  42.0724550  24.4368797  19.6361559  40.6266533  24.0122609  19.7996595
  42.9047272  26.3817865  14.4529376  43.5925066  26.9689997  14.9300480
  42.3889266  26.1747793  15.2937217  44.2011384  12.1520576  22.0571205
  43.4313918  12.6788174  21.8504280  43.7722868  11.3086210  22.2982596
  42.4992894  30.0743647   7.0129865  42.9139617  29.8200599   6.1423346
  43.2997326  30.2749465   7.4971055  60.8099025  23.6374407   3.7764634
  60.3067627  24.2781914   4.2768845  60.1934345  23.3237549   3.0950199
  35.3850387  24.3424897  11.9715203  35.7839022  24.8441003  11.2538295
  35.0682449  23.5338753  11.4876886  38.5480783  29.1978145  10.0503625
  38.8777199  28.3740582  10.5342039  37.6004475  29.0145655  10.0884066
  48.5286587  22.3709762  14.6077387  49.1880156  21.6719561  14.4507004
  47.7571520  21.8061989  14.8724350  50.6016461  28.5824952   5.7782274
  50.0332426  29.0179019   6.4988473  51.5157656  28.8498420   6.1251286
  55.3073720  17.9936817   1.0299552  54.9625889  18.8540203   0.7599730
  56.0602901  17.8793855   0.4422140  47.8493000  34.8505887   6.7759087
  48.7208540  35.1385562   7.0752232  47.6912185  35.5397780   6.0968054
  53.5752665  25.3927268  12.3099472  53.6085468  24.4302284  12.3220391
  52.6976907  25.5740700  12.6412898  37.0378639  18.9943341   1.1589862
  37.2363106  19.5982282   1.8583059  36.1990662  19.3405373   0.8222279
  50.9693477  32.6804243  16.9399309  50.0721808  32.4607524  17.3978981
  51.3915847  31.7498810  17.1521278  45.9039889  29.4849923  -0.3565294
  45.4199210  30.2831082  -0.0572365  46.7728487  29.7364213   0.0160179
  34.6794639   9.9175704  -1.9436085  34.3562433  10.8401230  -2.0698097
  35.3410016   9.8648570  -2.6820203  42.5922142  26.5790016  -2.7958373
  43.3609764  26.3280616  -3.2043764  42.8655596  27.4284258  -2.3170689
  56.6534857  34.3063347   7.7246467  56.6447659  34.6936453   8.5983530
  55.9859783  33.6269946   7.7927999  54.5137737  24.4366539  16.5973280
  55.1626677  24.3915419  17.2868934  54.8637821  25.1023721  16.0032477
  48.5869429  29.8129592  12.4701951  49.3155523  29.1982578  12.1669274
  49.0884310  30.4332996  13.0340470  42.4502569  32.5997535  14.8180769
  41.7628072  32.6836013  15.5129936  42.1921645  33.3535337  14.2518165
  28.6412019  18.7690235  21.2927626  29.5983903  18.8423713  21.4050506
  28.5546761  17.8531424  21.6097853  46.5420005  15.8119781  15.5557813
  46.7286239  16.1405440  14.6509904  45.7115471  15.3191535  15.3476016
  39.6046155  41.7612037   1.5921379  39.6303115  41.0641312   2.2896670
  39.4571953  41.1103559   0.8293991  54.4644610  23.0632302  10.4866726
  54.8253554  22.6073651  11.2629712  53.4938715  23.0605911  10.7419317
  43.2790964  33.3443371   5.2917189  43.5173377  34.2296572   5.6104627
  43.9425360  32.8206222   5.8145766  35.6968869  28.6241222  18.6882306
  35.3168298  28.5075373  17.7484958  36.5596954  28.9977037  18.4681256
  40.9884192  28.3384131   0.5757337  41.2073401  28.1870987   1.5085754
  40.2872285  27.7145982   0.4226880  42.7193069  22.4677056  12.4139284
  43.5707954  22.9727732  12.4204698  42.8081449  21.9483483  13.2133908
  39.7542215  25.8414552   9.2466445  40.0750028  26.5341301   8.5940140
  40.3254611  26.0326541   9.9860753  40.7782557  32.9899161  16.9914350
  39.8499699  33.4051564  17.0384586  41.2749883  33.6813422  17.4693901
  46.4097414  36.5455302  10.3053150  47.3657909  36.6338397  10.3982839
  46.1899268  37.3510916   9.8389241  29.0802962  18.4239760  28.9444116
  30.0476128  18.4873551  28.6340777  29.3058619  17.9978067  29.8400250
  54.7620641  34.2178801  13.8029863  54.8159721  34.3692963  14.7962974
  54.4424036  35.0981745  13.5486243  46.4000057  32.6926771  12.9482944
  46.0777207  33.6097436  12.8483741  45.8307883  32.3471470  13.7042248
  39.5798920  32.2051901  21.4303494  39.5310952  31.2361453  21.5154106
  38.9022916  32.4826129  22.1093003  34.6243868  37.1409764   7.5448431
  33.9302078  36.4567776   7.4179257  34.6922344  37.1575820   8.5415527
  49.2776663  23.9434722   9.9741828  49.4129136  24.8495994  10.2140894
  48.4181494  23.7996182  10.4100248  44.2473128  20.2315434  19.9750016
  43.7370806  19.7804666  20.6634612  45.1565384  20.2487779  20.3577207
  53.0082482  22.9397011  13.5352558  53.6398247  22.4539793  14.1345342
  52.4631257  22.1458844  13.2665149  45.2118229  35.7297833  12.4756559
  45.8366143  36.1784985  11.8971871  44.3817814  36.2062492  12.2385416
  40.9469185  32.4051043   4.4973852  40.7089221  32.4132719   5.4974251
  41.8522393  32.7478212   4.5952737  54.5509624  32.2785683  18.8162392
  53.6170980  32.1673249  18.9687900  54.6349693  31.9452132  17.8933197
  35.8944165  29.1018250  12.4040775  35.9077640  29.0082754  11.4424975
  36.2267306  28.2175346  12.6527749  45.2487583  37.3112500   1.9740379
  44.7620224  36.6947340   2.4595730  45.7653048  36.7807017   1.3407439
  40.5352591  25.5302201  27.2583453  40.9948018  24.7044248  27.2821997
  41.2579191  26.2102172  27.3950651  48.1250271  24.8880512  19.0575753
  48.7848191  25.0820167  19.7700898  48.1675590  25.6762868  18.5173166
  37.4359940  30.8337621  15.3525940  38.1394760  30.8409463  14.6869386
  36.6937974  31.2899013  14.8168067  34.1257851  39.7434640   5.8080117
  33.3597877  40.2857514   6.0019095  34.0679905  39.0628529   6.4970286
  33.0374964  25.6093113  12.7436825  33.9093697  25.1870535  12.5673643
  32.9272255  26.0615571  11.8725915  41.8458313  30.5508498  17.9629626
  41.7616601  29.7163225  17.4452467  41.2281994  31.1416332  17.5161134
  44.6597256  38.3223271  18.0017111  44.8143625  38.4057359  17.0424024
  45.5124555  37.9471652  18.3067685  53.3268264  48.3410654   8.2180848
  53.6524757  47.6546564   7.5811027  52.4826879  47.8898398   8.5079023
  54.2739793  17.6248261   9.0158168  54.7546459  18.3174556   9.4126220
  54.5433322  17.6018133   8.0539323  44.9433230  29.5055050   8.2409236
  44.6374045  28.6128016   8.4989948  45.2512832  29.8647407   9.1024080
  45.7014845  23.9244160  19.6041523  45.1390749  24.5471990  19.1675021
  46.5721876  24.3128526  19.4594947  51.9044826  30.0670920  17.7041771
  52.5294730  29.3232482  17.5769106  51.0449983  29.5848770  17.7058803
  45.4535086  33.2230192   7.0758155  45.0129301  33.6572799   7.8153610
  46.1277979  33.9044947   6.8419005  38.0310853  14.3796984  34.8038564
  37.2357759  13.8772923  34.5253109  38.6180617  14.1606661  34.0375432
  54.3030055  34.9099137  16.4187757  54.6923959  35.0593881  17.3167205
  54.1792469  35.8159283  16.1221901  60.7349611  36.4901950  17.6181343
  61.2286393  36.6343143  18.4437318  60.9861681  35.6534742  17.2914664
  36.3761659  32.3109321  18.5598047  35.7697899  32.8412738  18.0256930
  35.6855066  31.8516177  19.1103110  24.5509232  32.1997236  23.2971478
  24.6937779  31.9117695  22.3731098  23.8711665  32.9094331  23.1659263
  44.0087311  35.5311071   6.5631888  44.1071211  35.6257032   7.5525856
  44.4594982  36.3684443   6.3372333  42.2004677  34.8564543  18.3409441
  42.2442566  34.1606906  19.0780957  43.1067203  34.8348028  18.0183596
  37.3864695  27.3849348  22.3154609  36.4932470  27.4687244  21.9000525
  37.3030902  26.5546690  22.7986230  42.8528785  28.8505648  20.2100264
  42.7880881  29.5052871  20.9614797  42.1137287  29.1255655  19.6723518
  32.1046296  19.4068755  16.7655375  32.6534294  19.4477626  15.9695115
  31.6312825  20.2309869  16.7440163  44.1082993  37.6722166  21.0114063
  44.8679951  37.0222446  21.0480997  44.5198492  38.5072855  21.1212238
  37.2861277  35.5172709   9.1164128  36.6938047  36.1833379   9.5426348
  38.0253317  35.5969532   9.7396361  41.7042018  20.7429379  25.9324961
  42.2312945  20.2090920  26.6042706  42.3693653  20.7566145  25.1681651
  47.7381156  26.9550537  17.1505279  47.6181356  26.2001188  16.5164378
  46.7936213  27.2351351  17.2826292  41.8970807  30.0211741  14.1065555
  41.9196127  30.8851320  14.5285068  41.5133231  29.4519812  14.7786142
  45.3346941  19.7458624  12.5671856  45.0193164  20.1616316  13.4009410
  46.0860513  20.3740277  12.3355437  46.9355065  33.5410690  16.5477848
  47.4806213  32.6904958  16.7059855  47.6674788  34.1765359  16.5221808
  35.4529890  16.6954140  25.8115469  36.4236208  16.5305948  25.8931728
  35.1740918  15.7223516  25.8555234  46.4434062  24.8582212   8.9562921
  46.8441907  25.7430055   9.0747119  46.5659163  24.7939419   7.9876032
  26.3921944  20.5236367  20.7201796  27.3290687  20.4980176  20.4120953
  26.1994385  19.5441650  20.5652540  45.0013903  23.7158635  15.8579640
  44.5310650  24.2396283  16.5048236  44.8039108  22.8056603  16.1545042
  40.4781095  22.6305439  24.5009496  40.6943375  22.4652674  23.5537109
  40.9101377  21.8590872  24.9326095  37.1232420  20.5784519   7.5493302
  37.3952357  21.4583825   7.8493034  37.9415018  20.3571456   7.0235349
  44.7708217  27.7681554  22.0371122  45.5591636  28.2159563  21.7668748
  44.2333496  27.6718448  21.2391165  49.8792208  32.9022689   8.3340828
  48.9194315  32.7146453   8.1143809  50.1559601  31.9926452   8.6039395
  39.2577189  22.3893770  18.4444676  38.9161442  22.7954407  19.2655097
  40.2260523  22.6262021  18.4875441  34.1773082  20.5982334  15.0733645
  33.4675348  21.0182023  14.5940797  34.8605171  21.2881731  14.8397078
  33.5596509  29.3022485   4.9653647  33.8918637  30.2130973   4.7058142
  34.0959993  28.7539497   4.4037977  56.5561770  21.9870264   4.1176193
  55.6000373  21.9500196   4.0283341  56.8097434  21.7090666   3.1670220
  54.4506770  39.0761582  -1.5610798  54.0372510  39.4302054  -2.3891719
  54.2459572  38.1197209  -1.7029934  34.1737966  19.1802623  26.4042255
  34.9474301  19.6324658  25.9872709  34.1897160  18.3105026  25.9080576
  60.1699412  29.3596317  12.7157353  59.3041508  29.9035017  12.6981783
  60.7898072  30.0363396  12.4761971  45.1888727  36.8445872  24.2125821
  44.4454342  36.6332988  24.7833156  45.6822171  37.3870161  24.8520109
  41.0901899  28.4256695  16.3243865  40.3202094  28.2288178  15.7751267
  41.2350463  27.5687301  16.7412300  34.2629170  41.7140887   0.2024536
  35.2155318  42.0044353   0.2699562  33.9987240  42.3934037  -0.4685313
  38.3662521  22.9429492   8.2329139  38.2530721  23.5716019   7.5163133
  38.8723919  23.4907667   8.8671217  64.9164408  23.2670946  18.8125050
  63.9349092  23.4274742  18.9502026  65.3181510  24.0175738  19.2109424
  38.9102186  28.2761593 -10.5678727  37.9945342  28.6506369 -10.3397410
  39.3849345  29.1016303 -10.6893865  49.3562868  22.5750985  18.3783085
  49.0054771  23.2985109  18.8863173  50.2253049  22.8637510  17.9960857
  40.5776835  35.9953870   2.2737386  40.2618831  36.5502643   1.6035319
  40.0930005  36.2352396   3.0578234  38.2668822  14.8475740  21.8575249
  37.5339118  14.2754246  22.0828829  38.0236368  15.2149111  20.9921577
  39.3568761  36.1328786  17.1280433  38.7266698  35.2781713  17.2803670
  39.1099376  36.1677856  16.1851100  45.2259704  27.5666845  18.8656950
  45.9809883  27.9968820  19.4101643  44.5425998  28.1880390  19.0751293
  47.6241870  38.4626728  14.1941362  47.9350434  37.5281399  14.0582313
  48.4503168  38.9344736  14.3073506  48.5454291  40.1827802  11.4095669
  48.7690192  39.2491501  11.4579443  47.7380985  40.2173342  10.9182445
  49.5449668  15.4239097   8.0279549  50.5296239  15.3030237   8.0559441
  49.5976641  15.6224483   7.0023271  55.7978717  21.4713720  12.3438932
  56.5842204  22.0232357  12.4956988  55.8067280  20.8462348  13.0706381
  33.6172135  20.3116408  11.7514318  34.1320545  19.4603728  11.7376273
  33.2864449  20.3260000  12.6775261  40.2785238  27.3954821  11.6451550
  40.4958472  26.5983294  12.2030957  41.1261966  27.5059096  11.2579233
  42.0490493  26.2786571  20.6112799  41.2940677  26.2646156  21.2015518
  42.1841135  27.2190461  20.4196033  34.5583324  13.9268165   5.9818413
  33.8712197  13.3414032   6.4038626  34.3140818  13.8312398   5.0406322
  54.4964397  12.6205975   4.1990640  54.3246608  12.2887452   5.0773108
  53.6487473  12.4814501   3.7240298  44.1907585  27.7754432  12.3396431
  45.0013220  28.3120704  12.6354529  43.9405707  27.3607180  13.2005221
  41.4234218  25.9329339  17.2205120  40.6005601  25.8877189  17.6838511
  41.6683486  25.0304043  17.0357583  63.8592051  24.4332096  13.3592488
  64.7569588  24.1476295  13.6310484  64.1157160  25.2750965  12.8875118
  46.7286795  13.0965821  21.6475538  45.8230936  13.0680763  21.9379303
  46.6954669  13.3939071  20.7301413  40.9105164  27.7598679   7.6733123
  41.4199598  28.5580104   7.5998535  41.6463003  27.0957330   7.5872764
  40.9306178  30.4529550  23.8416640  40.2239545  30.1141992  23.1888631
  40.2520481  30.8021700  24.5043624  39.2015534  31.2232053  25.7838320
  39.1427174  30.4269575  26.3752271  39.4535986  31.8923797  26.4482164
  53.5971728  28.6871039  14.8152244  52.9204844  28.0981904  14.3827370
  54.0730079  28.1191083  15.4042833  48.2206477  29.2638328   7.5331079
  47.7924505  30.1647901   7.4789143  49.1151542  29.6178315   7.7424867
  50.8288690  30.6765743   1.6435606  51.0235776  30.5861882   2.6098295
  51.7051845  30.9786381   1.3433143  41.0231673  19.2828834  12.8836667
  41.5346645  18.5669566  13.2429854  41.6743692  19.9425512  12.5607163
  58.3082341  29.9432194  -1.4475005  58.3880325  29.2952856  -2.1665781
  58.0940472  29.3864961  -0.7218690  45.8881497  30.9329038  19.1643982
  46.1566894  30.0721774  19.6108233  45.6369417  31.4000720  20.0089770
  52.7400230  28.2578848   3.4157064  52.5701673  27.5600526   4.0413928
  52.2780483  28.9991740   3.8543217  49.7587953  38.9229803   5.2279050
  49.3058721  39.5916609   5.7227858  50.5043565  39.4380620   4.8195454
  27.6956726  14.4163077  16.1682872  27.3003505  13.7199401  15.5910204
  28.4750131  13.8462547  16.4689399  46.4909371  15.9933565   2.7992484
  46.4994844  16.0496247   3.7703748  46.4933343  15.0327343   2.6675328
  37.3139452  39.1454773  16.1107985  37.5030731  39.8530294  16.7114598
  38.0829867  39.2032096  15.4945784  51.7542683  37.4691870  18.2423088
  51.5349296  36.7592690  17.6171492  51.3758148  38.2462273  17.7657468
  55.5548779   2.4354937  14.9400957  56.4207196   2.3324745  15.4319432
  55.8928640   3.0675663  14.2443191  39.6942181  19.3393851  25.1231562
  39.8120276  18.8560062  24.2995832  40.6048146  19.7271360  25.2101099
  59.1144445  40.9006556  12.4351933  59.9724104  40.6926228  12.0298300
  59.1246033  41.8954949  12.3734539  57.0752157  40.1292881  25.3847664
  57.0472414  39.2629341  24.8703295  56.0806710  40.2777830  25.4601645
  57.5385339  48.2013426   0.4614274  57.2951061  47.4311275   1.0266439
  58.2382402  48.6635439   0.9503796  55.5167064  36.1380423  26.4366965
  56.0026243  36.1179175  25.6081532  54.7390814  36.7175170  26.2686210
  55.6474162  60.3836305  15.3207297  55.6503815  60.5300054  16.3083345
  56.0971818  59.5360618  15.3151925  49.8049029  60.0163417   5.9194649
  49.5106252  59.1826079   5.5310265  50.7630680  60.0009128   5.8705784
  51.4841341  50.4596723  -1.3691219  51.3475164  49.8088492  -0.6800447
  51.0289369  49.9858868  -2.1193630  48.7906076  38.2701549  21.3422064
  49.6203717  37.7998056  20.9948645  48.9569984  38.2501175  22.2706749
  57.7375066  42.0179917  22.4688063  56.9458058  41.5631835  22.0932305
  58.4600099  41.6326093  21.9911157  53.7177544  50.7670065   6.9228724
  53.6657550  49.8491956   7.4115658  53.2590555  51.3044709   7.5808330
  58.7399867  29.3351935  17.3403086  58.8605762  30.0617636  17.8837225
  59.4937776  29.3800270  16.6960782  70.6980635  63.4340263   3.9455801
  70.2000479  62.6398082   3.8138360  71.3165593  63.1679153   4.6515829
  54.6065262  50.9123535  14.9488104  54.7771634  51.4520686  14.1309304
  54.7128579  50.0153897  14.5573277  48.4713792  45.2089568  -1.8334257
  48.5863386  45.7521253  -2.6545684  47.5375843  45.3918905  -1.6386709
  43.9977722  39.4256434  10.8039524  43.3539236  39.9471050  10.3099519
  44.7956439  39.4536930  10.1967807  51.0698696  28.6593829  11.6601223
  51.2253556  28.0213691  12.4319735  52.0561030  28.9240235  11.5976354
  68.5043736  39.1742985  20.4164138  67.7306692  39.2335097  19.8063665
  68.2787091  38.3119318  20.8312704  52.2153019  48.9850114  12.4056026
  52.1944877  48.7234581  13.3420708  53.1693361  48.6467972  12.2603062
  55.2169204  40.6473041  13.6793246  54.6881129  40.6359375  12.8609256
  55.6570886  39.7753759  13.6218466  46.1243593  42.0946262   9.1457957
  46.5725915  42.1740531   8.2540549  45.3088338  42.6077880   8.9151153
  47.8477897  46.4759576  11.4406210  47.7915993  45.6455495  10.9650619
  48.7643993  46.5808428  11.6796950  53.4392717  49.4015775   1.3896591
  53.9859047  49.2553480   0.5548500  53.6639590  48.5184920   1.8685275
  65.0801269  39.3783456   5.9176556  66.0312702  39.3893282   5.8042767
  64.9715237  39.9508302   6.7397273  68.1341491  35.4613689  24.3997243
  69.1210048  35.7505714  24.4032783  68.2205132  34.8065416  25.1422046
  65.8240716  36.7448624  18.0206421  66.1655928  37.6374033  18.1113785
  65.0536009  36.8457110  17.4691958  42.2010198  37.1973999  12.1885675
  42.5714754  37.8393706  11.4834061  42.0476053  37.8084852  12.9018321
  61.2610083  54.3204250  17.0593529  62.1422245  53.8450416  17.0376743
  61.5552859  55.2270145  16.9510494  61.2047640  43.8442495  16.9338776
  60.4967956  43.4146888  16.4933255  60.7557115  44.2027508  17.7433750
  55.1668263  37.6906646  21.6789670  54.3935516  38.1323378  22.0351101
  54.8566947  37.5926251  20.7457415  66.1152112  41.6658957  16.9694613
  66.6265984  42.4242737  17.2762057  65.2352662  41.8879078  17.3288398
  43.5969773  48.3053654  16.3779883  43.2762283  48.5337167  15.4346637
  42.9735099  48.9049795  16.8729543  63.7951289  33.8577017  15.4502676
  64.6581637  33.6116782  15.8736975  63.7099726  33.0968995  14.8168111
  42.5313685  36.4535318  15.5493965  43.5530499  36.3093955  15.6604518
  42.3701098  35.9317693  14.7466415  61.1211277  44.0711819  23.0457256
  61.2388084  43.2247187  23.5203007  60.9814534  44.7210424  23.7640024
  55.8688754  30.1059244   8.1827536  56.6095539  30.0418118   8.8118311
  55.2503629  30.6402387   8.6558773  65.6959518  40.9200740  20.5628641
  65.8207058  40.8517469  21.5430900  65.7214658  41.9086464  20.4726187
  46.2260639  39.4702528   9.2889725  46.5230846  40.3918690   9.2002694
  47.0578348  39.0136997   9.0891643  58.8136231  50.3693364  15.7742278
  58.3250033  50.7254174  16.5309842  59.3863981  51.1302264  15.4827360
  52.1477389  39.0504028  13.5548852  51.7065121  39.7622458  14.0441234
  52.0307162  39.4202474  12.6177809  50.7717809  43.1305805  16.9263483
  50.4513205  43.7587899  16.2496765  50.0616893  43.2471193  17.5716487
  46.3173494  45.5572879   7.4536300  46.0847895  46.0007881   8.3181244
  46.0816472  46.2940516   6.8502968  45.1891369  40.0070712  20.1172168
  44.6102060  40.7837296  20.0107305  45.0126562  39.5207019  19.2739132
  59.1478237  53.8624836  22.1649575  60.1019348  53.9440885  21.9852554
  59.1683069  54.0293451  23.1504954  50.8998696  39.8068292  17.1179516
  51.5805849  40.3053275  17.6096635  50.9305381  40.2364189  16.2467411
  57.6911003  41.5279197  17.8337114  57.3345340  40.6012193  17.7258852
  57.4201853  41.6090543  18.7967319  53.7584936  38.3765556  25.9839799
  53.9435699  39.2802402  26.2493707  53.3361795  38.4579009  25.1129001
  65.7041327  44.3941813  15.4221348  65.9768879  44.5047820  16.3377958
  66.1699532  45.1755890  15.0392160  50.6196461  34.6012214  10.3740080
  50.2435908  34.0272261  11.0217968  50.2435672  34.1927334   9.5285547
  49.3023805  37.0337091  10.9694183  49.6603922  36.2221094  10.5348569
  49.9142929  37.6957593  10.5812877  60.7429449  33.8155152  16.9199121
  60.4691229  33.3878043  16.1051423  60.8019829  33.1029102  17.5605611
  58.1950584  37.4980220  18.2239851  59.0744318  37.4457115  17.7484904
  58.3454359  36.7271717  18.8365502  76.8106636  53.3789894  16.8914147
  77.0273488  53.7820988  17.7202262  76.3546761  54.1670319  16.4475289
  61.4062913  43.0066700  20.6107224  60.9574573  42.1700777  20.6580653
  61.5275533  43.3095257  21.5170035  56.5971157  45.7773446   1.2327929
  56.4525915  45.1197756   0.5093988  56.9180004  45.2081967   1.9610183
  70.8447315  52.8546282  23.1673599  70.3923067  52.8581470  24.0098431
  71.6149491  52.3069730  23.4277870  64.4437084  42.5474701  10.9654669
  64.9235757  43.2752203  11.3726736  64.5989100  41.8091857  11.5710060
  82.0415117  40.3956566  21.7251135  81.5469093  40.5542272  20.9686126
  82.4765083  41.2363898  21.9395140  59.3655852  28.3471819   6.7004686
  59.8923637  27.5424208   6.5635673  58.4688105  28.0314858   6.5231214
  56.4835606  37.9027723  24.0719089  57.0940380  37.3634704  23.4911102
  55.8196915  38.0387962  23.2959706  62.3801390  41.5207892   8.4798879
  63.1875530  41.1130360   8.1124835  62.1531429  42.1920650   7.7592343
  52.0660950  47.1004049   3.3420108  53.0121498  47.1915932   3.0189989
  51.9420073  48.0069201   3.6617954  65.8199130  28.1373055  15.9303070
  66.1572162  27.8299549  15.0257221  65.8757586  27.3267645  16.4069645
  57.7204368  53.7937892  17.4461536  58.6264326  53.9703486  17.7007044
  57.2801184  54.6911361  17.6460564  53.3439552  56.1602020   7.9168651
  53.0443223  55.4641118   7.3611014  52.9383568  55.9666891   8.8125825
  54.1600563  40.1952090  16.2871923  54.4982956  40.4960902  15.4357686
  54.9817239  40.1030594  16.8131652  53.3948611  45.4874159  15.1314875
  53.0310636  46.0775179  15.8408131  54.2902851  45.7304632  15.1741364
  62.5314084  50.9254477  25.7101749  62.4547474  51.8240054  25.3650532
  61.5884504  50.7216475  25.8468597  66.9704000  29.3614431  12.1002195
  66.8422938  28.6072994  12.7488898  67.3649165  30.0152809  12.6796617
  44.0196462  43.3280353   7.9436615  44.4753566  43.9887257   7.3920720
  43.2874910  43.0402976   7.3624101  57.6139317  46.7757709  17.7111380
  57.9331968  46.1420840  17.0043251  58.1364072  47.5564599  17.4819004
  67.1274631  38.3682825 -13.2966085  67.9546748  38.3063809 -13.7979330
  66.5449944  38.8334561 -13.9587576  55.3209763  35.1154729  18.8954404
  55.9548781  35.1942158  19.5995497  55.0244563  34.1609734  19.0152530
  52.8036467  44.9326102  19.3216300  51.8844316  45.2870534  19.3640606
  53.0098852  45.1283408  18.4147668  73.9967585  36.6575912  20.8396214
  74.0080356  35.8641840  21.4453483  73.2503942  37.1583506  21.2676526
  69.2678021  46.4031322  22.6259530  68.8023463  45.5577401  22.4460193
  68.4551130  46.9373398  22.8423980  46.0862733  28.9967386  13.7326082
  45.8355243  29.9177523  13.9674638  47.0474872  29.1271311  13.6631224
  65.5469262  43.5808992  20.1108921  64.7932653  43.3623860  19.5588036
  65.3787776  44.5356060  20.2856246  57.0254222  49.4944153   3.2057264
  56.9533225  50.0984447   2.4489645  56.1921343  49.6072088   3.6289205
  60.1711725  45.1150537  19.4504103  59.2279585  45.0547712  19.7080888
  60.5578530  44.4732550  20.1202107  55.5858363  37.2885792 -10.1595432
  55.3736004  38.2303053  -9.9013146  56.1912138  37.0484552  -9.4611916
  54.6940965  30.8148225  16.0614537  54.1078394  30.0770133  15.7650103
  54.4023946  31.5277148  15.4249676  54.2850862  37.6310430  19.1029608
  53.4088211  37.6678491  18.6519342  54.4404007  36.6648306  18.9785068
  66.5464907  46.3265579  17.3831017  67.3104804  45.9292606  16.9248625
  66.8410814  46.2533291  18.2934400  55.7307524  41.0276343  20.9303058
  55.8693566  41.8689004  20.3865390  55.7436570  40.3773619  20.1966767
  51.7269340  42.3779629  21.4715827  51.9148145  41.9644845  20.5787114
  51.0135756  43.0124781  21.2059260  65.6772551  52.2315563  22.8965533
  65.1686667  51.4092839  23.0364368  66.2193620  52.1079098  22.1493855
  48.0262186  43.2416173  14.4250391  48.6777214  43.0240239  13.7090258
  47.5151756  43.9878468  14.0476444  55.2127042  43.3635084  19.2341686
  55.5012538  43.4835062  18.3208310  54.2296388  43.4588951  19.1100997
  52.9563844  38.9008604  22.3168161  52.7446322  39.8464056  22.5194761
  52.5071154  38.5041277  23.1318820  77.8311985  54.8026801   5.1738004
  78.6159659  54.8462508   4.5814526  77.3284356  55.5981500   4.8979609
  53.1748140  44.9881597  21.8657597  52.6054987  44.1645763  21.9609671
  53.3080029  45.0063702  20.8624754  62.5454728  48.5897118  28.7184980
  62.8564963  48.7688360  29.5911316  61.5848809  48.6271168  28.7996172
  63.2533408  47.4239016  10.5801561  64.0229185  46.9729900  10.0463925
  62.6984180  46.6230922  10.6916655  41.6086960  50.0503367   7.8216479
  41.3628951  49.6744413   8.6415549  40.7851211  50.5004678   7.5205029
  62.8971595  43.5755732  26.7907558  63.0611675  44.4891875  27.1947432
  61.9678832  43.4773081  27.0795876  36.9349116  37.2079499  17.9222773
  37.8695275  36.8745813  17.7904276  36.8545097  37.6827451  17.0985813
  49.7363679  43.5084016  20.2608466  48.7784269  43.4460654  20.4245796
  49.7296179  44.3255437  19.6909959  54.0868877  53.4951302  23.6254153
  53.7265673  53.2494611  22.7465894  53.6873639  54.3528445  23.7390782
  47.1067530  51.2904842  15.6202354  48.0102735  51.6010862  15.4897834
  46.5808923  52.1185697  15.3105529  61.7775126  39.3093034  16.7351990
  61.4900917  38.9984047  15.8435022  62.1889775  40.1736859  16.4555651
  57.1568583  30.5763561  15.1437255  56.1741906  30.5746621  15.4043038
  57.4982724  30.0182812  15.8668890  66.4586355  35.5844306  22.2578221
  67.1282084  35.5863269  23.0065660  65.7604142  36.1533204  22.6351710
  63.1077967  43.7928021  14.5529042  62.6787080  44.5991277  14.9429813
  64.0798003  44.0541344  14.6897826  51.7823872  23.0680443   6.4529930
  52.4124352  22.6465400   5.8150075  52.5105391  23.4022584   7.0961280
  55.1557644  48.0573189  14.9144072  56.1200572  48.0045615  14.9597969
  54.8915489  48.0467629  15.8753254  47.1032555  42.5287175  20.4767035
  47.1336287  42.6147250  19.5330546  46.2753157  43.0276106  20.6079475
  49.0511685  37.3621739   2.1106138  48.9934130  38.3001625   1.9318507
  49.9838809  37.2392930   2.2848667  56.7126279  35.4792249  21.1828805
  57.6087530  35.5786450  21.6179622  56.3253223  36.3229801  21.5223469
  54.9479860  47.7293542  17.8989870  55.8553928  47.3884621  17.8240713
  55.1236425  48.4001323  18.6383188  56.2018894  43.4004382  16.4851725
  57.0643529  42.9772325  16.4026085  56.0944742  43.7183541  15.5606996
  52.7966590  40.0604313  11.1546166  53.7564444  39.7989997  10.9068705
  52.8185457  41.0032320  11.0827236  53.8182379  41.1149882  25.7925522
  52.8707120  40.9662913  25.8726320  53.8653058  41.3509672  24.8349502
  48.3576813  44.6425888  17.6748640  48.1416699  45.5799712  17.7943799
  47.5651145  44.1899489  17.6644206  51.6143073  48.3457819  14.9090771
  51.0106888  47.5560922  14.7782689  51.9038812  48.1693425  15.8099092
  47.4621899  29.5461560   4.0092910  47.3218954  28.7126729   4.4677732
  46.5496241  29.9438396   3.9895083  59.9808787  53.3371078  24.8871510
  59.5021387  53.5557083  25.6911006  59.8467096  52.3726273  24.8786544
  66.5801892  49.3808183  21.7860631  66.6340380  48.6872410  22.4662675
  65.6526810  49.6911597  22.0106314  45.4511610  34.8161283  20.5678993
  45.2538015  35.0124309  19.6330282  45.0192566  33.9751356  20.6929110
  58.0099834  50.6042323  22.7513548  57.3649563  51.3008752  23.1159287
  58.0639695  50.8940031  21.8293622  50.8227583  44.5097145  14.6339957
  50.9338456  44.5401538  13.6321841  51.7096144  44.7887548  14.8421502
  67.6456267  56.5135108  16.3208348  67.5943943  57.4417186  16.0122132
  68.0055678  56.1482949  15.4715537  53.3072098  36.6225172  13.2843080
  52.5149169  37.2016123  13.1994811  53.6094197  37.0425933  14.1137034
  56.3648838  38.3959809  12.8172136  57.2557222  38.0995923  12.5508423
  56.0590506  37.6513505  13.2780117  50.8804591  41.4255379  14.7141888
  50.5630030  42.0547547  15.4170540  50.8343739  41.9933268  13.9357164
  70.8312284  47.4374590  16.6472196  70.6737793  47.8664375  17.5098396
  71.7366689  47.1570725  16.6912884  47.1896176  37.2300271  18.6665634
  47.6613564  37.3336869  17.8553496  47.7694223  37.7736678  19.2899123
  53.7239300  36.2550136   5.2023153  54.5534829  36.7408763   5.0600827
  53.1900177  36.6078387   4.5056480  43.2202949  25.8773823   7.5270141
  43.6262206  26.3215237   8.2924186  43.7485288  26.1126143   6.7287932
  52.1750834  44.8961043  12.2404057  53.0400567  44.9194851  12.6686736
  52.2905991  44.0831538  11.6955906  54.4913018  32.7470775   8.4062672
  54.1516556  33.7008485   8.1840215  54.1602235  32.2899095   7.5919814
  48.2266817  31.6202808  17.9438045  48.3775943  30.5872853  17.8561084
  47.3290938  31.5369226  18.3637982  59.8138997  49.0592970   8.6474475
  59.4349858  48.7772019   7.7798006  59.0191928  49.3165616   9.1397833
  51.2769190  37.1134572  20.9304128  51.9710964  37.7632135  21.1372090
  51.4516534  36.9653816  19.9779093  47.5366531  27.4091187   9.4989961
  48.4459559  27.2045809   9.8038917  47.7744416  28.1846905   8.8632093
  54.9112454  33.0076161  21.5263465  55.4332476  33.8567599  21.4729830
  55.1036692  32.6275871  20.6221312  62.3090378  41.1605898  14.4478612
  61.4023049  41.4997077  14.5180854  62.8732679  41.8984458  14.7944817
  61.0209799  48.7581753  16.4133757  61.0638500  48.5233535  17.3789256
  60.1421836  49.1732609  16.3997154  45.2191602  36.3382609  15.2889713
  45.6101651  35.9536338  14.4864513  45.5489323  37.2364916  15.2593266
  57.2678481  41.7240282   4.4754662  57.5597680  41.3425403   3.6486276
  57.9452577  41.4727142   5.1310769  58.9824125  48.3035810  26.2224032
  59.4453773  49.1559744  26.0231512  58.2998703  48.3440487  25.5040223
  58.5378129  59.4562273   7.3077208  57.8548657  59.8663017   7.8713406
  58.7820996  58.6752433   7.7940495  48.8146040  36.1151391  13.5216408
  48.9361085  35.1241149  13.3166094  49.1756376  36.4249779  12.6294980
  56.8790660  48.2630460  24.1129622  57.2688230  47.9453999  23.2920397
  56.5377956  49.1690412  23.8520393  46.0978120  39.2030656  22.5964559
  45.9935354  39.9769021  23.2059307  45.4795796  38.5848716  23.0175323
  57.1687115  50.0387967  28.4866332  56.8654267  50.0437219  27.5255515
  56.7188353  50.8209950  28.8198797  59.0530650  43.3041511   7.4160560
  59.9485881  43.4187144   7.0853012  58.6676856  44.2035457   7.4920519
  66.7370911  46.4250308  13.5601765  67.6401583  46.3343728  13.2375543
  66.4011623  47.2116645  13.0699273  54.7189397  56.7750413  24.2614832
  55.0586235  57.4861480  23.6901158  55.5114868  56.3829516  24.6841821
  67.0304078  60.9401110  24.2841501  67.5091702  60.1560669  24.2261545
  67.6761519  61.5582883  24.6707072  60.9327497  38.7606770  22.7901583
  60.3921876  38.0341456  23.1276950  61.1477400  38.3820399  21.9126038
  57.5265484  45.0099240  20.0445079  56.9239888  44.2712307  19.7670082
  57.3329180  45.6257922  19.2654802  54.5407732  47.3536937   2.6927874
  55.4212139  47.3412938   2.2408022  54.6020257  46.4833866   3.1381355
  63.0423337  31.1150622   9.2951498  63.8532349  31.4985812   9.6303262
  62.8770581  31.6742139   8.5118353  59.8798599  42.7345746   1.1259356
  59.6501133  43.6817768   1.3966275  60.6701887  42.9848992   0.6222253
  54.4097107  31.5538983  10.6712532  54.3153242  32.1224280   9.8739555
  55.1508360  32.0194861  11.0970756  50.4942690  46.9440152  11.5178546
  50.9850995  46.1844737  11.9868431  51.0051853  47.7152878  11.7828460
  70.6577486  45.9036345  -0.0441025  71.3027149  46.5906903  -0.1313034
  69.9502666  46.1390385  -0.6855973  69.0888393  28.9344066  22.1366684
  69.9388526  28.4739069  22.2972424  68.8393079  28.5480493  21.2604405
  65.2451499  37.7835798   9.8909194  65.8719845  37.4666539  10.6161288
  65.8573862  37.6403643   9.1399207  55.1795062  37.8119462   2.1533123
  55.3407591  36.9287999   1.7750648  54.2487361  37.9983364   1.8477635
  65.4607739  29.3524999   9.8157965  66.2183332  29.2024523  10.4418782
  64.6878592  29.1817574  10.4403605  68.5941782  46.5171477  19.6525892
  68.2327454  45.7836760  20.1494298  69.5258882  46.4560451  19.8454959
  68.8669460  51.0191777  25.0386235  69.4109582  51.6911319  25.4539535
  68.9893004  50.2294332  25.5654042  58.9387585  39.9282908  14.9293835
  58.7154295  40.2739881  14.0004604  59.4983419  39.1724381  14.6840487
  39.6136293  38.6785138  20.5950852  39.8525719  39.6215701  20.5281438
  40.2864543  38.1978971  20.1845559  41.7636101  48.2531574  24.2423414
  42.3359821  47.4546677  24.3850845  41.1269815  47.9428714  23.6095685
  52.0849970  51.7335408   9.0346922  51.2603950  51.2514299   9.3951535
  51.5591459  52.4656562   8.5796677  53.5780975  31.2755036   1.9563096
  54.2331008  31.4871092   1.2053607  53.9563993  31.8606222   2.6749774
  48.7166920  29.6582294   0.1787154  49.0326833  30.1916681  -0.6143399
  49.2769733  30.0753844   0.9058477  49.2524998  53.1260451  16.4415397
  49.5859363  53.7996381  15.8133768  49.5717813  52.3159645  15.9512025
  58.4632322  33.0490068   5.9117877  58.6396137  32.2486935   6.4935714
  57.8403076  33.5103804   6.5270348  59.9192346  32.4663320  14.9000798
  60.1009462  32.6693887  13.9869259  59.1537827  31.8668599  14.8604852
  42.6488802  42.5733370  11.1582400  43.4989894  42.1173300  10.9967458
  42.4519626  42.8120944  10.2293671  43.3380202  39.4393051  13.6992047
  43.5677266  39.5919617  12.7864366  44.1400510  38.9405916  14.0034748
  53.3534626  35.5834069  10.5394443  52.5269533  35.0875292  10.4652797
  53.2888632  36.0533199  11.3441646  61.3111219  46.7537105  14.5920325
  61.2112677  47.4268920  15.2933919  61.4566632  47.3346469  13.8332203
  61.6711801  36.1037280  11.8493603  61.7187987  36.1399521  10.8690969
  62.1619691  36.9226791  12.0670300  62.6048333  50.7695249  19.8378705
  62.2383836  50.0088458  19.3966806  63.5278673  50.7272929  19.5415267
  42.7061106  48.8506811  13.9204386  43.5448975  49.0592170  13.4634505
  42.3640684  48.1272940  13.4309068  50.1492023  50.7304991  14.9858428
  50.8308425  49.9997081  14.9110136  49.7479816  50.6335102  14.0779383
  56.4358741  44.1624259   9.9029806  56.7976867  43.2200322   9.8860461
  56.6175432  44.4071089   9.0283397  63.6445943  43.9484759   4.4748118
  63.5150658  43.3439702   3.7274675  63.0103009  44.6569847   4.1978187
  57.9396471  29.6983526   9.9216342  57.7990772  28.8280192  10.2718405
  57.7667176  30.2300724  10.7128211  58.0393774  41.7702528  -0.7810001
  58.4824273  41.3696014  -1.6082737  58.7999056  41.9310065  -0.2240293
  59.6647932  35.1508551   0.5316221  59.8758996  35.3565936  -0.4007694
  59.3279646  34.2790361   0.5237671  62.1065470  43.4303785  -0.3775229
  62.1602634  44.1314916  -1.0291121  62.4283470  42.6338288  -0.8802477
  56.2828542  33.1249731  11.7440274  55.8615618  33.3204516  12.6232503
  56.3641208  34.0441144  11.4250251  52.9650343  50.0265198  20.0461089
  53.0068862  50.1917162  19.0486813  51.9759237  49.9191873  20.0832989
  45.5628242  43.3734280  18.3253059  44.9444117  42.6569441  17.9610133
  44.9925466  44.1054220  18.4011888  60.7753641  26.8580642  13.2639349
  61.6643065  27.0443156  13.5288668  60.4931063  27.8174423  13.0737753
  88.1631443  54.2574228  22.0202234  87.2778824  54.6903185  22.0441081
  88.5264659  54.6437091  22.8324112  72.2262714  58.2186920  27.1121867
  72.3483356  58.1738252  28.0472746  71.7987831  59.0550500  26.9338310
  56.7005931  49.9815260  19.3761709  57.0159397  50.7667476  19.8657348
  56.6032753  50.3613848  18.5018339  72.0349365  65.5000156  19.3082849
  72.0270569  64.5760537  19.6585064  72.5218066  65.9573886  20.0474893
  47.3349619  58.1114011   7.7595639  47.5096468  58.1093099   6.7823098
  48.1105404  58.6968162   8.0829833  59.9779526  60.0517458  28.4647096
  60.2089246  60.6645034  27.7182126  60.6443907  60.3797660  29.1393532
  64.2874299  62.3377955  28.3670987  64.1647148  61.5233531  28.8966350
  64.8965145  62.8205341  28.8574231  60.6761122  68.1758222  18.9697804
  60.8063777  68.8196727  19.7387468  59.8350649  68.5898289  18.6064782
  67.1099276  50.5830030  11.7119834  67.7326342  50.4191023  12.4776618
  67.4004038  51.4408492  11.4362263  71.9261319  46.6042474  10.1781547
  71.6636522  47.5393336  10.0827608  72.9102056  46.7190903  10.1338420
  71.8277357  42.8032151  16.0859747  71.8520791  42.0345946  15.4348673
  71.2694971  43.3839053  15.5432535  58.5239474  68.1705302  15.7377514
  58.0581686  67.3491478  15.6376147  58.0990069  68.8223280  15.1957014
  51.0794977  60.8013812  16.6688868  51.5708166  61.5321874  17.0848534
  51.6084208  60.6791189  15.8630299  71.8074817  40.9483316  11.4820945
  72.0944641  40.6900475  12.3994655  70.9322612  41.2163124  11.6548685
  54.3611994  57.2607381  30.6100378  53.8159102  56.4404315  30.5072615
  55.0425166  57.1051930  29.9090982  67.4217633  52.3674712  20.3153663
  68.1593736  51.9262513  19.7718906  67.1504831  53.0295684  19.6903494
  77.8981058  41.4848332  14.3132210  77.6473639  41.5379074  15.3056985
  78.3658964  40.6478899  14.3566349  65.8418143  69.8572900  32.7721353
  65.4349746  69.8308783  31.8754720  64.9973571  69.8025986  33.2911169
  76.8531115  54.5110069  19.3749927  77.0416398  54.4271530  20.3396369
  75.9152082  54.8878692  19.4514050  72.2729067  54.0206485  27.0609802
  72.4552199  54.6595903  27.7628696  72.8689253  54.3055763  26.3541203
  69.0880345  59.0633678  21.7611110  68.3773406  59.6522435  21.3418436
  68.6253448  58.2247373  21.4569332  75.6802557  54.9457892  29.0698515
  75.5586737  54.2567840  28.4515303  75.1499606  54.6464253  29.8488267
  65.2149255  60.9977084  22.0877566  65.8664808  61.5585663  21.4831021
  65.7561600  61.1685990  22.9348563  74.1431428  54.4369285  22.0240150
  73.6347722  53.7472763  21.5356559  74.2751818  55.1062238  21.3377161
  54.3456640  63.3956014  12.3663114  53.6763482  62.8523489  11.8899557
  53.7675295  64.1061137  12.7027203  50.7235327  54.3314965  11.7011944
  51.1686093  53.4850854  11.7953115  51.4611332  54.9698755  11.5100235
  70.3464983  55.5840588  -4.5855160  70.6211526  56.5030815  -4.7733529
  70.7403567  55.0539936  -5.2972450  79.9098893  67.2501145  14.9265475
  80.5888439  67.2287373  14.1989794  80.5123914  67.3993972  15.7106572
  65.7382548  57.0933823   8.1099658  66.6734934  57.1170866   7.8764882
  65.7975059  57.2913604   9.0998759  70.5998573  51.4605548  14.7933290
  70.2973508  52.4042303  14.7478260  70.8331143  51.4155711  15.7177827
  60.4539598  52.3684006  19.2209852  61.3776746  52.1005684  19.5007714
  60.6373094  52.6713792  18.2930194  61.4726569  54.0762236  29.0690566
  61.0200670  54.9385686  29.3048956  60.7242617  53.4938058  29.2807698
  48.9781762  56.5934195  28.8569550  49.0639418  57.3183672  29.5153900
  48.4328012  57.1448348  28.1740567  58.1772791  52.0257333  20.4698256
  58.9838013  52.0651462  19.9482963  58.4890659  52.7050716  21.1736072
  52.2308963  60.5153350  23.3659770  53.0233487  61.0385621  23.4037895
  51.5793269  61.0732036  23.0335700  73.2446421  52.6246718   0.7500193
  72.4809679  53.1199035   1.0688211  72.7153146  51.9838342   0.1306186
  65.1467861  57.0228860  19.5830052  64.6398962  56.9868258  20.4407547
  64.9798795  56.0740802  19.3512020  68.3477108  53.7467057  22.4261339
  69.1157488  53.1981943  22.7778400  68.3532689  53.4340325  21.5016794
  82.5630315  62.4101919  18.3118177  83.0953208  61.6193589  17.9716368
  83.2274621  62.8399973  18.8219182  62.0475356  60.8742948   8.2671065
  62.4909193  61.5767242   8.7174177  61.9026685  60.2365430   8.9439734
  74.0071440  70.7377584  16.6608353  73.4950988  69.9184825  16.6533845
  73.2817813  71.3941899  16.4601472  64.4668748  64.7810711  32.4876467
  64.5786823  63.7914271  32.3666014  64.6472640  65.0477020  31.5550319
  64.2056241  65.3642359  29.1686422  65.0179710  64.9306451  29.2567979
  64.1009051  65.5361745  28.1899630  60.3687821  57.0082596  11.4031494
  60.6022100  57.3578700  10.5119293  59.7699770  57.6606906  11.7645624
  62.6092837  49.2353151   8.6061627  62.6214626  48.5770191   9.3344428
  61.6543845  49.3954751   8.4981688  60.3284786  54.4559925  12.5177198
  61.1112145  54.0957025  12.1132022  60.4319562  55.3920102  12.1810950
  60.7510436  47.5934758  18.8922472  60.6063554  46.5939999  18.8643637
  59.9380750  47.8359048  19.3451537  65.0555670  50.7828677  18.8882766
  65.6902300  50.0406244  18.6789242  65.5637915  51.2975693  19.5748117
  60.1415053  61.4717483   6.5008298  60.9564134  61.5681754   7.1177946
  59.9755017  60.5273861   6.6524888  48.8091723  50.6417882  12.6916659
  47.9684747  51.1211824  12.3906844  48.4598885  49.7815564  12.9123251
  63.3763948  56.6021066  17.1321030  63.8001676  55.9414435  17.6808198
  64.1401916  57.1739198  16.8975760  54.3338519  51.9452130  10.4637789
  54.4747417  50.9443852  10.3018996  53.3919060  51.9609108  10.0916609
  59.1230381  62.0877470  11.1218088  59.9465778  62.1500895  11.6159605
  58.6338068  62.8136112  11.6194006  55.1519251  51.7913624   4.8389943
  54.6087432  51.3753661   5.5441202  55.4800563  52.6046522   5.3163422
  76.5867148  59.6350833  13.2884283  75.7073129  59.9990551  13.2312850
  76.5259988  59.1566702  14.1511574  68.6283384  58.8559516  24.5529245
  69.2119572  58.2129916  24.8478515  68.7952404  58.8536520  23.5525486
  73.1971133  48.6628348  15.4127539  73.5923462  48.8858985  16.2651352
  72.2519586  48.6907411  15.6472868  53.7253488  46.0437018   6.6885008
  52.7832053  46.0098011   6.2996913  53.7354323  45.1213664   7.0817834
  63.2337158  57.4344890   7.3275427  62.9365403  56.5627697   7.1483027
  64.2063851  57.3888009   7.1750851  71.7145921  49.3681952  10.6073408
  72.2850841  50.0973027  10.2617079  72.0081022  49.4211261  11.5608045
  87.4790670  48.2511608  23.2066179  88.2121961  47.6902232  23.5865961
  87.2139717  48.7453311  23.9580193  68.4632292  56.2450615  13.7116313
  67.9803563  57.1309086  13.6841478  68.6793721  56.1550795  12.7717631
  70.3699514  61.5928078  21.4093352  70.3563898  60.6226387  21.5047509
  69.6711451  61.7003402  20.7459276  52.5967128  59.6666302  10.0232063
  52.6695306  58.8802332  10.6186573  52.6901743  59.2072818   9.1550876
  67.2525437  62.5856171  21.0822307  67.9869211  62.8353980  20.4862518
  67.4624692  63.0525326  21.8865284  52.4361907  53.3249434  15.7632198
  53.3047751  52.8926922  15.6168539  52.5743979  53.8174079  16.5575445
  62.9995091  56.3464394  24.2564007  62.9956213  55.4227534  23.9348598
  62.0001708  56.4037745  24.4060194  70.4946912  44.2463598  14.1781181
  71.0721916  44.8172950  13.6242541  70.0654214  43.7670336  13.4557003
  69.3998114  58.8664160  11.8432271  68.5014989  58.4765339  11.5901357
  69.0446570  59.6417381  12.3544512  66.1504519  47.5221735  32.5252847
  66.8222284  47.3069277  33.2067086  65.4766778  47.9556559  33.1262144
  74.4973471  55.9217661  19.5898676  73.8418957  56.0052943  18.9140308
  74.5540435  56.8687036  19.8746555  62.0482783  60.5914147  24.5182062
  62.9098602  60.5571413  24.9814062  62.3176059  60.7032386  23.5684088
  49.3870586  57.7492019  24.2820730  49.7487946  57.2902931  25.1090747
  48.9911209  58.5274254  24.7013407  62.4476084  56.4831622  13.9227062
  61.9898079  56.6353052  13.1240562  63.3882588  56.5391987  13.6421379
  54.4271720  69.2051311  30.8278240  53.4996248  69.3135063  31.2022798
  54.4267757  68.2241746  30.7949741  53.9962663  68.6563074  19.7711371
  53.3250252  68.4031651  20.3594455  53.6983426  69.4719549  19.3954163
  69.8274318  56.9430730  26.1450046  70.4144890  57.5822330  26.5432925
  70.4720781  56.6019196  25.4263800  48.7229270  46.2099448  15.1388930
  49.2697038  45.4094957  15.0683559  48.4877941  46.1262816  16.0967191
  62.1791414  83.6168270  14.2280316  62.1193597  83.3488799  15.1603894
  61.8029443  82.9269016  13.7211687  69.2334514  62.8889220  18.9383013
  68.8495069  62.6839263  18.0160048  70.1339485  62.4820799  18.7402587
  57.8330896  46.5537397  22.0816294  58.0969668  45.8650641  22.7289113
  57.6009134  46.0100348  21.3020969  56.9521296  53.4354542   3.1362528
  57.4107342  52.5825482   3.3153824  56.0447404  53.2001732   3.3886665
  60.5253658  63.7781249  12.7886568  61.4329678  64.1880780  12.6785570
  60.3805119  63.9832187  13.7465410  71.6007373  40.8822951   8.4824737
  71.7187631  40.7218532   9.4535142  71.3393394  41.8113445   8.5061041
  75.2459237  64.7333515  29.7273816  76.1867693  64.8731554  29.5112456
  74.9116943  65.1995524  28.8939691  63.1401081  66.0574913  16.7190766
  62.9639145  65.1133903  16.5849470  62.3716719  66.5000641  16.3279755
  64.8075588  48.1946670  16.3402154  64.2787545  48.2950140  17.1558911
  65.2906741  47.3408775  16.5761476  63.5691545  52.0173917  13.2757159
  64.1791963  52.6138317  13.8411097  63.6269679  51.2333768  13.8300187
  56.6496021  59.5056357  20.6112191  56.3982416  58.9775160  19.8393421
  57.0519073  60.3115815  20.2024083  65.9041838  51.8441100  25.6120010
  65.6701063  52.2004541  24.6918793  66.8355756  51.8395660  25.5925241
  69.8062835  66.8909918  18.7327629  69.8249074  67.3471613  19.6245920
  70.6206722  66.3514875  18.8979949  54.8282619  53.9283183  27.1644405
  54.9517883  53.0068403  27.5671793  54.1222560  53.5839414  26.5552443
  60.8613282  57.1052610  15.9227248  61.4352225  56.8958654  15.1405617
  61.6387923  57.2572725  16.5603159  52.0785669  58.4179157  27.8493642
  52.2181981  57.4652122  27.9386992  52.3109219  58.5190630  26.8772274
  63.0720269  64.3288908  12.3387244  63.8991646  64.2071823  12.8965716
  63.3143026  65.1187559  11.8284005  58.7558991  48.4940228  20.5119217
  58.3587494  47.9936090  21.2399038  58.0064838  49.0259679  20.1575357
  61.4164329  50.0591662  21.9842242  60.7584154  49.5016011  21.5553257
  61.9801847  50.3294073  21.1768517  69.9011940  67.2218347  21.4581263
  70.8790228  67.4232520  21.4320621  69.8830002  66.2543864  21.6428656
  52.0446335  58.1756732  17.7211568  51.4680320  58.9379154  17.6482512
  51.4566343  57.4384078  17.9018775  82.8344773  61.4261812  11.8696198
  82.6665111  60.7978479  12.6287714  83.7166682  61.0591016  11.5537296
  55.5997640  60.7628558  17.8508756  55.1534028  60.0453544  18.3688796
  56.1051832  61.2670913  18.5297812  63.1748273  69.3920556  29.2677606
  62.6034877  68.6854847  28.8832009  62.6358201  70.1829234  29.1405237
  60.1989542  42.2575404  27.0697813  60.2874889  41.7258176  26.2541446
  59.3182556  41.8931506  27.3849512  64.1618365  49.8955450  22.8593337
  63.2680518  50.2440285  22.9854661  64.1587706  49.1061913  23.3903149
  71.1338676  51.2034926   3.9777290  71.0425628  52.1653355   4.0042639
  72.0853422  51.0606793   3.9369077  56.6647490  55.0741644  25.6761128
  57.3758524  55.3616304  26.2175326  55.9347252  54.8252551  26.2778781
  69.1629324  42.0507040  12.5429994  69.2894630  41.1424484  12.9209421
  68.5289336  41.8865897  11.8625910  77.8555831  46.3164896   9.2672021
  77.3979598  45.4870020   9.3551549  77.2093511  46.8428027   8.7549467
  65.8169856  48.2262840  11.9186888  66.2433182  49.1896188  11.9491316
  64.8862621  48.5163714  11.7561567  60.0878921  52.6025678  14.9441707
  60.5078097  53.2652281  15.5527590  59.4809112  53.1703077  14.4378190
  71.2646537  56.2967731  23.9981573  71.1630432  55.4521633  23.6120654
  72.1071935  56.2049077  24.4646106  65.7257622  53.4584699  27.6478715
  65.7740259  52.6164139  27.0904657  64.9531252  53.8718029  27.2317041
  46.7659934  51.5669282  23.1174564  46.8304758  50.6060162  23.2727869
  47.7347944  51.8020817  23.1850629  62.0733071  43.3916196   6.7592500
  62.4617231  43.5160603   5.8688767  62.1334449  44.2486979   7.1601478
  66.0372000  44.4041046  11.9161275  66.0524399  45.1404401  12.5415985
  66.8119999  44.4869298  11.3371539  63.2881173  69.5649849  26.1442347
  62.9972021  70.4647795  26.0339506  64.2606068  69.6935316  26.3541132
  66.2097090  64.6735531  19.3256670  66.4362320  64.2449355  20.1720969
  65.3918989  64.1000237  19.1201704  56.8281642  72.7492231   6.1504716
  55.9887107  73.1544909   6.4021117  56.8108748  71.9736777   6.7993052
  61.7214574  63.8092123  19.5353953  61.2497647  64.3108750  20.2269694
  61.2789141  64.3216833  18.7841199  59.6011299  65.9006107  10.5790645
  58.6582707  66.0472766  10.7767804  59.6886097  65.0283482  11.0430663
  61.4249226  69.9088377  20.8452481  61.5609628  69.6972668  21.7802495
  60.9774201  70.7504215  20.8379943  77.8983514  52.8546273  28.0629026
  77.0353409  52.6401318  27.7287407  77.7245973  52.8999864  29.0334488
  78.2538944  74.0035608  18.9542468  77.5957838  73.3328123  18.7265456
  77.6965485  74.8297955  18.9448952  71.8677699  47.1710779  32.8280588
  71.1087626  46.9685468  33.4535838  71.4531218  46.9104769  31.9949209
  50.9921729  53.7302403  21.7341141  51.6259336  53.1550869  21.2744349
  51.5917087  54.4674144  22.0491005  81.0015140  63.9838017  21.5297720
  81.3629950  63.0752014  21.4113993  80.3985409  63.8636891  22.2984286
  71.3961447  51.3674648   8.6878360  71.4441998  50.6392686   8.0540725
  71.0978355  52.0852471   8.1056775  57.3125177  64.7503424   2.7614806
  58.1349906  65.1243843   2.4981080  57.6097405  63.8939529   3.1485788
  67.6459231  63.3190238  27.5236238  67.7762280  63.0434459  26.6046841
  67.7362849  62.5388847  28.0674266  60.3136463  56.3330324   5.7032881
  59.8136121  55.5762289   5.3670855  60.8830108  55.8338558   6.3801042
  57.8105995  47.8748401  15.0319240  57.7937577  47.9261357  14.0759439
  58.0615230  48.8377033  15.2210674  70.9910957  42.0575924  18.7526426
  70.7746882  41.1398702  18.8796897  71.2351086  42.0986579  17.8114969
  63.2657301  57.2094443  21.6813807  62.4935198  57.7255964  21.7965709
  63.5059135  56.9284850  22.6446382  79.8443774  53.3218134  22.2664726
  78.8992070  53.3350978  22.3627968  80.1123259  54.0934561  22.8175893
  82.9932923  62.9267225   8.7078710  83.6120099  62.2164421   8.7671217
  82.2080533  62.6205914   9.2112507  77.4817228  44.0458396  13.4585717
  77.7060543  43.1125175  13.6832328  78.3404543  44.2996302  13.0885634
  73.5932139  43.3327869  27.3137762  73.6403258  42.6167077  26.6450401
  74.4096677  43.8307220  27.1435298  70.3229781  54.3513924  14.7935474
  70.5429569  54.4810256  13.8042161  69.4586189  54.8514175  14.7999229
  63.0802683  58.9791787  19.0052212  62.4664748  58.6391084  19.6264416
  63.9112264  58.4789052  19.2685522  53.6362882  71.8511122  15.3419790
  52.8182112  71.8836111  15.9604941  54.1435140  72.6257511  15.7226001
  60.0061703  44.6412751   4.9187031  60.7687158  45.0561991   4.3773489
  60.1367436  45.0601809   5.7549549  58.8954081  45.5977402  11.4827132
  58.9464807  45.0093282  12.3172755  58.2076730  45.0897608  10.9736507
  68.6337829  49.7258140  14.0317353  69.3525230  50.2949532  14.3047009
  68.0554073  49.6876915  14.8140223  76.1096487  67.8562519  37.0887372
  76.7297695  67.0561607  36.8463455  76.3394703  67.8960574  38.0127974
  56.7927213  56.8494144  29.3243934  56.8513239  57.8108818  29.1009140
  57.0471367  56.4234334  28.4865344  63.7878140  64.2946287  22.4660062
  63.0783252  64.8463826  22.1863946  63.4209013  63.3781246  22.4302760
  67.0159660  50.0117913  16.4095055  66.3094755  49.2663521  16.4878851
  67.4313149  49.8415911  17.3253751  66.0853415  66.2541939  22.6751865
  65.3241323  65.6451806  22.4634815  65.6254980  66.8792268  23.2229902
  52.8867401  68.4738447  15.6999420  51.8982550  68.5323816  15.8012686
  53.1759258  69.3291438  16.1022664  58.3382891  68.6758265  22.3953300
  59.1080513  68.6307057  23.0531677  58.1408189  67.6565105  22.4251217
  58.4252514  60.3990798  16.8880656  57.9970852  61.2624416  16.8276633
  59.2637712  60.7092218  17.4050913  65.3313014  58.9795961  16.2271991
  65.6241690  59.4354568  17.0357512  64.3739120  59.2568280  16.2668239
  74.8757780  51.1135008  21.8855529  74.3753595  51.6103557  21.1922599
  75.6870465  50.8987859  21.4135645  76.1218926  48.2236121  11.9204504
  75.8953587  47.7852640  12.7103220  75.6522285  49.0324797  11.9159709
  56.2262692  63.1152777  14.4321520  56.2106417  62.1598400  14.7482692
  55.4402661  63.0854849  13.8681014  79.3750955  48.6415868  17.2926078
  78.7111977  49.3059445  17.1039072  78.7860742  47.9351310  17.6812783
  67.3231052  58.6668319  14.5688457  67.4079968  59.4879675  14.0344050
  66.5304491  58.9295564  15.1492714  63.6565553  66.1858221  10.5924082
  63.1211770  65.9116509   9.8068606  64.1102080  66.9721526  10.1774493
  62.7236571  53.5360358  24.3567480  61.7878746  53.4393642  24.3002906
  62.8151920  53.9333400  25.2895366  59.9585976  59.6460561  14.7890685
  59.1807832  59.9796703  15.2267362  60.3459742  59.0447020  15.3674033
  73.9454588  41.5662695   3.7347481  74.8742386  41.1909102   3.8582001
  73.5496676  41.1730526   4.5733062  86.0855146  69.5277497  12.8074500
  86.9674133  69.7370743  13.2074460  86.4056667  69.4948538  11.8746084
  70.2367252  63.2545882  15.4339330  69.4661902  62.7112251  15.5639315
  69.8802073  64.1325189  15.5290243  72.0612080  45.5920289   5.7294539
  72.5489493  45.3040535   4.8882821  71.6023473  46.3786663   5.3457267
  63.3300993  52.9468826  30.7591921  63.2910384  53.6735092  31.3949463
  62.7945350  53.3333774  30.0375026  80.6886162  76.1865920  17.5731842
  81.3151232  76.2261046  16.7842780  80.1548871  75.4044381  17.3160437
  76.9011626  70.6275893  25.0866657  77.5327624  70.8788235  25.8168004
  76.1570831  70.2992259  25.7306214  73.8027769  69.1961757  19.4101406
  74.3927317  69.3939864  18.6588855  73.4975704  68.3398291  19.1551637
  65.8213639  80.8149776  16.2770520  64.9184880  80.8413209  16.6904480
  65.9227484  79.9149670  15.9932199  70.8116250  64.9128167  27.2613814
  71.7035271  64.8362195  27.0244578  70.6510001  64.1301298  27.7974789
  71.5202356  61.2809809  18.4617915  71.7419773  60.4886269  18.9370150
  71.9065862  61.9745245  18.9734047  74.7270869  63.1096137  22.4341987
  75.5069339  62.5236491  22.5927584  75.1463183  63.8679757  22.0578567
  83.2031580  64.9215643  22.9501203  82.3913018  64.8233760  22.4251451
  83.4179305  65.8851641  22.9016556  74.0598673  58.6102809  23.1515094
  74.2414049  58.3521436  24.0765166  73.7208310  59.5033698  23.2849152
  78.9202527  66.9957343  21.3460571  78.0214335  66.6375219  21.2870066
  79.1662812  66.8196639  22.2699552  72.3098866  74.8960635  16.0522661
  72.1482857  75.4838075  15.2581623  73.3061177  75.0479905  16.0490372
  56.2709903  73.5525105  14.9735626  56.0721195  73.4823973  15.9724485
  57.1053569  73.0416825  14.9202033  80.8311429  64.5455661  28.3825437
  80.7451084  63.7232958  27.8803181  81.2689730  64.2173486  29.2012618
  62.5138543  72.4273969   8.2963021  62.6581981  73.3300423   8.6587176
  63.2843088  72.3438382   7.7622103  66.0233684  61.0025831  18.1311077
  66.1636489  60.5112640  18.9628238  65.3914379  61.6735302  18.3893000
  76.3617076  65.9623446  21.2871248  76.0348082  66.8637897  21.4417408
  76.0934391  65.7938153  20.3296781  73.9057583  73.4591854  22.7480950
  74.4994702  74.1573275  23.0787704  73.5530930  73.8550658  21.9487329
  80.1841974  65.6684053  19.3167511  79.8141222  66.3433161  19.9536224
  80.8635507  65.2329442  19.8547684  76.6891865  61.3417947  30.9001739
  77.1025877  61.0540220  31.7568610  75.8771906  61.7465775  31.2871944
  66.6599897  68.5115533  17.2385034  66.0653206  67.9378597  16.6873423
  66.2903811  68.3411444  18.1136931  69.8920891  72.5239945  33.0646868
  69.0077711  72.4648441  32.7227306  69.7729888  73.3476481  33.6124019
  72.8829251  76.7284857  22.0674266  72.2772804  77.0779558  22.7541993
  73.5262958  76.2404999  22.6627085  81.4820655  59.7861797  26.2059766
  82.2545778  59.6274817  25.5948953  81.8759818  59.8184367  27.0219915
  72.3051453  68.9650659  36.5589907  72.6100855  69.8484851  36.8755426
  71.9089118  69.2483781  35.7201740  72.5158865  64.3378446  12.7028314
  72.8897350  65.0854688  12.1775364  71.7834597  64.0211552  12.1785265
  74.4392704  58.4701975  18.1945119  74.7680476  58.6436775  19.0901009
  73.4921069  58.6064546  18.3824120  61.8110704  75.1988557  29.1332784
  62.0351227  75.6314766  28.2758510  60.9480116  74.8104998  28.8241442
  40.1889511  -3.9306686  23.3901968  39.5707913  -3.5339057  24.0613573
  39.9138063  -3.3786753  22.5987084  52.2582791  20.1649511  13.7263888
  51.9756867  19.4131441  14.3307583  52.9424984  19.7243902  13.2632179
  49.5805062   4.1307503  12.2662061  50.0060510   3.7469468  13.0496563
  48.6431917   3.8591984  12.4163645  52.9708840  10.3732759   8.1802745
  53.1972963  10.3644529   9.1033290  51.9924312  10.7448929   8.3274314
  49.0608275   4.9915384   4.1276652  49.3548387   5.6294770   4.8378000
  49.6750930   4.2199984   4.2848450  59.9189943  18.4465601  19.7422846
  58.9764345  18.2849828  19.5675890  59.8958544  18.0941639  20.7089391
  39.5979266  11.8531964  16.0140483  39.1225251  11.3044208  16.6403691
  40.4702626  11.9884510  16.4498336  52.3072385  -1.7588483   9.4293791
  51.4179018  -2.1578482   9.6324907  52.0434028  -0.8247042   9.3213243
  56.3182759   1.8126171   4.6498908  57.1624970   2.3162682   4.8900485
  56.3462125   1.8794564   3.6441660  49.9188601  14.8284388  13.1877197
  49.7217457  14.1303801  13.7940569  49.7920950  14.4011796  12.3230465
  50.5076444  11.1433876   8.1930271  49.7690581  11.8152236   8.3013548
  50.2074574  10.4446453   8.7574385  40.0717130   5.9220701  18.5965726
  40.8416339   6.3982673  19.0737130  39.5561299   5.6822574  19.4108057
  37.7766960  16.9917663   5.6963910  37.9661294  17.9143202   5.9406171
  36.8365056  16.9145382   5.9605132  40.8763446   9.2100665  15.3233697
  41.7593120   9.4982904  15.0207819  40.6658015   8.4614590  14.6957911
  48.3506349   5.9929257   9.4516431  48.4794900   5.0660280   9.5552302
  49.1314492   6.4347141   9.8946220  46.9921405  24.0925500  11.5332110
  46.0739112  24.2413676  11.9143578  46.7278526  24.4194344  10.6278410
  58.7005013   7.7016741   4.0071065  58.5361780   6.9718184   4.6705094
  58.9845122   8.4075640   4.6310406  44.1358937   0.6201610  13.8889981
  44.3894749   1.5529957  14.1015422  45.0398773   0.1999628  14.0483919
  29.7365879  -9.6658365   7.8295984  29.0915581  -9.1850750   7.2731397
  29.2349324 -10.5325700   7.8413523  64.9417317   1.1183961  13.0693298
  65.0119657   1.3992655  12.0931928  65.6416824   1.7699367  13.4142786
  47.8963254   1.9165084   7.2840430  48.1314346   1.1384330   7.8710814
  48.2923946   2.6308431   7.8808121  36.7942084   0.4050384   0.7876541
  36.9035736  -0.4392740   1.3404905  37.6058417   0.8646441   1.1201168
  44.3365063  -6.1682896  17.3331447  44.8116505  -6.9936657  17.5502958
  44.7967269  -5.8879757  16.5349677  38.6229359   7.0742817  12.2500376
  37.8740505   6.5337702  11.8853056  38.2375901   7.3077736  13.1385640
  60.2289862  11.8021248  13.5063880  60.4084744  11.1274353  12.8292345
  60.7726044  11.5550534  14.2645950  42.4513868  22.1292403   9.6908702
  42.6226059  22.4549869  10.5712105  43.3496106  22.2358543   9.2592618
  64.2253528  24.4387684   8.1374126  64.7828206  23.7651562   7.8711872
  63.8753182  24.8448968   7.3207824  55.4962670  13.4747909  -5.2027029
  54.7146461  13.7763340  -4.7186339  55.1948029  13.2809100  -6.1002967
  34.6821158  17.1145402  -2.0272323  34.8069305  17.9346724  -1.5639467
  33.9996763  17.3935033  -2.7396126  48.0046683  18.1344315  13.5008294
  47.3099559  18.7402085  13.8267083  48.7051786  18.8112732  13.2803393
  48.8843991  18.8439637   4.5285095  48.7255699  19.2811247   5.3777681
  49.5560654  19.4695809   4.1554473  49.0772321  33.3757576  13.1256368
  48.1948564  32.9991448  13.0464814  49.5023443  32.6181722  13.6746735
  46.6116797  20.5770096   0.7058136  47.4912322  20.9082180   0.5803818
  46.8200294  19.8093427   1.3169073  68.2068623  43.2872970  17.9113885
  69.1297503  43.2254166  18.3044152  68.4669327  43.9665051  17.2068507
  50.0952902  23.1731602   2.7347101  50.5971846  23.9150947   2.3342176
  50.8943572  22.6085718   3.0544183  54.9850320  12.3108325   0.6823595
  54.5788047  11.4557288   0.4078410  54.2397260  12.7327693   1.1717023
  55.4529340  37.9370869  -4.4081099  55.0836112  37.0446118  -4.4729751
  56.0971177  37.8314845  -3.7085920  58.4705965  14.5536063   9.6999838
  58.5564490  13.5470234   9.6222988  59.0041547  14.6610111   8.8545189
  53.0937009  29.4082459   6.7634942  53.4713459  30.2261325   6.3545361
  53.9776536  28.9502432   6.8718378  59.5204290  15.5497751   7.3302677
  60.1266650  16.1279924   6.7863371  59.2216598  14.9368800   6.6057749
  46.0732881  11.6052280  10.0931200  46.7652616  12.3112004  10.1015000
  45.9896001  11.4457274   9.1139914  56.3096945  23.4549546  -6.8735419
  55.6955549  23.2466502  -7.6376593  57.1564507  23.1671274  -7.2331337
  48.4066130  12.7813190  10.0075763  48.7264677  13.6688573  10.0589347
  49.1253225  12.2875122  10.4788163  52.1403766  18.0323241   6.2008788
  52.5549831  18.8850342   6.2081681  52.6422858  17.6298189   5.4212766
  55.9546197  26.5397314   4.2860190  55.9763093  27.1152265   5.0888312
  56.6488267  26.8056128   3.7061978  57.0022757  11.6913801   7.3014182
  57.4928077  11.6235789   8.1673216  57.6667888  11.3982748   6.6514862
  61.0280209  27.7889747   9.8186230  60.0652304  27.8430127   9.6170224
  61.1213909  26.9055974  10.0729376  46.9938931  17.4847299  -4.5872488
  46.6910523  18.4093837  -4.3609446  47.6673317  17.6417715  -5.2473525
  62.9172401  20.2004582   8.1782968  61.9879626  19.8444227   8.0088178
  62.6869329  20.8446174   8.8746312  55.6689103  10.2909389   3.3519483
  56.3604971  10.3607542   2.6408505  55.6074230  11.1918900   3.6864344
  46.5811377  20.5126252   9.2520657  47.0911380  20.8192111  10.0225076
  46.1072399  21.3038159   8.9726379  45.0965618  31.0843505   4.1421143
  44.5208724  30.3514117   4.3435457  44.5047954  31.8616943   4.3048020
  57.6246058   8.3567265  14.8058775  57.2419203   8.1092463  13.9037530
  58.5703058   8.4068055  14.5833494  55.0175904  16.5707912  -4.5299051
  55.5882343  16.3569814  -5.2938362  54.6350538  17.4425846  -4.8101122
  51.6512290  23.7727654  -0.9699800  52.6449328  23.7473870  -0.9250210
  51.4934762  24.7170877  -1.0235688  50.6961622   8.9965613  13.1553323
  50.2114746   8.1997666  12.8224627  50.0144351   9.2790875  13.8282827
  48.7397160  25.6922851  13.0266259  48.3347113  25.5025506  13.9180268
  48.2542538  25.0778302  12.4992402  44.7501700  33.5292797   2.5043037
  44.3327066  34.3360323   2.8175383  44.6590951  33.6868035   1.5397007
  54.2930234  24.3897069   7.9596979  54.2870660  23.9997932   8.8457588
  55.2215456  24.6256717   7.8323690  55.9189328  31.2606698   0.4391390
  56.5437510  30.6558489  -0.0774492  56.2203995  32.1208410   0.2104950
  55.5367936   9.8636434  -5.7259177  55.3822394  10.0524158  -6.6460453
  54.6734754   9.9816882  -5.3325244  63.2214193  16.0005359   3.9355019
  62.9977567  16.2048368   3.0088012  64.0834789  16.5199840   3.9929602
  51.1904536   5.1721362   0.7081160  50.3490665   5.2147932   0.2597400
  51.7605607   4.9465095  -0.1006137  70.1770111  28.3559147  -2.8777777
  69.8211165  28.4157030  -3.7835203  69.4786365  28.8001512  -2.3508866
  61.3601374   8.8849060  -2.7981005  60.8937826   9.2732387  -3.6135040
  60.8439344   9.4495726  -2.1368658  56.8823560  25.2634766   7.7919076
  57.1829794  24.8763498   8.6701832  57.5095602  24.8176741   7.2262782
  53.5393736  31.8163339  13.2630240  53.9701927  32.6927336  13.4122229
  53.4439224  31.8688819  12.3027413  47.2963839  18.5137279   2.4720684
  46.9727623  17.6052244   2.5131351  47.6214086  18.6497281   3.3810930
  52.2299079  14.0570947  -1.5016366  51.9597841  14.2595001  -0.5775447
  53.0868517  14.4798568  -1.5975995  38.7669461  15.8563997   9.0060127
  37.8245929  15.8694275   8.7976210  38.8619433  16.7369373   9.3047704
  41.6707119  17.1921282  11.0157350  41.9497477  17.8271163  10.3321126
  40.9716359  17.6847630  11.4736579  56.0074090  35.6143340  10.7464017
  55.1053331  35.6573791  10.4127243  56.3126084  36.5084430  10.5567982
  43.4044633  10.5388788   7.2324438  43.4628603   9.6203775   7.5263322
  44.3068753  10.8744556   7.3791520  54.1465516  21.3736443   8.2352254
  54.4104834  20.8383854   9.0150944  54.0964491  22.2607387   8.6790291
  45.1758520  11.8879647  17.4221369  44.8908041  11.0236855  17.0806692
  45.7512174  12.1369576  16.6076862  52.7926044  21.6755547   4.1885602
  52.3499947  20.8527274   3.9152695  52.8724955  22.1082764   3.2918131
  46.7323043  15.1420752   8.3579750  46.0535501  14.4265631   8.3629782
  47.5551053  14.6702304   8.1511708  58.3344544  23.8274003   5.8673567
  57.6694004  23.4947298   5.2238056  58.9587365  23.0677324   5.7953501
  43.9983181  23.6126980   5.7590270  43.9844567  23.7126637   4.7756244
  43.4781061  24.3570286   6.0635965  64.5225216   8.3726945   2.9350317
  64.6077723   7.3928932   2.9598194  65.3929329   8.5843002   2.5176284
  64.9186919  26.5922927  12.1855858  64.3894873  27.4109365  12.0320380
  65.1512824  26.3471257  11.2785459  43.8572265  16.6878516   7.8752207
  44.0925182  15.7221860   7.7495872  42.9516954  16.6214279   8.2345901
  45.6217754  20.9524900   4.8565438  44.9151871  21.4546859   4.3829309
  46.3550609  21.2136008   4.2542191  72.3225947  21.5451393  12.1004700
  72.7197858  21.6091969  13.0119076  72.9687970  22.2086058  11.6744590
  34.7178180  33.0693515   6.8848080  34.3038567  33.7696046   7.3844456
  35.5981050  33.3824866   6.7023233  64.1718943  33.9785686   1.4383657
  63.3580689  34.4077308   1.8245162  63.7434068  33.3370020   0.8030195
  48.8974186  22.7342949  -0.5149186  48.9844728  21.8058194  -0.6207381
  49.8149135  23.0534627  -0.6445622  50.5589805  31.4995840  14.1678223
  50.5185189  31.6447642  15.1523505  51.4731635  31.2153104  14.0222725
  58.2684871  22.3896258  13.0740878  58.6096092  22.2255810  14.0335818
  58.8873928  23.1424893  12.9049730  61.8600912  40.9205491   4.0405679
  62.5908763  41.2575036   3.4364424  61.2291117  41.6724579   3.8483733
  57.9092632  25.9954572   2.2748098  58.5773259  25.3675357   1.9360479
  57.3047097  25.4524229   2.7648906  52.2348900  26.1437134  -2.2905954
  51.6052795  26.6735918  -2.7799739  52.6821778  26.8322531  -1.7545067
  54.2017246  14.2487970  15.8639329  54.7185904  13.5323808  16.3108595
  53.5656983  13.6999685  15.3511188  47.0374918  24.3619070   6.3014060
  46.9159418  23.6039983   5.7281207  47.9953168  24.4490088   6.3210538
  38.2239743  21.8926037  -1.0981884  38.7510624  21.7232931  -1.8942795
  38.8608182  22.5316020  -0.7142191  58.7276242  31.8670248  -5.8304483
  59.3075180  31.9426957  -6.5756772  59.0412219  32.5459998  -5.2019645
  44.1337050   6.5332196  -1.3912162  44.2400594   7.3728234  -0.9316269
  43.6333226   5.9876897  -0.7751323  49.8008162  16.8999493  15.0600303
  49.7680969  16.0686197  14.5087202  49.0448948  17.4064419  14.5927016
  61.4971902  30.0046104   5.5942838  60.5930648  29.8755757   6.0244771
  62.0056504  29.7374437   6.4342928  57.4683319  37.7774852   9.7368441
  57.6869028  37.3123903   8.9029543  58.2061721  38.4225968   9.7356653
  45.8282542  17.7557368  10.7301335  45.5012911  18.4082855  11.4050911
  46.4358170  17.2901928  11.2844031  71.7615590  28.9834645 -12.4833137
  71.9760915  29.3991318 -11.6744207  72.5569123  28.4433041 -12.6068425
  54.5491480  10.9580249   6.3269374  55.4201868  11.0373245   6.8328016
  53.9584297  10.7358806   7.0933646  53.5671460  25.5072492   4.4941033
  53.4040083  25.6927922   5.4427953  54.5042658  25.8286035   4.4288212
  59.3446913  21.8470211  -0.9171588  59.7597054  20.9362234  -1.0033434
  59.2926139  22.0252182  -1.8987534  49.3896077  16.4144302  17.9009540
  49.5502779  17.3354961  17.6625087  49.6173860  15.9687193  17.0577042
  51.9756356  10.5114652   4.0847073  51.5300711  11.3421793   4.4520691
  51.6968779  10.6200862   3.1256952  60.8873991  12.3473643   1.0536937
  60.5353249  11.6132256   0.5269927  61.8030020  12.3392882   0.6716292
  44.0969027  24.2045579   3.0974467  44.3313967  23.3042191   2.8654976
  44.5721304  24.6750229   2.3978556  72.3535419  15.1933588  -5.0169722
  72.9597748  15.2687867  -5.7986385  71.5756734  14.7864650  -5.5359873
  38.4743715  24.2767904   5.9750087  39.3288369  23.8358309   5.7254935
  38.5917962  25.1425205   5.6115090  49.4063206  26.4121806   4.4057991
  49.5390859  25.8708642   5.1551942  49.8017216  27.2458285   4.6656446
  47.2236753  23.9520466   0.9782658  47.8968744  23.4779371   0.3883590
  47.8592257  24.4597698   1.5555442  61.1814868  24.1759324   7.5168073
  62.0071483  24.4947289   7.1330071  61.2919827  23.2050881   7.4622926
  44.4335713  30.7169586  -5.6972663  43.9825084  31.2782668  -6.3687673
  43.9647381  30.8874817  -4.8833476  47.9976923  20.3346054   6.6865553
  48.3112163  20.8212833   7.4270174  47.0436405  20.3802519   6.8668264
  50.0862163  25.1426024   6.8751893  50.8818332  25.5365056   7.3324999
  50.4770946  24.3616338   6.4567467  48.0608943   5.9077249  15.8201328
  48.6984967   6.6483251  15.6789472  47.2228617   6.4262621  15.6009830
  65.0548997  18.9039797  12.9910637  65.8182004  19.1779978  13.5405495
  65.1871864  19.5997048  12.2671880  66.9719864  15.5705863   4.7923960
  66.8513758  15.2182815   5.6845498  66.2883378  16.2752118   4.7090622
  52.2011976  40.7658247  -6.0509041  52.5572805  40.0475559  -6.6632242
  51.2365384  40.7272867  -6.2811198  66.0080071  25.6301455   9.8867811
  65.2731165  25.1002174   9.5459733  66.6041214  25.7365869   9.1011284
  59.1240754  30.8333248   7.7064481  58.7324544  30.4728170   8.5452208
  58.9876745  30.1161640   7.1611844  64.9519791  20.3498614   4.4573748
  65.2022078  20.8577940   3.6284460  64.0036372  20.2695901   4.3117209
  53.6014067  32.0905989   5.9067966  54.0807100  32.3393496   5.0718239
  52.6692613  32.2522282   5.6054048  62.3654206  20.3201225   3.9148185
  61.4662446  19.8966014   3.9312873  62.5485874  20.2677763   2.9308459
  42.8597354   7.2525655  12.1626485  43.1184437   6.7906898  13.0096353
  43.1873774   8.1351349  12.3555762  53.8429182  27.4900264  -0.3978063
  53.8256748  28.3376835  -0.8875148  54.8071083  27.4204288  -0.1809675
  45.6782445  16.3659286   5.4427245  44.8724659  16.8894269   5.2039082
  46.0501681  16.8767560   6.1701702  55.0344159  17.0963427  15.6995755
  54.8593151  17.4099671  14.7853026  54.7407165  16.2348060  15.6626392
  43.1998016  19.5119152  10.2482298  42.5717133  20.2014058  10.0338990
  43.6266608  19.8433045  11.0163256  60.3583453  20.5592948  22.5815037
  59.4764259  20.1639216  22.2730666  60.2112514  20.5487440  23.5461158
  56.8309179  27.8979407   0.5830758  57.0658519  27.1847396   1.2113763
  56.2195122  28.4508490   1.0769262  55.4302103   9.1816752  11.4108050
  56.1129232   8.6707056  11.8918400  55.9251184   9.6181739  10.6852931
  35.7660306  13.7098167  22.3893037  35.7246283  13.2075017  23.2105049
  34.8807413  13.9839496  22.2472656  44.4003922  31.2338640   1.2283044
  43.4998601  30.9298901   1.5503713  44.7617501  31.7524978   1.9561714
  45.5840655  38.3812638  -1.5933812  46.4207477  38.9079045  -1.6675199
  45.9462637  37.6978356  -1.0729493  40.9951919  24.9044859  12.9121374
  41.0557962  24.0220609  12.5099180  41.6834405  24.9033625  13.5741890
  47.3536669  21.3067875  11.7892869  48.0690596  21.0440501  12.3754535
  47.3189578  22.2491194  11.8420223  50.9447903  34.1089934   6.2630225
  51.8521280  34.2392964   6.6946926  50.4818923  33.7744818   7.0391023
  59.7993602  39.4253619   8.9002126  60.0616306  39.3433738   7.9779900
  60.6426278  39.3277335   9.3201156  57.2312934  33.9631748   3.7404818
  58.0252721  33.7868104   3.1721481  57.6447996  33.7634637   4.6261255
  58.0047572  30.9176719  12.5282091  57.5074886  31.7158388  12.2493265
  57.6567873  30.7846782  13.4358936  70.8996399  33.1981605   8.2505640
  71.0527580  32.6218085   7.4625866  71.7148701  33.0561135   8.7590006
  65.2203158  25.5607661 -12.1023944  64.4706628  25.1070294 -12.5494883
  65.1564380  26.4402586 -12.5587246  64.9985413  32.0602452  11.1595020
  65.3134607  32.9822633  10.9978251  65.7092817  31.5911660  10.6880899
  73.1181315  30.9246035   1.9338116  72.8021232  30.7335623   2.7750691
  72.3821832  30.6201037   1.3462004  66.6444634  29.1464237   1.3635352
  66.2965276  30.0596805   1.4836076  65.7018631  28.7507651   1.1569713
  89.9099379  24.6072628  -2.7133283  90.6684947  24.1598745  -2.2457357
  89.1510549  24.2887847  -2.0984967  63.8823885  34.0905363  18.3489231
  63.3621274  33.7173909  17.5810593  64.6528438  34.4999836  17.8590783
  63.5447243  36.4046389  19.9608218  64.4312659  36.6710766  19.6826830
  63.4456152  35.5074799  19.6134423  57.2027271  25.3678213 -10.6506258
  56.7014747  25.3766013 -11.4754702  56.5876136  25.7539417 -10.0334934
  66.0634202  32.0807218   2.2683747  65.3398212  32.7131794   2.2927377
  66.2504394  32.1215317   1.2910643  58.9144337  37.1062687  12.6939609
  59.0932610  36.7599119  13.5890348  59.8141193  37.1451371  12.3595674
  74.3132833  37.4992724  18.0968006  74.6234613  36.6536337  17.6968403
  74.1970072  37.1866822  19.0511950  63.8109389  30.9825978   3.9921979
  63.3112025  30.8096848   3.1833644  63.9184741  30.0994065   4.3639645
  77.7699272  40.5203722   6.4112087  77.8309772  39.9459087   7.2084110
  78.6971995  40.7507104   6.2609823  69.2117602  27.6007728   9.8997766
  69.7763050  28.1111713   9.2973939  69.0047453  28.3301206  10.5418240
  71.7797845  38.1361387   7.8053893  70.8457043  37.7615593   7.9233881
  71.5693565  39.0316863   8.1172212  60.6301640  33.4413992  12.2984854
  59.8407578  33.8614252  11.7731293  61.1428889  34.3514675  12.2827266
  62.7778826  41.4485284  -2.1705977  63.2244347  40.9964254  -1.4345364
  63.5450227  41.8639770  -2.6212931  72.5369409  29.5090457   4.6715013
  73.0411942  30.1480660   5.1834423  73.1435801  28.7381263   4.7956025
  62.1013917  31.2869719  11.8975680  62.3772081  31.2994740  10.9900186
  61.4788693  32.0484766  11.9430339  73.5835314  33.2998366  14.5857965
  73.1003337  34.1220320  14.9170154  74.2304022  33.1806068  15.3000867
  63.3044949  45.9983807  -8.0558695  63.3085989  46.5043370  -8.9105658
  64.0915620  46.4681991  -7.6131819  61.6882087  48.4923765  12.5540004
  62.2211160  48.3008759  11.6980238  60.8061589  48.4794086  12.1556151
  58.6425247  35.1633574   9.9977300  58.8472756  35.8877839   9.3652081
  58.2316942  35.6930113  10.6723540  67.3552106  19.7825852  14.2823872
  67.6976801  20.3841206  14.9953811  68.1189013  19.3139621  13.9969913
  52.2706879  26.2332519   8.1550576  52.8990377  26.8396365   8.5504093
  52.9306249  25.5543010   7.8365467  61.8656258  36.2190326   9.2599078
  62.2511910  36.7840684   8.5753561  61.2408583  35.6580413   8.7527148
  80.4214820  15.4584291  11.0093002  80.3311226  14.5638462  11.3431700
  79.4986252  15.6214119  10.7073399  53.1770019  34.1979126  -9.5929644
  54.0803216  33.9276761  -9.2195258  52.7764994  34.2565554  -8.6369894
  54.2622429  37.4773393  15.7147793  55.1838631  37.7095709  16.0130227
  53.9249034  38.3975913  15.5183470  55.4398551  39.6571411  10.4475153
  56.1202525  40.2536893   9.9917635  55.9541094  39.1546443  11.0563275
  68.4457090  28.9804852  -0.4918448  68.1786736  29.7515939  -1.0093493
  67.7806663  28.8896891   0.2150698  59.0301235  42.4854944  15.6965341
  58.9161598  42.2847931  16.6200723  59.1197959  41.5335403  15.3826917
  63.1028849  49.9820469  -1.6150850  62.4753178  49.4253997  -1.1693111
  62.4889539  50.4306323  -2.2357287  80.5410091  35.6856451  13.6209004
  80.5567776  35.0401332  12.9016472  80.0007426  35.2653907  14.2812616
  58.3494207  22.3887293   9.2184812  58.1539201  22.2778191   8.2762182
  58.6121850  21.4341696   9.4100433  63.8884695  38.1192164   1.1166915
  64.5608363  37.4343648   0.9715900  63.9282311  38.2240821   2.1032600
  60.4823129  28.1502333   3.4495564  60.6011618  29.0780594   3.7872918
  60.5182975  27.6845436   4.3114489  55.7796907  29.3135924  -6.5677108
  55.2458798  28.4985044  -6.6562831  55.0461091  29.9094698  -6.2770674
  57.7277395  34.0946821  -2.4971893  58.2053281  34.4606753  -3.2708127
  57.6962397  33.1363488  -2.7258146  67.8558581  20.9062000  16.5280828
  68.7451866  21.1095428  16.8933116  67.2954384  20.8979770  17.2429416
  63.0354300  25.4223605   5.8167107  62.7050541  25.1606716   4.9934335
  63.2892450  26.3819940   5.5456253  82.5950725  31.7891857  10.0584059
  83.1943785  32.3675208   9.6021860  82.8753164  30.8838509   9.7063430
  80.2650008  31.4341804   2.4885113  80.7268618  31.5858468   1.6393922
  80.8050336  32.0446712   3.0472811  64.3387722  27.8239236   1.3676165
  63.4254470  28.0963836   1.4364400  64.5477398  27.3025286   2.1879820
  61.8660552  35.5347103   1.9532966  61.1157903  35.5338002   1.3277736
  61.7048201  36.3531190   2.4299800  70.0933611  11.6167502  12.3141207
  69.7585607  12.2200568  13.0435395  69.6917292  12.1221437  11.5418893
  72.9494808  38.8450787   1.0305602  72.4099382  39.2540162   1.6887469
  73.5553420  39.6174424   0.7976587  75.2151342  23.5287541   8.6842866
  74.9243591  23.5329696   7.7232396  76.1878655  23.4867736   8.5042607
  71.4455447  27.1296316   3.6300057  71.8593857  27.4481076   2.7757377
  71.3174750  27.9690489   4.0474900  57.2142846  27.1486261  10.2977250
  57.1897822  26.1294233  10.3633877  56.2734473  27.3366600  10.4913237
  64.1115696  51.6462727   0.2843918  64.7919591  51.1225551   0.8512935
  63.9311698  50.9581225  -0.4525832  70.1599689  48.2773241   2.4226734
  69.3682827  48.1276861   1.8532516  69.7764304  49.0229357   2.9954542
  62.1113857  30.8181308   1.8026224  61.5682393  31.2604664   2.4656910
  62.3659441  31.4919462   1.2104053  66.4573286  22.4600196   3.0283741
  65.6030694  22.9044204   3.0624486  66.9247400  23.0686158   3.6346145
  71.2966214  34.5577766  -4.9075828  71.5327065  35.4212141  -4.5555801
  71.7104399  34.5395943  -5.7634839  71.5075057  29.8035852  12.6995753
  71.4691426  29.4505302  13.6485566  72.3494986  29.3549492  12.4220262
  69.2393389  45.2780052   4.1481194  68.9763724  44.7336529   4.9093099
  69.0502691  46.2219944   4.4715673  68.5720559  39.8761604   7.0734644
  68.2280221  40.1767989   6.2495960  68.9040420  40.6715473   7.5020378
  51.4234823  35.7064726  -2.7369985  50.5044264  35.4365337  -2.4419217
  51.1770280  36.5984729  -3.1424477  52.8594189  37.2687440   0.9372473
  52.0411380  37.6288533   0.5404702  53.2623033  36.8867235   0.1063229
  73.7878887  46.3806972  17.9731648  73.5552730  45.9978534  17.0660409
  74.1406470  45.5828910  18.3938382  67.4911524  46.9376288  10.3119077
  67.9972427  47.7614663  10.0792037  66.9370131  47.3874541  11.0138235
  52.0840596  40.3529751   3.5208247  52.4655609  41.2272091   3.8292285
  52.3739988  40.4104570   2.5876617  63.8621412  38.1048653   3.8697154
  64.0708407  38.7138508   4.6315060  64.4409355  37.3370827   4.0998638
  77.2541013  26.3699426   7.7787423  77.3999264  25.4696917   7.3971786
  77.4226494  26.9089644   6.9798090  57.9591145  37.2883309   1.1068275
  58.5495866  37.9372296   1.5578396  58.5933419  36.6353967   0.7781881
  54.3591420  39.3258531   6.4740244  55.0481041  40.0060518   6.5301242
  54.7758019  38.6673144   5.8920034  62.8651151  47.3200600  22.3838253
  62.1761745  47.9440213  22.4142286  63.0129036  46.9702287  23.2595952
  64.5811746  46.3228632  -0.0242846  65.4229526  45.8138518   0.0982958
  64.6327167  46.6087620  -0.9516150  49.3570483  39.9819148   1.8397976
  49.6962856  40.7397719   2.3962433  48.4705890  40.2810194   1.6558035
  62.0257393  43.9924431  12.1198830  62.3371193  43.8841777  13.0127101
  62.4798004  43.3497662  11.6045931  59.7813138  26.9218215  -9.5814450
  59.3678434  27.3866739 -10.3351145  59.1957607  27.1776600  -8.8554818
  64.5998354  51.2475446  10.5178616  65.5782532  51.2008596  10.6893635
  64.2408024  51.5664555  11.3584022  72.2252883  36.8741159  -1.8374326
  72.2603517  37.5009072  -1.0773018  71.4482893  37.1638833  -2.2932488
  68.2260652  33.9420544   3.2086140  67.5148904  33.3069138   3.0247210
  68.4571251  33.6207888   4.1205038  56.1442558  27.6202750   6.8126183
  56.4686899  26.9632838   7.4750118  56.2307762  28.4174311   7.2607309
  50.8915682  32.4469825  -0.4519572  50.4670963  33.2892715  -0.1189198
  50.5810374  31.8154367   0.2383891  74.4326448  27.8100836   4.5969630
  74.5510134  27.8821485   3.6114115  75.3468105  27.4889995   4.7831940
  70.9093663  21.6503296  -1.4592440  70.7077475  20.7398108  -1.8365960
  71.2424283  21.3955615  -0.5721089  63.0652377  38.5342161   7.9251447
  63.7185768  38.5460872   7.1805320  63.6909844  38.2761830   8.6577636
  54.8328761  22.7198533  -4.6144738  55.4432840  22.7624266  -5.3321079
  54.7278219  21.7993662  -4.4915040  72.5285226  19.6397935   9.6811474
  72.5438735  18.8572476  10.3137633  72.6523954  20.3294779  10.3407890
  61.2702993  38.1741880   3.4705965  61.2223759  39.1268362   3.5224162
  62.2278519  38.0207010   3.6618639  59.1192470  23.0135720   1.7748429
  58.4087302  22.3669932   2.1032034  59.2999993  22.5392934   0.9123808
  59.8980049  52.4680039   8.2722716  59.4632836  52.9212471   9.0050459
  59.6461018  51.5431097   8.4705973  59.0579938  46.4423774  -1.2781572
  58.3545246  45.7319327  -1.5014736  58.3630877  47.0982643  -0.9485634
  60.4967180  35.2445675   5.9305326  61.3624922  35.1364371   5.4808346
  60.1838305  34.3060109   5.8146382  52.7257712  41.0811858   1.0426858
  52.5302287  41.9695616   0.7617457  53.6999088  41.0033599   0.8101322
  60.1126542  18.7307464   4.0434796  59.8158710  17.8926032   3.5700552
  59.3968465  18.8475936   4.6323812  66.6995894  40.6864964  14.6167804
  66.5357528  41.0526466  15.4925134  67.5635690  41.0512869  14.3342140
  79.8234173  45.8245392   7.0844517  79.0077556  46.3649771   7.3193150
  79.4304948  44.9277180   7.1141078  66.4020977  39.2399593  18.4827454
  66.0035435  39.8347397  19.1543828  66.5627482  39.9066967  17.7545408
  65.3921288  26.8275831   3.7068382  65.0920389  27.4979494   4.3673446
  66.3594018  26.9279726   3.9008622  69.2035287  37.5690570   8.2008571
  68.2894423  37.1747293   8.2208970  68.9823387  38.3888373   7.7488429
  74.9575604  29.0760989   8.2606106  74.3898736  28.2960663   8.4030595
  75.7705772  28.8238445   8.7611021  55.1651962  41.5313989  -7.2645855
  55.7288094  41.8816007  -6.5355906  54.4840947  42.2238544  -7.3511363
  74.2721148  30.8284516   6.0977301  74.9181493  31.5629037   6.3350367
  74.4559744  30.1790744   6.8672668  63.2303504  38.3842014  11.9079418
  63.6681151  38.1958651  11.0596387  64.0633774  38.3238405  12.4459436
  66.2127435  33.5257154  16.6923888  67.1160138  33.6071316  16.2735259
  66.4421244  33.2987500  17.5898702  59.2664310  49.6443753  -2.9100391
  59.4455996  49.6093395  -1.9913910  59.4566590  50.5932125  -3.1797968
  68.2422059  35.8487957   5.3090058  68.1338713  34.8932821   5.0836802
  69.1933482  35.8451547   5.5886280  62.9959760  19.6369954  15.3147460
  62.9635904  20.4859055  15.7465654  63.9347751  19.4309287  15.2527444
  67.3159902  44.6161713  -2.6176121  68.0055411  44.0670521  -2.9117359
  66.5892262  44.4560083  -3.2046089  56.1979843  39.4957870  18.7759808
  56.9708856  38.8629433  18.8703754  55.4451313  38.9402718  18.8923492
  67.1127730  45.5780331  -0.0221674  67.1791525  45.1647251  -0.8866588
  67.7852770  45.0413282   0.5042477  58.8607499  32.7101749   1.8321373
  59.3850127  32.2975127   1.0719156  58.4287981  31.8232786   1.9997846
  52.5284903  43.0667939  10.2732506  51.6690982  42.9177293   9.9381827
  53.1306762  43.0382265   9.5366818  62.8986902  53.2307210  -3.0689745
  62.7920375  53.0541587  -2.0907392  63.3171384  54.1347176  -2.9487488
  70.9171889  44.1482214   9.3406768  71.7650706  43.9760950   8.8500313
  71.0687457  45.0651476   9.6680238  53.8052458  36.3622569  -1.7485910
  52.9770927  36.1107071  -2.1964918  54.2942112  35.5256315  -1.8355350
  69.7016822  38.0719630  23.6752574  68.6814960  38.2719381  23.6150865
  69.8410350  38.2187072  24.5802667  65.3002401  41.3546816   8.3179648
  64.7934955  41.6923567   9.0525543  65.6710669  42.1290718   7.8572209
  67.9751043  41.2266542   4.6552928  67.4479694  40.8777251   3.8943187
  67.6793116  42.1822913   4.4666842  35.5595962  31.6720116  13.5356647
  34.9914350  32.2484010  12.9874572  35.6401884  30.8888843  12.9834437
  75.3663956  47.0087730  14.3688049  75.6974556  46.1766419  14.7264392
  74.4740121  47.1107197  14.8230541  67.5577811  48.9086115  19.0977365
  67.8781784  47.9723930  19.1006794  67.4589586  49.0373656  20.1075538
  75.9322826  56.6132334  -4.2000102  74.9968844  56.6434542  -4.3869028
  76.0090652  56.0529123  -3.4003024  77.2084603  53.4601431  -4.4724243
  77.6156865  52.8665699  -3.8343581  76.9316045  54.2109504  -3.8721678
  75.2802860  39.6788212   7.9840947  75.9610046  39.6938457   7.3154800
  74.5573417  40.1759088   7.4972413  84.6569349  46.7932319   6.0923497
  84.8560241  45.8348632   6.2041174  84.4814641  46.9680538   7.0599004
  75.4417556  51.2782698  24.8762679  74.7113285  50.6076993  24.7315843
  75.8619534  51.1865934  23.9941830  73.2327690  38.3782921   5.5523630
  73.4025759  39.3537834   5.6677422  72.5122928  38.2109095   6.1542847
  71.4644254  47.7794497   4.5689816  72.2546552  48.3947706   4.4412440
  70.9983876  47.9569097   3.7101570  64.8163709  40.9179748  12.8759732
  63.9341905  40.7181822  13.1557306  65.3077883  40.9414246  13.7349818
  73.6325733  53.4813870   7.8312192  73.5613839  52.5145035   7.7237560
  73.1183872  53.7747909   7.0449593  84.6159374  49.9232409  13.1099561
  84.3300980  49.1453462  13.5788617  84.3770228  50.6567607  13.6860672
  60.7275634  52.1727064   3.6621028  61.6362553  52.4325019   3.8160342
  60.7331715  51.2575747   3.4648605  71.8641423  50.6663199  -0.8892284
  72.1270923  49.7872249  -0.5486976  70.8811445  50.4645730  -0.9344534
  76.8943694  52.8510762  10.6476164  76.7938376  53.7869503  10.9098420
  76.9828950  52.4903205  11.5771986  72.0535224  36.8160001  10.9715718
  72.8952302  36.8291545  11.4486684  72.3094494  37.4351539  10.2401978
  73.0767143  34.7068179   2.7253110  73.3137039  34.0871881   2.0512293
  73.6101943  35.4486085   2.5898701  86.3930578  38.6331171   5.9732823
  86.2016492  39.2160377   5.2127325  86.1064489  39.1854750   6.7109946
  57.5808374  50.0287733  10.0189631  56.7287500  49.6048523   9.8033844
  57.3813079  50.2867964  10.9657604  69.8907842  43.5420426   6.8006272
  70.6472517  43.6599206   6.1846432  70.3040454  43.8652464   7.6211748
  77.6948996  46.2493723   1.3375953  78.3952224  46.4924893   2.0337481
  77.2994776  45.4895345   1.8490579  77.1415782  56.3328783   7.4382787
  77.7386829  57.1282363   7.2367025  77.6969661  55.6539595   6.9941537
  75.3681866  62.9672385  15.1506294  74.4297699  63.1285981  15.2480038
  75.3981698  62.0648659  14.7178909  76.8993672  50.4482002  17.3843722
  76.1286203  49.8073631  17.4185848  76.8398806  50.6995668  16.4606096
  69.8610806  59.0657649   4.4864495  69.0937632  58.9394864   5.0870647
  69.4027443  59.7811590   3.9371317  63.8995740  31.7186539  13.7694623
  64.5473438  32.0242307  13.0915481  63.1709472  31.4539360  13.1239809
  69.8590002  60.0797320  16.7299015  70.5778492  60.5646187  17.2042509
  69.2241529  60.8239067  16.5985382  61.2419383  45.5335008  10.2001061
  60.4668587  46.0551312  10.5258088  61.2894666  44.8163626  10.8412351
   5.2228241  72.9089250  50.6941960   4.8446502  72.4113599  51.4120307
   6.1135089  72.5252057  50.6159019  -4.9031330  65.1692215  60.9704794
  -5.0384295  65.2966205  61.9192535  -4.5032213  66.0057665  60.6760088
  10.0394702  71.1014856  55.3695212   9.4240618  70.3422237  55.3596408
  10.4426375  71.0366262  54.4815474  15.7155341  57.1392602  56.7391246
  15.3664962  56.3697256  57.2432743  15.1920247  57.8830193  57.0909879
   1.8616029  67.1611739  54.7495863   1.1149408  66.5726227  54.9429486
   1.4231569  68.0609725  54.9663041   2.7544497  59.2956675  57.3361034
   3.4117360  59.9635166  57.7119480   2.8140643  59.5502365  56.3686198
   4.0577480  43.1308098  59.9737978   3.8847812  43.6938417  59.1913149
   3.3462699  43.4591446  60.5726515   1.0496148  65.0796916  57.4045111
   0.5096222  65.0454143  58.2017083   0.3060943  65.1578650  56.7448836
  12.9863274  60.1210425  61.8216968  13.4775043  60.9189176  61.5315311
  12.4588544  60.5619582  62.5331184   1.3027666  67.8025971  69.3459581
   0.6586725  67.1853301  69.7356833   0.6766598  68.4215296  68.8969926
   9.6682456  50.6547051  59.0594574  10.2669263  51.1559539  59.6381443
   9.3017819  50.0149924  59.6958196 -10.0604514  67.9013638  54.5391914
 -10.0955938  67.4715519  55.4600272  -9.2797599  68.4583125  54.6971030
  -1.2995554  45.1521340  48.3645589  -1.5990252  45.7774145  49.0246025
  -0.4448546  44.8767566  48.7450775   3.2438015  44.3616493  57.5853453
   3.4892938  44.2276199  56.6653102   3.6056624  45.2298704  57.8009411
   3.7027180  50.0621341  64.0741986   3.4893221  49.8706493  63.1321048
   3.0191148  50.7091476  64.3050915  17.4765385  57.0641125  69.4188865
  17.1698784  56.2103223  68.9997645  18.4367737  56.9313260  69.4266111
  17.3237536  56.1460601  61.4304693  17.6938343  55.2877366  61.8016744
  18.0681643  56.2989984  60.7638255  -7.3536148  53.5437680  51.3214999
  -7.9687730  53.1371128  51.9964910  -8.0153518  53.5919132  50.6151978
   2.8765180  64.1342350  51.3680793   3.6373240  63.4590371  51.2525238
   2.6582866  64.2338804  50.4052457   3.3659756  66.5224801  58.4429045
   2.5943478  67.0587793  58.8262624   2.8664205  65.8274656  58.0148754
   0.4824533  69.2618077  55.9799684   0.0364853  68.4717881  56.3994954
  -0.1788346  69.5226618  55.3255740   7.4098029  56.3615684  52.8985238
   6.5080934  56.3719401  53.2393766   7.7068059  55.4969762  53.2007514
  -5.8948033  53.7140798  56.9441894  -5.0996529  54.2564347  56.7609533
  -6.2383823  53.5829672  56.0040997   3.3201195  60.5812654  51.9537053
   3.7581513  61.4020878  52.0223463   2.8885907  60.6536199  51.0580493
   6.4228161  75.8426399  59.3787173   6.3369120  76.7631323  59.6659655
   6.2239360  75.8911405  58.4454153  11.9267860  80.9557309  48.6335963
  10.9984017  80.8866885  48.9277620  11.9518251  80.5834181  47.7656623
  -3.8320556  69.9882796  55.6036064  -3.6444292  69.6572678  56.4852629
  -4.5017082  70.6746027  55.7155083   7.7890348  75.5309647  62.7457557
   8.5709698  76.0228514  62.2542244   7.3248759  76.4044500  62.9355980
   1.9237975  71.7333880  53.8427127   2.7586935  71.7521207  54.2758895
   1.6884999  72.6330364  53.6473508   4.4366392  74.9711417  61.8003163
   4.1679437  75.5834668  61.0910632   4.0645764  75.4814441  62.5672303
   8.8931376  57.9661136  54.6680982   8.4890120  57.4908511  53.9625044
   9.0399876  58.8461569  54.2438603   3.0351513  70.2066340  63.0638727
   3.5534457  69.9700319  62.2218795   3.3820812  69.4967818  63.6243816
   3.4819970  67.9055544  61.5207694   2.7994236  67.8348639  60.8855809
   4.0655369  68.6017703  61.0701754   7.2365455  82.9136668  59.7462608
   7.5378945  83.1702296  60.6516502   7.8693837  83.4196851  59.2124369
   9.9003071  85.4693896  64.0551741   8.9721370  85.2840583  64.0289370
   9.8253069  86.4174924  64.3762728  15.9493379  77.7877187  61.6251701
  15.7712216  76.9411158  62.0591342  15.7486282  78.4304226  62.3070235
  -1.4341524  75.1516120  56.1702344  -0.4398045  75.3153927  56.1594479
  -1.3966135  74.1722935  56.2195322   4.1601590  59.2716882  44.4905950
   3.2175679  59.3681307  44.1594313   4.5567403  60.0542171  44.1180191
   2.8757688  86.1902642  58.6219714   2.0323828  86.5390194  58.3901499
   2.7439745  85.4733123  59.2278690   9.2398547  71.8687166  59.2566929
   9.0437222  70.9574887  59.5351412   8.2819513  72.2356155  59.3799405
   0.8439005  69.8387073  52.3726372  -0.0569553  69.7526248  52.7166383
   1.1956640  70.6059448  52.9703691  -2.2104157  56.3935556  64.7347173
  -1.3589445  55.9840140  64.5238691  -2.8177782  55.7146888  64.5153303
   4.1601015  68.6858274  51.2449030   4.5958896  67.8702197  51.5433874
   4.0772455  69.2082154  52.0185402   4.5933627  60.5400016  62.9109178
   4.7036892  61.4972615  62.9331687   5.3821674  60.2747493  62.3170691
  17.0973760  63.7648238  41.5121900  16.6057407  63.6340986  40.6635606
  17.2142221  62.7774256  41.7046024   9.8736904  79.5261384  56.0099984
   9.3188498  78.7201271  56.0369292   9.1998609  80.2070706  55.7607236
   8.7570310  77.6491445  48.7932740   8.1534583  76.9874601  49.2094335
   8.2896607  77.7694550  47.8727856   8.2625231  74.6059638  39.7535519
   9.1395409  74.7029486  40.0679098   7.9016272  73.9760204  40.4045211
  -0.3481266  54.5167893  35.5612875  -0.8723724  54.0270635  36.2033762
  -1.0504660  54.7191619  34.9081481   6.6693205  70.6893167  47.2385963
   5.7860183  70.3104059  47.0361007   6.6683568  70.5469034  48.2338812
  -4.2637783  36.8020184  43.5060282  -4.3366837  37.2480545  42.6663418
  -3.5750001  36.1488197  43.3161133   8.2099509  45.4687141  47.0256245
   8.1465960  44.6735711  46.4160382   7.4771082  45.9834114  46.7114269
   4.4602360  39.7654726  39.2921406   5.2689073  40.0632022  39.7626653
   4.1728614  39.0253011  39.8670997   4.3499248  44.8995560  35.4568888
   4.7269932  45.7109677  35.0397982   5.1360211  44.3368667  35.3763576
   7.1413010  45.0141973  37.1611335   7.4455438  45.6262355  36.4712562
   6.5637036  45.6003539  37.7090643  -2.5046038  40.9999431  35.9045336
  -2.5108196  40.9787841  36.8946563  -1.5468814  40.8779489  35.6742018
   4.4641382  38.3226000  34.3769306   3.6332554  37.9976882  34.6571144
   4.8078303  37.4925303  33.8977336   5.0728988  42.9412410  42.9001752
   4.9348444  43.7272042  42.3410830   4.2244508  42.4460658  42.5988764
   7.5849369  50.7763332  53.2009558   8.4421131  51.0545220  52.9094123
   7.0106251  50.8924096  52.4309023  -2.7982879  36.0570269  37.4684548
  -2.0340778  35.5381310  37.7274008  -2.4643894  36.9803532  37.4314701
  12.7146643  38.3700444  40.2281546  13.4947934  38.7938715  40.6490276
  12.0800791  38.4888566  40.9462650  -6.0954530  47.0748203  42.9535342
  -5.1590322  47.1204961  43.2867882  -6.0459051  47.5139173  42.1558855
  16.1606172  39.5169435  45.1540695  17.0812499  39.7543275  45.1538410
  15.7972658  40.1402812  45.8068156  -2.9298176  48.2886854  53.3536459
  -3.5178161  48.8341197  52.8143991  -2.1252316  48.3846265  52.8012201
   7.7940343  44.2471214  43.0498486   6.9991447  44.7110124  43.3773838
   8.0451049  43.7691147  43.8511395  11.8070686  42.3943475  31.4892151
  11.1871069  42.4260463  32.2493559  11.1781479  42.4807640  30.7517470
   4.4977852  38.8104133  42.1026938   5.3183991  39.3887700  42.0948274
   4.9771865  37.9963320  42.4057100  -3.3671912  45.1837788  31.5553096
  -3.2225250  46.0347143  32.0166803  -3.8731930  44.7429114  32.3001956
  14.7263533  39.0585760  36.5747385  13.8700855  39.0775138  37.0893685
  14.6436353  38.1186948  36.2727103  -1.8904046  34.2091830  34.4865348
  -2.7756671  34.3980224  34.8785112  -2.1297516  33.7437376  33.6853949
  14.0529843  51.7484173  50.3170507  14.9613730  51.7080365  49.9144735
  13.6206061  52.3860374  49.6235219   9.0853216  49.6917402  35.3931234
   9.6200679  50.3345648  34.7846499   8.4748384  49.4245257  34.6901611
   1.4993530  39.2340891  49.1383875   1.8953962  39.1385083  50.0591606
   0.5713202  39.2881978  49.2782391   1.9478660  32.8456235  37.9312774
   1.1050449  33.2410038  38.3266433   1.7271950  32.9062843  37.0102887
  -1.1362019  30.6610206  33.5455003  -1.4754191  31.2305616  32.8751964
  -0.3766592  30.2177838  33.1035403   2.7719845  24.5913992  36.6875416
   3.4211213  24.9979075  36.0550907   3.3853540  24.5367430  37.4806532
  11.5157886  54.6515220  48.7728390  11.1134901  53.8142695  48.5414277
  11.9102168  54.9538916  47.9045949   1.2966933  48.6951066  37.3411838
   0.8760845  49.4333625  36.8053307   1.2482279  48.0202493  36.6284778
  -1.0354682  60.9496026  49.5273513  -1.7100273  60.3677032  49.3290203
  -1.0962348  61.7370044  48.9303662   6.3065368  64.2814300  24.3765573
   6.0169303  63.4048455  24.7327229   6.2152432  64.8112713  25.2360765
  -0.2854964  63.9309371  30.9855298   0.3148338  63.3072939  31.3678384
  -1.1109131  63.9678050  31.4055228   4.6362151  53.3861965  48.9771690
   5.1064705  53.9323640  48.3576574   4.0628985  54.0603464  49.3638089
   4.2252444  59.3591689  47.0804379   4.2114408  59.1572594  46.0840068
   3.2685953  59.2292343  47.3014851   4.3169322  47.0376977  28.9931262
   4.5395693  46.0892633  29.2224325   4.0584641  46.8671653  28.0374721
  15.7291882  58.7850195  42.3004132  15.2378957  58.4199109  43.0903735
  15.0585501  58.6923409  41.6320431   6.0733271  66.2550993  31.6537434
   5.4779044  66.3886896  32.4328092   6.7172798  66.9471992  31.8550616
   4.5688490  53.7145033  42.7011817   5.5349669  53.7033918  42.5668144
   4.5293395  54.7172488  42.9841706   5.6133337  52.2944603  28.4809455
   4.9623709  51.6720068  28.7858284   5.6430053  52.8493565  29.2704385
   8.9239753  61.4028400  47.5512456   9.2343676  62.3040903  47.7622843
   8.5348214  61.5340363  46.6567569  15.9067507  57.2447315  38.4417212
  16.8273704  57.5628860  38.3793632  15.4538585  57.8796927  38.9929084
  12.6708891  47.6009915  32.4058399  12.5695340  46.7161574  32.0473465
  12.2383675  48.1843512  31.8390852   4.6226383  56.9466583  34.1698448
   4.3232737  56.1474275  34.6231020   4.7406157  57.6126923  34.8741397
  18.5285842  61.1260753  34.3044328  17.9169951  60.4789580  33.8711941
  17.8636035  61.8641677  34.3704243   4.6278933  47.0381333  26.1701903
   3.9087700  46.7764202  25.5538844   4.6323782  48.0096907  25.9306923
   9.6196617  65.3304167  34.0558432   8.7412890  64.8762182  34.1829656
   9.4097042  65.7346420  33.1807704   3.0996941  44.9795740  44.9066534
   2.9257099  45.4175287  45.7843582   3.3150140  44.0933246  45.2191445
  15.2462137  48.8533103  43.4488622  15.9098112  48.9031193  42.7074563
  15.7162205  49.4256399  44.0869007   7.9613423  53.7829970  27.0236333
   7.3475770  54.5110261  27.3299275   8.7780123  54.0648885  27.5140109
   2.4436381  54.7026956  59.2368977   2.9132537  55.5296791  59.1284509
   3.2394764  54.1181122  59.4157919  11.0595586  54.5348858  37.2293287
  11.8556556  53.9290701  37.0817915  10.3938558  53.7770157  37.1762971
   6.0332936  51.4952488  61.8224070   5.0926600  51.1359144  61.8997084
   6.2340922  51.6121552  62.7551705   6.0299450  55.2813581  36.8717001
   6.6603953  54.8049533  37.4495243   5.4273937  54.5480734  36.6230901
   9.9487803  67.5512008  35.6443485   9.1357933  67.4164248  36.1585612
  10.0192439  66.6821998  35.1166570  13.0345930  55.5271352  55.6152687
  12.1279987  55.2369427  55.5301592  13.2102841  55.4533287  56.5698027
   4.6862436  58.2401307  51.8751814   4.1150098  58.9952602  51.9578217
   5.1505249  58.4313371  51.0437964   2.1550564  36.3279761  33.9787202
   1.6857136  35.5564545  34.3434706   2.9572768  35.8346343  33.6199968
   0.1133170  67.3519503  39.9468604   0.3730903  67.5768540  39.0124769
   0.9846343  67.4312278  40.3641528  11.1665333  52.3207818  42.8079826
  11.9161399  51.7699911  42.9935644  10.4390306  51.8564446  43.3192407
   1.8405708  66.1902245  44.5531514   1.4484159  65.7599239  43.7274116
   1.4240493  67.1202204  44.4273466  -3.4387625  51.6128704  50.1735350
  -2.6054565  52.0999937  50.0439047  -4.0695708  52.3664518  49.9494580
   6.9440692  57.5203642  38.9336338   6.2707942  57.0524867  39.4274237
   7.4655654  57.9079618  39.6809540   2.8346574  51.1307485  54.1737129
   3.2487228  51.3886039  55.0794662   2.1995487  51.8856299  54.0862345
   5.1459444  63.1623657  41.8902890   5.6203642  63.9032236  41.4540794
   4.2737238  63.3202231  41.4413752  -2.3414467  45.2249982  43.0444447
  -2.4498605  44.3437461  42.7234233  -1.8708940  45.0602678  43.9576964
  -0.6588288  37.9146418  36.8944402   0.1312477  37.3903927  37.1384034
  -0.5229112  38.7427632  37.3363912  12.9592623  57.6718818  53.8015535
  13.6156189  57.4062554  53.1647642  13.2064450  57.0684751  54.5231863
  -0.2309210  63.6449659  61.9101374  -0.9425170  63.7315807  62.5610876
  -0.1905801  62.6604627  61.8418472  -4.1693056  58.7898855  37.1681683
  -4.4216813  57.8192575  37.1314876  -4.5161975  58.9734921  38.0708873
  14.9658359  42.1647957  43.0474967  14.3282417  42.6167266  43.6313571
  14.7363045  42.6035609  42.1914692   5.8883510  63.3462437  37.9571625
   5.6202609  62.4729580  38.2471256   6.8506040  63.2234423  37.8553913
   6.3129062  51.0384676  41.3679062   6.6933845  51.5951949  42.0722471
   7.1149544  50.6188553  40.9954425  12.7335123  41.3535122  45.5754591
  13.4726633  41.7080159  46.1270329  12.5059289  42.1802064  45.0738408
  -9.6287121  39.7525756  42.5915554 -10.3832112  39.5029173  41.9614085
  -8.8865968  39.2097336  42.2173928  12.2876783  53.6221514  31.8350422
  12.4320143  54.2155681  32.6678095  12.4761560  52.7716906  32.2514171
   4.4170104  66.1702602  33.7479130   3.4882853  66.6269094  33.7091967
   4.8077045  66.9876712  34.2578319   6.3276102  53.9968379  45.3263135
   5.8717818  54.3362026  46.1206861   6.9162426  54.7844700  45.1519987
  16.9554637  56.0590774  31.1316176  17.3636837  55.9920741  32.0147334
  16.0369691  56.2779411  31.3530859   3.5662448  50.4398759  40.5181420
   3.6646857  49.6802754  39.9021623   4.4969368  50.6931753  40.6558763
  10.9066691  57.3248340  52.2046617  11.0694959  56.3987998  52.0194251
  11.6234788  57.4753753  52.8920498  -5.4295152  47.0195677  28.0772649
  -5.6682089  46.1771442  27.6042940  -4.4385654  46.9233448  28.1263772
   6.9701988  62.4026877  32.7126381   7.9202172  62.3077417  32.5218013
   6.6303924  62.1952280  31.7752047  -5.2980478  69.2423176  32.2955975
  -5.9146743  69.0932631  33.0384827  -4.5895708  69.7400493  32.7150048
   5.4537929  56.1982996  31.7701633   5.0777090  56.4470712  32.6770490
   6.3177587  56.6943013  31.7790674   7.3509873  52.4910471  43.3596506
   7.2244521  53.2308516  44.0644951   8.1208732  52.0395068  43.7904295
   4.8928267  57.9979673  36.7770243   5.6346758  58.4444048  37.2063361
   5.0461262  57.0676136  37.0009040  11.6650152  68.4752252  32.1091587
  11.0818292  68.9818059  31.4464729  12.5143816  68.8595776  31.8753167
   9.8642829  57.8769267  33.1717131  10.1186256  57.0536590  33.6432983
  10.6232484  58.4578670  33.3525702  -1.6226980  59.5913025  37.8785574
  -1.9449623  60.5263840  37.8648704  -2.4465899  59.1559343  37.4738506
  13.2963119  51.1431339  40.6226779  14.2249626  51.0101529  40.3855899
  12.9073123  51.2841889  39.7511336  -8.9825287  60.3371502  30.1252708
  -8.7660204  61.0186326  30.8305300  -8.1887767  60.5179938  29.5475296
   0.7874733  52.4630030  28.4294437   0.1959741  53.1133363  28.0279051
   1.6846837  52.7270271  28.2010865   2.0838049  58.5179641  32.3670870
   2.7306368  57.7808244  32.5015339   1.2259336  57.9762556  32.5890729
  -0.9937595  62.2698780  51.9369813  -0.9972227  61.9627738  51.0000466
  -1.8858647  62.7618750  51.9064685   5.9587512  55.5902417  47.8659594
   6.6164547  56.3018393  47.7452093   5.4118863  56.0372637  48.5812407
  21.4772868  64.8457502  41.6614934  20.6399964  65.3008488  41.5295859
  21.4968362  64.2305909  40.8627315   1.8354998  48.0468485  43.4679153
   1.3915173  47.7715688  42.7099209   1.5063343  47.4906036  44.1896786
   2.9147610  53.7940305  45.1692956   3.6091816  53.8295427  44.4652302
   2.1521122  53.4349837  44.6176887  -9.5379918  59.4756648  43.4375204
  -9.0470746  60.0829937  42.8812478  -9.7424612  60.0258773  44.2431649
   6.6046219  69.8027635  49.8969267   5.8449424  69.3724271  50.3403520
   7.3570071  69.4783003  50.4195610  23.3739611  66.2314799  38.8411645
  22.7512707  66.6558695  38.2573624  22.8316636  65.8847394  39.5282274
   8.1929789  53.2802679  38.5305068   8.7219076  52.9370431  39.2548026
   8.5688673  52.8041165  37.7681583   5.3427060  60.7735516  38.6744854
   6.1144811  60.4162228  38.1962711   5.1555190  60.0382191  39.2371567
   5.3271085  62.6616678  56.5029365   4.3499034  62.6985549  56.2857417
   5.4548413  63.6450994  56.6690013   8.5346340  54.0090815  50.4077891
   9.0834159  53.9134159  51.2195797   8.4555342  55.0011474  50.3945131
   0.3628990  55.4090033  45.0014357  -0.1156107  54.8194764  45.5903860
   1.3111463  55.2035985  45.2750970   4.6000554  51.1933242  44.4555532
   5.3583971  51.4961943  45.1213721   4.6758020  52.0438199  43.8864425
   0.8805450  65.1044178  35.9725533   1.8143399  64.7438958  35.8983456
   0.4245498  64.2843777  35.9090849   1.7029296  50.5640543  42.5044531
   2.3777885  50.4926235  41.8515745   1.8661987  49.7574983  43.0726429
  10.3643667  64.7962482  47.0634638  11.1619794  64.7456294  47.6063970
   9.9021040  65.5797190  47.4656595  -5.6549921  55.7935243  54.1653920
  -5.2026940  55.8311087  53.3300052  -5.0614211  56.3019745  54.7512293
  -2.9355444  63.8353438  50.4874799  -3.2603779  63.4022792  49.6880669
  -2.3619825  64.4941910  50.0896665  -5.5430561  52.2480197  62.4045293
  -5.7832600  52.3179541  61.4377951  -6.3058339  51.7510220  62.7543568
   0.0784032  75.5010016  31.5308910  -0.6885393  75.0915524  31.9592516
  -0.1429592  75.1830508  30.5942401  -2.7581124  60.2456248  26.5061850
  -2.7874693  60.2876632  27.4887835  -1.7681702  60.1708469  26.3997845
   1.6503517  61.1774911  49.7395671   1.7106794  60.8130460  48.7947317
   0.6788531  60.8944445  49.8578067   7.1466744  63.6492187  47.9737594
   7.5900771  63.7638962  47.1030856   6.3630519  63.0883912  47.6384431
  14.7598480  48.5480225  36.6623098  14.8094517  47.8257066  36.0303534
  15.7039469  48.6882043  36.8882813  16.4967939  61.4274411  42.7777054
  15.6320671  61.8334584  43.0063745  16.2554545  60.4840753  42.8465195
   5.5438172  61.5884357  43.9999762   6.5186666  61.6023694  44.1471372
   5.5182709  62.2355518  43.2174960   9.4405236  62.6033100  35.5484971
  10.2039916  62.0180207  35.6899187   9.3671101  62.4479234  34.5527918
  17.3654527  44.1195426  45.7341125  18.0803764  44.3602923  45.0703117
  16.7249839  44.8970969  45.5319128   8.7009185  57.0691093  50.5767118
   9.6037457  57.2430584  50.8923285   8.2155482  57.1641578  51.4612624
  -3.1319298  60.8432902  32.9911707  -2.1631363  60.9042036  32.9012318
  -3.2208376  60.0108832  33.5349637  -3.8698370  76.4233497  38.5686860
  -2.9216562  76.6754587  38.5040896  -3.7068998  75.4226463  38.7304847
   5.9668904  48.9674501  50.8653018   5.9373294  49.9271701  50.7359905
   5.1191991  48.8757450  51.4128714   7.8254901  73.9178709  45.2387578
   8.1586018  72.9970491  45.4227994   7.7227486  74.2343527  46.1329308
  11.0907802  60.3823250  38.2051256  10.6071698  59.5115576  38.0479988
  10.4935246  60.6621827  38.9854754  -1.0507716  72.5122682  54.3673601
  -1.0131180  71.4922786  54.4366223  -1.1837795  72.6401484  55.3543922
  14.8877608  54.9172236  39.9489216  15.4943471  54.3250490  39.4261772
  15.0741384  55.7950940  39.5918568   5.3574249  47.1492457  48.7409757
   5.9060824  47.4302477  49.4540735   5.3516962  46.1640786  48.9425108
  -1.0229115  58.5254766  30.0609211  -1.0619854  57.5369847  29.9182300
  -1.9818301  58.6908007  30.3667642  -5.7049813  36.0366336  29.6716914
  -5.3030277  36.9608496  29.6213191  -6.3905128  36.2208308  30.4127420
  10.8198068  48.4273670  36.7531087  10.8507187  47.6387049  36.2218914
   9.9035222  48.7605263  36.4695558   2.1442446  40.9232217  38.5630309
   1.8566485  41.0253078  39.4937462   3.1120783  40.7519520  38.7755355
   8.5150766  43.6806980  40.0552053   8.7501072  43.6089380  39.0713977
   8.9650987  44.5140566  40.2424161  -3.1864215  61.3177603  20.6642878
  -3.6645846  61.3060933  19.7904622  -2.2963708  61.4774500  20.4216565
   7.0384545  66.6075263  36.7234482   6.3665932  65.9184117  37.0048631
   6.3967644  67.0865988  36.1100828   3.7576545  53.4234843  32.6481074
   3.0299525  52.8122085  32.3779341   3.2030371  54.1428791  32.9868853
   9.3604795  49.6308795  46.5395438   9.4450063  50.2425538  47.3004862
   8.4302634  49.3978548  46.5656153  11.8741371  44.7912472  33.2751819
  11.3070104  43.9897101  33.4400819  12.4848439  44.4247415  32.6365885
   9.7640819  61.6836479  40.1199717   9.1963239  62.4807179  39.9848403
  10.4855998  62.1158935  40.6384386  11.6956705  43.4452751  41.6900261
  11.0602545  42.9262878  42.2418025  11.0608142  44.1465877  41.3483886
 -10.2321228  57.8590847  29.9690673  -9.9153233  58.7691432  30.0943267
 -11.2061238  58.0829631  30.0048476  14.5916327  58.2228292  34.3751233
  14.3706578  58.7139085  35.1933008  15.0776503  57.4833269  34.7324251
  -0.2482632  57.2582136  33.3836527  -0.9075956  56.5675260  33.5220761
  -0.5854363  57.9663482  33.9416160   8.8103357  60.4601377  30.3715172
   7.9966150  61.0183244  30.2070296   9.4723523  61.1552242  30.3627909
   2.4447756  64.2771879  46.1155563   2.2092181  65.0974376  45.6298182
   2.2348610  63.6097979  45.4464517   8.1731128  63.5823311  42.9891002
   7.6064352  63.5956822  42.1926105   9.0712571  63.6305059  42.5123713
  -4.2187022  61.7618039  46.5732623  -5.1332158  61.7732769  46.9930888
  -3.9015493  60.9053173  46.9861286  -4.4055871  47.8558538  55.6359664
  -3.6594003  47.6088368  56.3025479  -3.8550035  48.1580282  54.8594301
  13.6758813  52.2063761  47.4900447  14.4731022  52.4845508  46.9678175
  13.2638700  51.5609131  46.8294743  11.3110877  68.8678004  43.3632404
  11.7825519  68.0345995  43.1081221  12.0960996  69.5078641  43.3741711
  -3.2419701  70.9795717  33.1708417  -3.0465753  71.7539614  33.7155064
  -3.2738284  71.4640726  32.3149598  -1.0648083  44.5364731  45.1837829
  -1.0194124  45.0803573  45.9690932  -1.6097165  43.7712162  45.5601371
   0.4101087  49.3634566  53.5742699  -0.1271732  49.8791121  54.2426671
   1.2856581  49.7894013  53.7006864   9.1839229  58.0063521  46.0905096
   8.5867015  57.2925377  45.7061707   8.6666390  58.0318713  46.9745225
   9.8358133  53.4644501  30.4607056  10.7771909  53.2912934  30.7320483
   9.9454941  54.2048167  29.8704676   6.5025705  48.1865340  46.3974544
   5.8969904  47.8301269  47.0952724   5.8415077  48.5468429  45.7644203
   8.7627320  49.3323168  40.5372021   8.4295723  49.4705074  39.5859417
   9.4614751  48.6773879  40.3335039  11.6919252  39.7296786  42.3225615
  12.4397276  39.6090726  42.9516175  10.8981691  39.4162520  42.8463557
  -3.1424737  63.3314823  34.8756065  -3.0785238  63.5164143  33.9396945
  -2.1562715  63.1298909  35.0127334  14.3484567  57.7275877  44.3561564
  13.3917744  57.8831952  44.6971688  14.6340226  57.1578057  45.1240913
  10.0747797  42.0981486  43.3428540   9.8411338  41.1815190  43.4947734
   9.5377221  42.5492733  44.0492318   1.8067216  62.8538725  32.8679255
   2.3425790  62.5075978  33.5643116   2.3772180  63.6198242  32.5849663
   7.9767905  59.2642080  34.5599728   7.9271516  58.3655308  34.9952908
   8.6357993  59.0988499  33.8757378  18.6181233  57.9425816  38.3383458
  18.9015626  58.7938910  37.8275976  18.4282821  58.4328514  39.2017977
   7.4374986  62.0184586  22.8062610   6.9282442  61.7177583  21.9692287
   6.8803746  62.7976138  22.9821034  12.2508266  47.7215738  49.0632594
  13.0511252  47.9391970  48.5792517  11.7202814  47.3131751  48.3195582
  13.1326538  46.4276076  38.5999905  13.5015065  46.6580835  37.7015410
  13.9034136  46.4364012  39.1447595  -2.1040192  57.8665507  47.3564820
  -2.4792415  58.3028492  48.1495969  -2.0349027  56.9703639  47.6373404
  14.2227235  56.2306929  31.6228919  13.6523220  57.0178662  31.4549398
  13.5880261  55.5937755  31.9081141   3.8040416  47.6148422  33.1863735
   3.1159753  47.1202176  33.6900416   3.2706383  48.3509599  32.8757926
  12.8921160  34.9508810  45.7533216  12.3237008  35.1817566  44.9997147
  13.0424568  35.9339543  46.0526447   0.7023197  57.8349577  53.3039281
   1.0935065  56.9210082  53.4409975   0.9014784  57.8873618  52.3055629
   0.6933435  60.9317683  36.8960753  -0.1234838  60.5977214  37.2451846
   1.0840506  60.0940881  36.4539840  12.9754899  49.7445718  30.2261080
  12.2953077  49.0877221  29.8913708  13.4447545  49.9373950  29.3600983
  10.0100631  45.5041377  50.8508260   9.3969428  46.2699450  50.9642194
   9.9605622  45.3746804  49.8914281   5.5735979  59.1054824  49.5253049
   5.1362244  59.1432770  48.6041707   5.9317879  60.0131458  49.5846055
   3.6387337  50.8847134  46.9156621   4.6031928  51.0961551  47.0357192
   3.5894035  50.8909317  45.9092505   7.8739550  60.7516764  37.1256779
   8.0709492  60.1376553  36.3435033   8.0970303  61.5815224  36.7088982
  19.9618466  68.1147123  36.3200496  19.2143527  68.4712156  36.8466848
  19.5872054  68.3131608  35.4277527   2.3083168  68.0566465  33.7328696
   1.9703060  68.9800702  33.9033826   1.4431722  67.5861976  33.9084864
   8.2601354  47.1658182  30.4758451   8.1429115  46.3947156  31.0493939
   7.5412848  47.7810382  30.7309394   0.6560403  47.2316047  32.5566016
   0.2389874  48.0216067  32.2827698   1.0510688  46.8840034  31.7808185
  -0.9943987  64.6534903  45.7067125  -0.3166004  64.0350858  45.3374061
  -1.6192393  64.7970067  44.9379579  11.0772880  51.8838275  48.4734830
  11.8692545  51.9473283  47.9654956  11.3619431  51.3231471  49.2248408
  -5.8333947  41.8248506  18.8160911  -6.5783542  41.2207684  18.9047488
  -6.1064180  42.6587921  19.1667892  -7.0832034  62.2845544  54.9679608
  -7.7804919  62.9244975  55.1575851  -7.3702038  61.8780607  54.1616399
  -7.3535446  75.3521471  39.0141877  -7.7972850  75.3461188  38.1496578
  -7.7382540  74.6367224  39.4913420  14.4747940  32.0589935  34.5014124
  15.3744456  31.6226351  34.4164439  13.8755500  31.3426099  34.2308105
  28.1418962  62.3462829  38.3957224  28.3864615  62.9785776  39.1116675
  27.5480098  61.7339442  38.8630302  -5.1864422  83.1860559  48.1574723
  -4.2178193  82.9651519  47.8925246  -5.5644326  83.3466639  47.2988648
  14.3994290  59.4127638  28.5113364  14.7488975  59.7604804  29.3872796
  15.2593814  59.4725208  27.9927943   3.3046809  78.2889907  52.7442921
   2.5656014  78.8164821  52.4164760   3.5226479  77.8245266  51.9033910
   7.5752136  74.3142366  37.2958183   6.8247444  74.9356794  37.3625464
   7.9710178  74.4079126  38.2009280  14.9992638  70.0437011  51.4297316
  15.5215434  69.2114599  51.2770427  14.2009438  69.8682614  50.8822251
  11.4821652  74.5816026  21.8072157  10.7276079  75.1033533  21.4129389
  11.9393037  75.3417974  22.2635283   9.6492136  70.2841082  50.7971879
   9.1830978  69.4412336  51.1061302  10.2935552  70.2528806  51.5424670
  13.7677617  66.4838858  33.4821375  13.0893815  67.1446111  33.5367333
  13.2604931  65.6462538  33.4512890  28.0503774  66.3128625  37.7100346
  28.7507268  67.0236122  37.8993486  27.3050061  66.7499865  38.2105998
   6.3857376  78.7774138  34.0011680   6.2923959  79.7680855  33.8990997
   6.1981236  78.7217133  34.9540421  19.0730388  62.4405540  38.1438578
  19.4808829  63.0074560  38.8000448  18.6872878  63.1308275  37.5216813
  19.7662436  69.9445251  31.8397003  19.6154235  70.8274131  32.3087042
  20.7324542  70.1208803  31.6792175   4.7358656  60.2697921  41.4007766
   5.3380718  60.9186425  41.8742743   5.0961726  59.3885847  41.6448738
  14.0796330  79.4233959  44.7570545  13.2746468  79.6886397  44.3327321
  13.8523226  78.5598546  45.1320325  22.5031193  68.5289196  37.3316807
  22.1726217  68.9389877  38.1368346  21.6237306  68.2989788  36.8990289
  16.2963337  60.8625716  38.3423298  17.1946819  61.1383872  38.6895145
  15.7923450  61.5946865  38.8383208  -0.3591592  67.0248385  47.2732003
  -0.7906752  66.2219533  46.9006738  -0.8443267  67.1253379  48.1048658
   7.8215836  64.0116313  51.5389922   8.3484081  63.5272238  52.1534964
   7.1162091  64.3847817  52.1431785  26.5381286  65.1139364  40.4096293
  26.0907518  64.6440145  39.6356709  26.2808541  66.0182939  40.1345482
  17.3619217  75.5179928  26.7905718  17.4373184  74.7582644  26.1934865
  16.5911288  75.2466192  27.3558947  17.5709975  62.5120767  54.5947376
  17.6465066  61.7136499  54.0668361  17.4530525  63.1761418  53.9561703
   4.5030025  66.0898787  51.9337076   5.2232657  65.9061983  51.2708518
   3.8667747  65.4091749  51.6921074  11.4308229  63.0885992  41.8792150
  11.9771432  63.3425924  41.1377382  11.2762537  63.8677113  42.4199571
  16.1984535  70.5160831  44.9107748  16.4139810  71.4879572  44.8753804
  16.7653070  70.1591042  44.2294313  38.8795108  73.0401119  48.4451740
  39.4762139  72.9837705  47.7232667  38.2442174  73.6993862  48.0690851
   3.2987594  69.0921563  44.4425407   3.5680942  69.1641725  45.3663193
   2.2946148  69.0537479  44.5795080  31.8031036  66.7110733  37.2102113
  32.1880868  66.1652964  37.9407077  31.1627248  67.2572472  37.7090693
   8.0240408  72.4415310  50.2889728   8.3798211  72.9334194  49.5417260
   8.5977623  71.6400281  50.3875804  13.1895659  67.2217057  42.4998518
  13.5183643  67.8668154  41.9002714  12.5427754  66.7569345  41.9015854
  16.8753123  82.0536167  35.3735586  16.5844616  82.8306582  35.8359035
  16.8025010  82.4152196  34.4330927   6.6661601  75.7862076  43.6301862
   7.4650053  75.9812116  43.0820533   7.1140945  75.1076269  44.2472705
   9.1120311  62.3605831  53.3385200   9.4379501  61.4925624  52.9922133
   8.1890934  62.1761794  53.5299394   2.4237401  61.9227317  38.7939923
   3.2002450  61.5857705  38.2673085   1.7011856  61.7655226  38.2041733
  27.2785441  72.3123971  48.4473099  28.1867125  72.6230352  48.6875138
  27.4742755  71.8075577  47.6294287  16.4957812  65.0818730  38.0760119
  15.8464026  65.1651956  37.3195917  17.2978089  65.0814642  37.5049750
  37.5939458  79.7546966  35.0095958  37.9385490  79.0423232  35.5606352
  36.6884545  79.8930987  35.4145099  -5.3926109  70.3123278  40.6532133
  -5.7979249  69.5823667  41.2292582  -4.5103736  70.2840726  41.1225947
  25.6312345  60.6714636  32.8648407  25.1368664  60.3851330  33.6670920
  25.8352917  61.6147129  33.1895317  15.4324720  61.6318436  49.2971035
  15.7950528  62.3915145  48.7705574  16.1925048  61.4733949  49.8854382
  16.8435970  49.4231803  51.1433898  16.7492162  49.4837565  50.1869443
  16.3929882  48.6045807  51.3319872  12.7996927  61.9153141  47.6502765
  12.1101104  62.4188505  48.1081575  12.3999060  61.0667474  47.6025636
  10.8725088  67.7920448  49.5831825  10.4454292  67.1059776  50.0393638
  10.2915912  68.1552529  48.9544646   1.2641655  70.4049718  34.0558246
   0.8217016  70.9897879  33.4149302   0.7989947  70.6402214  34.9122633
  14.9534941  76.9923003  42.5095426  13.9700770  76.8744578  42.5546565
  14.9624179  77.8971031  42.0603741  11.5653983  72.9431040  45.2033573
  11.0989141  72.7457186  44.3455314  10.9391227  73.4174500  45.7371189
  21.6433528  63.5288196  39.0384702  21.2677837  64.0756944  38.3614486
  22.0926354  62.7963496  38.5903652  16.7238184  67.2579605  39.8588013
  16.3121622  66.6312695  39.2219651  16.0900892  67.8906230  40.0608514
  26.3698552  77.2182332  39.8854061  25.9752599  76.7399914  40.6467938
  27.1636281  76.6324382  39.7776154  18.1295925  67.4055839  21.8327641
  17.4466520  67.7959604  22.4886307  18.9399395  67.6966995  22.1802932
  20.5191451  65.5410329  33.1274769  20.9803933  65.0927363  33.8750371
  19.6734623  65.7145375  33.5819340  13.0428995  70.6326027  46.3169851
  12.3112806  70.6634278  46.9768551  12.7461964  71.3111564  45.6988873
   2.2668419  67.8608461  47.9297150   2.0943754  68.5348516  48.7180729
   1.4192273  67.4220547  47.9085702  35.3518843  80.7613363  40.6731095
  34.7908367  80.2335535  40.0710640  35.9231632  81.2537771  40.0957982
  10.9482603  74.2936897  41.1005312  10.9826932  73.3655724  41.3940424
  11.7968488  74.3179365  40.6027730   9.0261788  64.7723237  37.2802794
   8.2649400  65.2948060  37.0357387   9.3159124  64.3464252  36.4802954
  12.5103304  65.8252008  27.7665888  12.5738797  66.1178208  26.8607621
  11.5364325  65.6542242  27.8236938  11.0717059  60.7171697  42.8734947
  11.7723805  60.1041375  42.7516041  11.3013341  61.4673070  42.2731979
   8.6254233  59.7950702  44.0378689   9.5154275  60.1668814  43.8524890
   8.7914617  59.3071040  44.8633749   9.0930974  78.1712390  37.8974436
   9.0536883  79.1237599  38.1877399   8.3772432  78.2319994  37.2225150
  24.5154041  67.4948382  32.6283066  24.2674425  67.5538116  33.5949226
  23.5513196  67.4612491  32.2477921  19.8531205  73.9382284  23.8432773
  19.8546377  73.9675864  22.8403991  20.5452386  74.6717342  23.9668900
  11.2859969  69.6898163  34.5269184  10.8203926  68.9343628  34.9687033
  11.2578854  69.3049360  33.6333875   9.9136412  71.5183708  40.2720798
   8.9916164  71.2917866  40.4633944   9.8368294  71.8744205  39.3500250
   1.0153899  61.8124527  21.8788378   0.9659765  61.4434657  22.7606006
   0.8898524  61.0300474  21.2647551  17.6475518  77.6251219  46.0941136
  17.2477251  77.0190200  45.4428362  18.5945146  77.3308911  46.1284106
  20.5541662  67.6046372  39.4191685  20.5222085  66.8890962  38.8187573
  20.0657900  67.2433365  40.1928699  26.1795555  73.9579653  38.3663141
  26.0405893  73.2482162  37.7533816  25.3795988  74.5089586  38.2993258
  13.4874277  72.5016749  34.7306360  14.0578973  73.0933395  35.2899125
  14.0686685  72.4869637  33.9415578  11.1369140  63.4680972  61.3517555
  10.6341679  63.9543386  62.0822956  11.0023259  62.5611561  61.6491454
  -1.6389579  72.8733911  47.9406192  -1.0196397  72.3637420  48.4699984
  -1.2527450  72.8657999  47.0609535  -4.1199989  64.3627555  47.7349422
  -4.0285192  63.4471973  47.4608505  -5.0703036  64.4826773  47.4746600
   7.5372162  57.6309917  48.0281206   6.8619274  58.2143019  48.5349727
   8.0596836  57.3286982  48.8001782  21.6575172  72.6741874  47.0440203
  21.9313720  73.3415838  46.4106836  21.4496114  71.9776776  46.4055361
   5.0939556  62.8689238  51.9220275   5.6473840  62.3271043  51.3158659
   5.6578474  62.7471945  52.7001028  28.3427146  87.0452884  40.1608958
  28.8972072  86.6985854  40.9315275  27.4866179  87.0673135  40.6249863
  17.8580395  74.7871437  41.7745244  17.1999354  74.1222444  41.5396366
  17.6880548  75.4000691  41.0244388   8.8674018  71.4684065  45.9684538
   9.2489724  70.5607501  46.0479674   8.0428643  71.2444188  46.5303360
   4.4913628  66.5357185  54.6515318   4.4439807  66.4015432  53.6690020
   3.4899538  66.7467594  54.7014131  22.9106781  70.7414043  28.4188311
  23.3262833  69.9438658  28.8209776  23.2474323  70.7258544  27.5220070
   6.0451314  71.8517471  43.6045010   5.5380481  71.2524522  43.0817985
   5.5289538  72.6379174  43.6657969  25.0609417  78.4879381  48.1617055
  25.9829055  78.2784202  48.4112688  24.6899657  77.6033799  48.1074317
   7.9930631  56.1159845  44.7955966   8.7917239  55.5575792  44.6026941
   7.7034431  56.3204813  43.8647546  11.1385772  76.7420601  28.1120632
  10.5603924  76.0931766  28.5390650  12.0102564  76.4963082  28.5948068
  27.5909976  66.5248600  42.8951895  26.8430723  67.0275074  42.5803062
  27.8025636  66.8549604  43.7276012  11.2752917  59.6195465  47.4786856
  10.3727357  59.9177531  47.4578109  11.4705262  59.3283370  46.5534890
  12.4841366  59.0422106  49.9304083  11.9976393  59.3962145  49.1313086
  12.8736078  59.8391088  50.3126963  23.4076437  69.7103759  44.4356549
  22.6207960  70.0921615  44.8339529  24.0514781  69.7417871  45.1812401
  23.4154740  72.6033072  40.0549814  22.6411335  72.0554029  40.1181757
  23.0042509  73.4694915  40.3531427  11.2062975  66.0796638  40.7928868
  10.5614729  66.0874700  41.5584413  10.6985590  66.6690117  40.1903497
  27.2005448  67.1630267  29.8686047  26.8102123  67.4728101  29.0333470
  27.7082350  66.4096470  29.6173885   7.9210626  85.7947442  40.6279167
   7.3062630  86.5154026  40.5088293   7.7373159  85.5047542  41.5367639
  12.9475507  69.7498051  49.8505049  12.3780397  68.9501571  49.7791380
  12.2395947  70.4629277  49.7099422   4.7963665  53.9621962  60.2722771
   4.2481288  53.7143123  61.0586966   5.5048925  54.4346732  60.7656340
   3.7019185  70.9904680  35.8406200   2.8847605  71.0262833  35.3194705
   4.1040884  71.8837875  35.6008968  12.3108325  54.7850897  41.5115187
  13.1605438  54.7130373  41.0120632  12.0244796  53.9046624  41.6107888
   3.3197312  54.1026776  55.9832140   2.8473277  53.5708212  56.6359272
   3.0240544  54.9752615  56.2023119   2.8378143  63.9655984  40.5261275
   2.9563212  63.3905203  39.7707664   2.4625570  64.7937690  40.1879561
  14.0591821  59.3674602  39.7851521  14.5817598  60.1642987  39.4752702
  13.2613557  59.4269245  39.2394012   9.8452460  57.9000109  37.7924413
  10.4645948  57.3028457  38.1741593   9.0016589  57.5424401  38.1397527
   2.2898124  55.8975223  40.9163403   1.7683046  55.0550863  40.7411264
   1.7050161  56.1768609  41.6938200  10.4306784  72.1876805  42.9041748
  10.2265877  71.4405586  42.2784769   9.5420971  72.4675418  43.1409084
  19.9554229  67.6533616  45.8257058  20.8795375  67.5835333  45.9354050
  19.6940840  66.7953769  45.4387735  19.3657756  65.1480058  45.0246171
  20.1148232  64.7211985  45.5628748  18.8962305  64.2931992  44.8566144
  16.8090157  70.6682394  33.0768220  15.9216811  71.0965638  32.9263569
  17.3577327  71.3448171  32.4947336  16.5519285  59.6361578  33.1617126
  15.7741310  59.2054222  33.6038213  16.9491842  58.8602887  32.7279430
   6.3827373  67.1710788  47.1122560   5.7194746  67.8495554  47.4011147
   5.8696158  66.3563696  46.9927526   9.3401138  68.6739736  45.1792988
  10.1684084  68.6096812  44.6166135   8.7766073  67.9679008  44.7692849
  18.7186969  65.7518122  41.0221064  18.0481494  66.3445642  40.6118321
  18.0816746  65.1088512  41.4568027   1.2071720  75.2361766  37.8585881
   2.1238583  75.3512699  38.1334465   1.0066097  74.3463693  38.1886011
  10.8542122  72.3121056  35.2077927  10.8883647  71.3986287  34.9960459
  11.6736952  72.6736740  34.7958690  25.9352971  67.5707332  38.8603315
  25.8208185  68.3795722  39.3163820  25.0435888  67.1999943  38.7937621
  31.6660875  82.5293567  42.0360676  32.4723962  82.9907422  42.4419652
  32.1240647  81.8895165  41.4799823   9.4440710  66.2055804  42.8431261
   8.6783752  66.3770200  43.3969100  10.0512836  65.7152108  43.4709065
  26.4297401  68.9775142  31.6745185  25.7159954  68.3593516  32.0402012
  26.8885433  68.2671864  31.0993363  21.3950693  60.8034421  51.3261191
  21.0739469  60.8582928  50.3875650  21.5361066  59.8451714  51.3554940
  20.4004962  71.3362587  64.4266980  20.2455522  72.2748626  64.2037968
  19.4933153  70.9811976  64.3000925  29.7919698  70.6682614  50.0717600
  30.3572795  70.3283453  50.7848062  29.2645437  71.2961531  50.5364442
  18.3600302  57.4115106  49.4223746  17.9199859  56.7465344  49.9903043
  17.6322855  57.9109303  49.0004151  24.1013410  75.5258995  37.7585758
  23.8031351  76.4380070  37.4356849  23.4916488  75.0268930  37.1868945
  31.7616912  84.1935331  51.9275495  32.1660075  84.4078983  51.0687035
  31.9825271  83.2565257  51.9365453  25.4726793  77.6819533  32.9042576
  24.6004759  77.4209403  33.2650759  25.3833389  77.3309479  32.0223570
  25.1149625  73.9113192  48.9153023  24.5201403  73.1015764  49.1119509
  25.8960689  73.4017005  48.6316950   7.3741414  72.3436974  41.3264274
   6.6396170  72.2693867  40.6665887   6.8909556  72.1820881  42.1616004
  21.8253938  64.1783578  34.8626533  21.4647111  63.4502800  34.2671213
  22.7501378  63.7896957  35.0566174  12.7474947  67.0522994  51.7030340
  12.3399335  67.5066284  50.9445042  13.5840415  66.6862671  51.3374705
  11.2400509  70.4030627  52.8209936  11.8129890  69.7912638  53.4333025
  11.8576963  71.1608563  52.7592860  15.6754921  55.5877540  48.9017200
  15.4364669  55.7381251  47.9705388  14.8778261  55.9746028  49.3423702
  21.8510523  75.6828052  23.6829543  22.6172964  76.1777623  24.1417660
  21.6017011  76.3163752  22.9847170  27.9595512  66.1388772  35.0436214
  28.8528400  66.3591592  34.7392051  28.1613120  65.6770313  35.8861528
  12.8883315  86.1309511  37.7029546  12.7475312  85.5803981  36.9443290
  13.4653287  85.5164344  38.2312239  16.5061879  73.9768117  49.6393358
  16.8893791  73.2237003  49.1562364  15.8102133  74.2534747  49.0196933
  19.5852884  60.0443651  36.4370555  19.2377312  60.3398975  35.5664369
  19.3066420  60.8187883  36.9266469  15.1906110  71.0721889  47.8682878
  14.6392852  70.8071180  47.1349692  14.9754708  70.4445160  48.5880309
  24.4614052  79.7522302  53.4477277  24.7347295  80.7260366  53.6341686
  23.5053281  79.7677766  53.7077767  16.8565606  73.3518669  44.3107729
  15.9557688  73.5582711  43.9766925  17.2362950  74.2182035  44.3967235
   8.3197749  85.7554438  20.4531548   8.7754080  84.9122329  20.7346526
   7.5163678  85.3969079  20.0261443   5.7986001  66.8775622  29.0938490
   6.1075541  66.3915722  29.9382849   4.9004833  67.1547257  29.5423847
   8.5481656  83.0607251  43.4449860   8.3608916  83.9855628  43.6201365
   8.8077994  82.7694077  44.3648901  20.2356450  68.5664896  23.6735756
  20.1003069  67.7931517  24.3353414  20.0112813  69.3195309  24.3140452
  12.2913536  59.3581019  33.2084989  11.8267263  59.7536667  34.0211928
  13.1078371  58.9830665  33.6154558   6.9288166  65.3400769  53.9139735
   6.8826702  64.6782896  54.6294737   6.1037749  65.8028796  54.0958092
  17.5010293  61.8942112  26.3497515  18.1011421  61.4463661  25.7114679
  18.0318457  62.6666479  26.5619780  10.8921066  63.2288958  49.7283266
  10.2354785  63.9431922  49.6391215  11.7073363  63.6898352  49.9523744
  29.8985266  66.8738400  41.0519536  30.6423670  66.7132295  41.6611945
  29.1561074  66.8155710  41.6336625  23.9864523  65.6090305  53.3881524
  23.6299321  66.5096873  53.4013965  23.3212890  65.1618028  54.0074958
  11.0135746  71.4458964  48.4514002  10.4282399  71.0889058  49.1402107
  10.6395976  72.3569268  48.4148531  22.0621881  77.0573618  39.7956964
  21.1902831  77.1229126  39.3060626  22.6431396  77.0392650  38.9921888
  22.2237153  74.4672775  36.0017113  22.2280761  73.4849962  35.9980625
  21.3125300  74.6398484  35.6231647  13.8941247  61.4488882  43.8234283
  12.9312895  61.3685102  43.9433898  14.2401538  61.7902845  44.6614547
  12.8502269  78.0919589  38.3662560  12.2567963  78.6217524  37.7997401
  13.0016019  78.7506810  39.0908371  30.8081158  66.4079125  34.5106905
  31.4493587  67.1139594  34.1728131  30.8889415  66.5791912  35.4751475
  12.5207167  55.3453713  33.9660746  11.8667037  55.7603773  34.6213675
  13.3715646  55.6389123  34.3686892  34.5799462  72.2813022  48.3803490
  34.1289357  72.2266461  49.2304402  34.9853579  71.4432106  48.2802998
  14.2681033  78.4185401  27.0225494  14.7710506  79.1707691  26.5939034
  15.0934801  77.9711138  27.4324961  18.4772344  71.7002267  37.1510573
  17.6735643  71.7893185  36.6298577  18.4603092  70.7594630  37.4011565
   7.1952575  75.2215120  47.7617484   6.6150319  75.3730316  48.5087764
   6.9112123  75.9023944  47.1020343  19.1295582  72.9416650  51.0295522
  18.4383646  72.3922663  51.5000766  18.8023306  72.8738917  50.0899514
   7.4557445  51.8789296  22.4836961   7.8040859  52.2118665  23.3565505
   6.9668653  52.7504498  22.2078761   4.5640353  56.2987357  43.6848686
   4.2589743  56.9030065  44.3690781   5.4052880  56.6454346  43.4187833
  37.5391619  71.1076576  38.8747863  37.2923659  70.1843615  38.6065505
  38.4662577  71.1202068  38.6784121  27.8372645  79.5075632  39.9615692
  27.0939708  78.8258194  39.9193440  28.5560973  78.9150909  39.5188506
  28.9136054  73.9409369  59.5315039  28.2855453  74.2110618  60.1589634
  28.7564529  74.4868578  58.7557159  22.8340832  74.2715446  44.5663175
  23.7914797  74.0258277  44.3655238  22.4311689  74.1642029  43.7215916
  29.7784737  73.2493351  48.8238941  30.3470678  72.4504522  48.9241768
  30.1674206  73.7101612  48.0454914  18.5398143  77.1180131  36.4432212
  18.6650272  77.9780836  35.9548660  18.7955754  77.4202889  37.3266126
  21.9777327  78.9866649  45.3834628  22.6128146  78.2810657  45.5153473
  22.2555729  79.5953798  46.0821776  27.1819921  71.0378951  37.1734936
  26.2046966  71.1157562  37.3315595  27.4798494  71.0084715  38.0918317
  15.2709012  84.3675276  45.8235954  14.6234790  84.2048736  46.5267371
  15.0295575  83.7738840  45.0937905  31.0526840  75.8866908  43.9961148
  31.9510946  75.7561318  43.6500463  30.9402471  76.8205012  43.9137947
  40.6062163  72.2648404  46.2437603  40.3697092  71.4163909  45.8267581
  40.6134444  72.8438130  45.4933957  19.5431558  68.8665158  17.4334644
  19.2496366  68.2380944  18.1697006  19.9595717  69.5723827  18.0891644
  27.3644952  75.9178726  34.7373302  27.2515382  76.2903588  35.6542361
  26.6469804  76.4133943  34.2660673  29.3145790  79.9928147  42.1892567
  28.4267814  79.8965999  41.7365071  29.8747850  79.7335879  41.3924130
  13.8572858  74.3225936  45.6901289  13.1572292  73.6698512  45.8688859
  14.0436316  74.1529644  44.7560885  32.1624955  77.0228951  40.6497903
  32.4809434  76.6293697  41.5024527  31.6031682  76.2638472  40.3348081
  25.5339382  89.5304768  52.6564921  25.9609250  88.7345769  53.0186422
  26.1796131  90.2011338  52.8863071  28.2483208  79.7692715  44.7530332
  28.4838356  79.9366904  43.8166567  27.5666561  79.0980894  44.6916813
   4.1088247  74.7094001  25.0376911   5.0502300  74.9078525  25.2016062
   4.1273532  74.0598834  24.3373664  10.3924260  73.4329388  32.2670092
  10.5356115  73.4669193  33.2380609   9.5854175  72.9625460  32.1819267
  31.6399413  73.4052301  34.0081442  30.8619505  72.9806816  33.6038702
  31.8086991  74.1653539  33.4361553  24.6625594  72.2419007  33.2751618
  25.4047780  71.6525313  33.4812163  24.1210227  72.0808918  34.0930990
  16.9086084  69.6729862  26.4997350  16.6000575  70.4246336  26.0195900
  16.1254068  69.1228932  26.6158570  30.9683846  79.3164011  40.1900313
  31.6610559  79.5968573  39.6419234  31.3384834  78.4239150  40.4955126
  35.9389610  81.9554809  37.5579968  35.0384964  82.2296377  37.6319585
  35.9421044  81.0747754  37.2174229  26.2742489  66.4848657  27.2449712
  25.8481416  65.5968459  27.3597651  25.6502066  66.8985601  26.6396558
  25.4831131  64.2207453  38.2999301  24.6408893  64.6674178  38.2241007
  25.9391023  64.5541422  37.5257324  10.4264009  19.9988238  37.9664328
  11.0603013  20.6153285  38.4569874  10.9543710  19.1797109  38.0869743
  -3.5519688   7.9108104  24.6024774  -2.8886398   8.5216326  24.2435639
  -4.3601606   8.2864923  24.1179589   2.0799763  24.0880980  27.5046088
   2.1744085  24.0469437  26.4859672   1.4897136  23.4135248  27.6450366
  -2.4252122  26.5477211  23.8487920  -3.3098712  26.1393657  23.7599260
  -1.9988396  25.8473510  24.4166629   5.0083796  14.3532975  24.2491459
   5.1774662  14.7328530  23.3743344   5.0081203  15.2291654  24.7867740
   4.2358007  26.1587029  18.0562783   3.3103573  26.1833529  18.3755533
   4.3408621  25.2283270  17.8137836   1.4619747  17.6345408  25.6630325
   1.9279086  17.3619754  24.8096064   1.6532099  16.8525238  26.2525268
  -1.5784935  28.1124615  30.2305092  -2.1264775  27.3335211  30.3355563
  -0.7649730  27.8140875  30.7604670   4.0732835  25.8462161  34.4312293
   4.7307272  25.0746895  34.4482412   4.6929734  26.5873111  34.3333496
  -9.3950938  10.6280276  29.7787642  -8.4918024  10.5896534  30.2442150
  -9.8280718   9.8698204  30.2028317 -11.2572382  26.5656987  21.0674989
 -12.1922204  26.2887725  21.0247836 -10.8949689  25.8458855  21.7045298
  -9.2865123  32.2381050  12.3820273  -9.6388956  31.3374333  12.7079748
  -8.8077046  32.5045658  13.2195328  -3.3393576  26.6300769  20.0687152
  -4.2976329  26.9041760  20.2042144  -2.9254183  27.5547036  20.1585901
  11.3262665  16.9728845  32.3862716  10.4598335  16.4844888  32.4343886
  11.4541435  17.0434004  31.4405480   4.4679039  37.1958542  26.0266314
   5.0660384  37.2697020  25.2518136   3.6027314  37.2694957  25.4676787
  13.0712189  15.0142015  20.8845472  13.3149580  14.4360295  21.6187152
  13.3704783  15.8962441  21.2574860  -2.7651686  27.3721666  37.3595486
  -2.5622291  27.3801623  36.4067110  -3.7316512  27.5760219  37.3119279
   7.4501072   7.6560303  37.0175059   7.4548411   8.3874402  37.6638536
   6.8216158   8.0389317  36.3502631  -4.2133368  15.1051325  25.1424284
  -3.6788156  14.3041043  25.3998499  -5.0363404  14.9090738  25.5971175
  11.9034698  21.4370201  39.5932303  11.8473897  22.1774582  38.9482043
  12.6168930  21.7814366  40.1354664   2.7917031  20.9498543  34.1044581
   3.1006243  20.1521457  34.6170472   1.8618514  21.0745447  34.5270357
  -2.4348586  14.7848241  30.3506654  -2.1577452  15.7280180  30.4034310
  -3.1461943  14.9061961  31.0791400  -3.9808708   6.6157639  29.6480762
  -3.7175513   7.0034568  28.8359712  -4.9360418   6.4229403  29.5714133
   7.1437794  24.8863232  13.7997214   7.4638506  24.5556613  12.9070409
   6.9579254  25.8373373  13.5624580  -3.6859782  12.9506741  13.2755577
  -3.6556416  12.2629431  13.9428190  -4.6569891  13.0929794  13.2541189
   5.7202736  28.9618838  44.4152534   6.5878011  28.9413056  44.7600444
   5.7000383  28.2180640  43.7743524  -6.5902911  21.8018938  27.0395247
  -7.2253305  21.7955220  27.8354033  -5.7677678  21.4566089  27.4785905
   8.1805796  35.0231113  40.8330552   7.5328924  35.6407235  40.3730470
   8.9839362  35.5636139  40.7651372  -8.0804903  41.0295992   6.5192106
  -8.7801591  41.1538250   7.2280181  -7.7764980  41.9378657   6.4458509
  -5.0785873  43.6402612  36.7028932  -4.3985359  43.3339931  37.3264825
  -4.6648167  44.4212987  36.2987227   1.4454702  42.7637686  25.7979938
   1.5279168  42.5843839  24.8125996   2.3751569  42.7712113  26.0499325
   4.2586543  23.6418693  17.1169519   4.3458246  23.1290127  16.2545786
   3.4504274  23.2041629  17.4912845  11.6514553  30.0808201  23.2020549
  11.0045220  30.6628179  23.5686622  11.5490919  30.2026161  22.2197230
   5.4148481  28.5510383  30.2291006   6.2051212  27.9651952  30.3988332
   5.9478507  29.3526314  29.9477115  18.4944843  27.1808469  18.6790031
  17.9600596  26.6825363  19.2688446  19.3717795  26.8531451  18.8629479
   3.6817568  35.7919991  17.1448216   3.5280147  34.9396669  17.6219639
   2.7663111  35.8809818  16.7624168   1.3820380  25.5787818  10.9099378
   0.6951334  26.2273118  10.5806934   0.8692160  24.7789575  10.9534354
   3.8810826  32.5932928  45.8198439   3.3988296  32.1150296  46.5111844
   3.3858706  33.4041036  45.7286921   1.8791621  26.4961443   5.4352810
   1.4762217  26.3859065   4.5956097   1.4161893  25.8711589   6.0512335
  -4.6489865  43.9529811  33.3727072  -4.5161119  43.0256111  33.0374638
  -4.8507939  43.8007472  34.3147512   9.8173370  46.5344250  42.9253264
   9.2577763  47.2425653  43.2576882   9.3128967  45.7465069  42.9462239
   2.4635961  33.0925742  15.3411607   2.6945863  32.1827000  15.6273026
   2.4031299  32.9886263  14.3867623 -11.9694430  44.4790208  32.9057958
 -12.6095040  43.7115798  32.8053862 -11.1958868  44.0351374  32.4415526
   9.3620265  35.4511606  28.3863942  10.0453329  34.7045776  28.5396353
  10.0094816  36.2027367  28.5084746   8.6706543  23.1083096  31.2265945
   8.8203555  23.7897780  31.8810907   9.5824144  22.8056660  31.0493908
  13.9740491  31.6674402  23.7599482  13.1181002  31.1723244  23.6471168
  14.5632028  30.8903322  23.6917615   4.2962086  34.0699080  37.9536458
   4.1484541  34.3508179  38.8689964   3.4325105  33.6588047  37.7722730
   8.7925158  34.6473876  14.8734484   9.3641120  35.3810561  15.2128428
   8.1096153  34.6110362  15.5662265   2.4575937  35.5971224  30.1945955
   1.6797953  35.3815076  30.7799038   2.4787086  34.9034325  29.5744871
   6.8711490  30.7181316  39.8781233   7.0904140  31.6328860  39.6305859
   7.2990308  30.2720701  39.0974925  13.6159582  33.1837225  29.0225169
  14.1317284  33.4917706  29.7853586  12.7401808  33.0337096  29.4371928
  -5.7686239  45.9351806   3.5442863  -6.5365636  45.3417015   3.4700466
  -6.1046591  46.5495802   4.2454976  -2.7165720  30.5179882  18.1064129
  -2.4543904  31.3900358  18.3789189  -2.5072692  29.9465892  18.8375962
  -3.4041466  46.5064730  23.3342938  -4.0723811  47.2045897  23.1746216
  -2.5894307  47.0992615  23.2549039  -9.5843226  44.2281033  20.3809207
  -8.8328926  43.7918413  19.9218923 -10.2152031  43.4774434  20.3454474
   2.9343038  29.0227601  36.4479929   2.4250665  29.3550961  37.2126894
   2.1941460  28.8058529  35.8792206   1.1202492  32.4447401  31.9597511
   1.3725460  32.2605483  31.0224185   0.3822936  33.0330282  31.7281589
   8.3971623  31.9592829  30.6162355   7.9188415  32.8058255  30.5896311
   7.7600211  31.4354705  29.9997473  -7.4274755  14.7501502  35.6594359
  -6.7688443  14.0989437  36.0513272  -7.0253954  14.9260957  34.8035971
   7.6605841  20.1321257  33.3419516   8.5784332  20.5479825  33.4359832
   7.1846673  20.6324977  34.0621817  12.3539341  40.5684781  35.1954041
  12.4045257  40.1763783  36.1020451  11.6142103  41.1397048  35.3026845
   8.6633116  42.5286702  49.3631370   9.3400627  43.1420272  48.9169160
   8.8629695  41.7056255  48.8670062  11.3609361  37.3667000  28.6039365
  11.6892239  37.2248026  29.5319066  12.1508972  36.9967772  28.1605067
   8.4765812  26.4895219  28.2424647   8.3032625  26.8581589  29.1430827
   9.3257618  25.9628976  28.4445343  12.5633773  25.9339380   3.2692242
  11.6580180  26.2468713   2.9943691  12.4384681  24.9779406   3.2166236
   3.0489913  33.7397704  23.4474169   2.3138067  34.3858769  23.3437918
   3.6236382  34.1897529  24.0842419   4.8947386  32.5303348  28.5016568
   4.5805910  33.4074167  28.2584309   4.3095910  32.2962791  29.2483399
   1.7311888  26.5681510  21.7304376   1.6623940  26.9887062  20.8536068
   1.0155433  27.1553336  22.1373426   1.8991174  38.1610977  19.3125778
   1.1292233  37.6105423  19.0338652   1.5921205  39.0495491  19.0774264
  -3.0052946  37.6983679  26.4457212  -3.1597877  37.1518570  25.6354283
  -3.4233584  38.5076161  26.1650337   4.0213149  42.8502619  26.4019187
   4.3849736  42.4160406  27.2139502   4.7679531  43.4245384  26.1349947
  -5.0890405  49.9880348  30.0630473  -4.7777381  50.8212287  30.2959076
  -4.7331193  49.7670243  29.2430655   1.1486082  46.6398645  21.6880083
   1.7855016  46.0387420  21.3135742   0.4952207  46.0681564  22.1055385
  -1.1330275  37.8291670  28.5214613  -1.5836410  37.3567448  29.2286705
  -1.7938809  37.7908470  27.7916534  10.8987385  33.7709223   7.0523964
   9.9390591  33.5358690   7.0468561  10.9477874  34.4112947   6.3170219
   7.0096645  42.6546002  23.8739945   7.7660007  42.1437357  23.5449385
   7.1252219  42.4878087  24.8177298   9.9755002  36.3715785  21.6117276
   9.9666988  35.4931032  21.9897867  10.9539777  36.4471784  21.4180272
   0.9945682  29.4423594  32.2129847   1.6914794  30.0244002  31.7887689
   1.0558299  28.6608032  31.5677999  -6.7413359  41.6723442  22.8328922
  -6.2559506  40.8628122  23.0288653  -6.2582013  42.3248017  23.3525262
   6.2760865  37.2028842  23.9256808   6.7319472  38.0661836  24.1013532
   6.1651665  37.3442389  22.9627837   8.0148358  30.9270149  26.4628261
   7.6018455  31.8259927  26.6167486   7.3580759  30.5106588  25.9059257
   7.6806859  46.2894043  24.2665955   7.7826374  46.8094970  25.0747040
   8.0227469  45.4541887  24.5559468  11.5560367  26.3979400  33.7861466
  12.0131082  26.9289332  33.0922626  11.0432304  27.1436785  34.1995346
   2.6720444  44.4701649  20.7433648   3.5323652  44.8289320  20.8282679
   2.8213341  43.7297485  20.1057320   3.7203414  26.3746259  24.9242064
   4.5076692  26.2474769  24.3341494   3.1698833  25.5949580  24.6377426
   9.2007734  22.2781508   9.7988544   8.9262773  23.1894472  10.0096365
   8.6975051  21.7819958  10.4711500  13.0320319  42.2010412  38.1201874
  12.8417540  41.3150956  38.3924190  12.2189212  42.6570220  38.2005042
   0.6696742  34.4785205  35.6204345  -0.2319217  34.1503646  35.4377402
   0.5429819  35.0750404  36.3408124   5.3483893  34.4152654  24.8344721
   6.0270865  34.3089767  25.5174225   5.6531466  35.1395634  24.3083129
 -12.4965622  26.0665767  28.7536684 -12.0742218  25.8085284  27.9061243
 -12.1273832  25.3973971  29.3274972  -0.3112262  31.7645203  24.5915033
  -1.1402283  31.3239825  24.7948368  -0.4107905  32.0763376  23.6842457
   7.1256434  44.8197696  22.1670380   7.1909631  45.4864166  22.9243443
   7.1782856  44.0108112  22.7163274  10.4043789  31.3956602  27.3537277
   9.4796088  31.1679096  27.1262357  10.8613615  30.5983849  27.0483866
   8.0824310  37.2076049  34.7332500   7.3478764  36.5284847  34.6561195
   8.6469483  36.9229402  34.0008740  14.6554093  42.5044091  53.2976834
  15.0257953  41.6748344  53.7929448  14.4278628  42.0731762  52.4729188
   0.4140615  38.0970442  32.8855153  -0.2105277  37.3251656  33.0941815
   1.2281097  37.7095114  33.2724414   5.4120077  46.6351642  39.0887927
   5.7039130  47.1773419  38.3034377   4.5632503  47.1228783  39.2199036
   8.7753568  38.3730523  16.4752411   9.3290188  37.5784063  16.4141483
   9.3330001  38.9702011  15.8779957   3.7127798  32.7671511  31.1183362
   2.7629300  33.0224328  31.0815994   3.6190360  31.8210772  31.2058361
  10.9096991  41.3061696  12.6723597  10.8863921  42.2426146  12.4460551
  10.2954924  40.9135644  11.9964068  -2.8721909  42.8131892  38.3396779
  -2.2776253  42.9717146  39.1578188  -2.4044680  43.3349038  37.6701759
   5.7811404  43.1042607  32.8471381   5.0487855  42.4988167  33.0958994
   6.1952831  43.1684445  33.7499104   5.1644519  35.3480052  27.9101855
   5.2801776  36.0932755  28.5263340   4.7766211  35.8194673  27.1525478
  -1.2634959  42.6982934  33.2212788  -0.6190252  42.1385599  33.7325751
  -0.7407547  42.8813153  32.4427566  -9.4884265  48.7838724  28.4060158
  -9.2986263  49.7714628  28.2529426  -8.8370082  48.6025223  29.0642965
   1.3052041  37.7499459  21.9258657   1.5982436  37.7108376  20.8677652
   1.2392863  38.7662138  21.9347731   0.7944904  24.0834231  22.4177440
   1.2275205  24.9782636  22.2425567   0.0073912  24.1704908  21.8101698
  14.5094470  31.1642749  27.4352920  14.0802450  31.8854923  27.8974146
  13.7713317  30.5449095  27.3444296   0.4477465  42.7375091  41.6392415
   0.5934103  43.4668103  42.2840404   1.2512256  42.2040188  41.7364223
  10.0205706  37.6256800  24.4305033  10.5270948  37.8803603  23.6753637
  10.2832547  36.6414742  24.4765447   4.2562405  21.8702645  27.9522274
   4.7596921  22.0955106  28.7417334   3.6326726  22.5963661  27.9113976
   7.8714305  35.1770087  18.4546774   7.4391963  34.5984921  17.7745384
   8.2180746  34.4678363  19.0482678   3.1533546  39.9357124  10.9228392
   2.3871876  39.5071690  11.3875718   3.8852668  39.2862023  11.1786298
   7.4181417  26.2690820  25.5491146   7.7234175  26.1414092  26.4521065
   6.6439900  25.6174989  25.4890823  17.8824179  21.8648432  31.1209707
  18.7268068  22.4137207  31.1029249  17.7866054  21.6983218  32.0918630
   2.2277614  37.7201950  24.6283761   2.0888343  38.1275362  23.7870096
   1.5549805  38.1863439  25.1615308  -0.4793819  40.4702574  37.9515867
   0.4644431  40.6548964  38.1234891  -0.8297042  41.3449731  38.1139287
   4.7206910  54.0813855  30.3673167   5.0951160  54.9195550  30.7623465
   4.3575239  53.6746158  31.2110710   4.2119721  41.0593791  33.7284096
   4.6395411  40.1835071  33.9631741   3.4420907  40.8930779  34.3183516
   2.6145134  42.5909241  10.7908145   2.8470497  41.6062781  10.8135194
   2.3844825  42.7375608  11.7209833   6.3465378  36.4040020  30.7453700
   7.0812559  36.9320736  30.3074596   5.6121356  37.0905161  30.7164847
   7.5507265  33.4984484  26.8177704   6.7350128  33.8511649  27.2561376
   8.2120317  34.1684896  27.0364296   3.2275934  42.1966440  19.4654382
   2.6759500  41.4271496  19.1484821   3.7708911  41.6884609  20.1505125
  -3.3620382  31.3060776  21.6731892  -2.5850572  30.7268138  21.3662489
  -3.0463704  32.1341765  21.2605876   9.6851043  49.5570586  21.9093586
  10.4029396  50.1540001  21.6308196   9.2322822  49.3772406  21.0546406
   6.0049611  38.3541422  21.0334312   5.5387238  38.3360723  20.1451180
   6.7708743  37.8223202  20.7567049   1.1013245  26.5217990  30.6923289
   1.0994768  25.8021883  31.2912550   1.9635615  26.4181035  30.2633725
   0.3828969  17.5230960  16.7040493  -0.5216772  17.8435452  16.6127767
   0.2971099  16.7767388  17.3217621   8.1781944  37.4320997  19.8218608
   8.3555242  36.6984861  19.2166671   8.5650637  37.0049679  20.6392590
  -1.5468710  29.3076954  20.5973126  -0.7551617  29.5207399  20.0499484
  -1.1293687  28.5747768  21.1636106  -1.3502216  22.2407539  16.3024648
  -0.9323433  21.4988532  15.8409523  -2.2232360  22.1230341  15.9860326
   3.5172774  21.3163485  23.8385103   4.1604680  20.8662947  24.4984624
   3.3874962  20.6052041  23.2078989   7.5324837  29.0257743  20.1073105
   7.6106285  29.7978829  20.6903482   7.0911133  29.4553798  19.3310111
  16.5183075  15.8629195  20.8193429  17.2331891  16.5150031  21.0260560
  17.0181937  15.0198777  21.0054704   3.4913325  26.4531503  29.5437357
   4.0122267  27.1919264  29.9270448   4.2363898  25.8886368  29.1787613
   0.0326979  35.2548078  28.0785633   0.3506125  34.8681481  27.2091875
  -0.1026187  36.1797006  27.8152605   5.4440031  40.2687657  31.1516324
   4.9182061  40.5930908  31.9116875   4.7414524  39.6431019  30.8181483
   7.2596930  41.7358335  26.5503863   8.1007606  41.3810421  26.8724824
   6.6627312  41.0984371  27.0267320   9.4934429  24.5130224  24.8359949
   8.7533530  25.1319107  24.9094932   9.0503606  23.7524453  24.3962784
   7.8712859  39.6187837  31.2865032   8.0429327  38.9833827  30.5867681
   6.8911906  39.7389771  31.1224109   9.2699553  31.5279064  23.6866104
   8.7969252  31.4220527  24.5343411   8.4995525  31.4912332  23.0471041
  -2.1138044  40.7800664  26.7566871  -2.2517088  41.7215631  26.7847779
  -2.0970082  40.5735992  25.8319770  16.3411610  26.2303528  38.6260701
  15.5252786  26.5945289  38.2648334  16.2519732  26.3923156  39.5616549
  11.5086512  40.2737047  29.4227722  11.4843236  39.6168001  28.6809728
  10.9482917  39.8742315  30.0664333  14.9160498  44.1173466  38.3842091
  14.3160152  43.4684100  38.0552434  14.7861284  44.1778202  39.3523267
  10.0363088  34.3591776  23.4041262   9.7947049  33.4077671  23.4447120
  10.9324155  34.3236621  23.8379444  -1.7471646  24.0787131  41.4713860
  -2.2593704  24.8933403  41.7721643  -1.3676873  23.8226179  42.3871998
  12.6701934  15.4144552  24.5372369  12.1712137  14.5920106  24.6869835
  13.4385738  15.0019039  24.0396701   3.6626511  44.7768424  13.8103997
   3.7735091  43.9518413  14.3161786   4.6480876  45.0079797  13.8050621
   6.7985916  38.8711658  27.2902607   5.8883627  38.4781394  27.0992109
   7.0293489  39.1044255  26.3384157  11.2474940  37.4052161  36.0477504
  10.3980583  37.6509362  35.6772262  11.0132795  36.5165789  36.3728875
   7.7663600  39.3935930  24.7736059   8.2408124  40.0060686  24.1718081
   8.4253281  38.7044002  24.8819827  -1.1459781  29.2845555   3.9705312
  -1.1761048  30.0425108   3.3336234  -1.3555397  28.5601449   3.3670879
  15.6303271  35.3216074  38.4464237  15.9097806  34.9725488  39.3235383
  14.6989308  35.5391947  38.6121794  10.1738052  31.2399686  32.4958438
  10.3597451  32.2022687  32.4082784   9.3265109  31.3006007  31.9037174
  19.8125205  27.7668325  26.7586558  19.2555979  28.2296184  26.0756128
  20.3925955  27.2474387  26.1979311   4.5471300  27.5402676  38.6108584
   4.6227198  28.2250785  39.2689598   4.5270793  27.9750489  37.7514133
   9.1934252  23.9529150   5.3579739   8.7924741  24.1336091   6.2401300
   8.6761219  23.1050998   5.1716340  15.9162356  17.9317884  14.0544257
  15.7275997  16.9738891  14.0705586  16.6191189  18.0563960  14.6226803
  -3.8780911  22.7662864  19.3820523  -4.8165264  22.6899337  19.0964541
  -4.0221160  22.8438206  20.3447616   7.1217800  27.2673746  37.0489271
   7.6238401  27.9949238  37.4395384   6.3064376  27.2054133  37.5618726
  -6.0948073  40.6098771  13.1637156  -5.3305928  40.9249818  13.6306822
  -5.7380856  40.2262522  12.3404567  13.7671035  23.6097112  40.1995550
  14.3014588  23.4311149  39.3667293  13.2198328  24.3535984  39.8348528
  -3.9732682  19.2068598  26.0852894  -4.7311497  19.1118685  25.4944524
  -3.3334674  19.5909925  25.4779877   7.4804409  34.6612734  33.2102536
   8.2483478  35.2122937  32.9422334   7.2085203  34.2953734  32.3410814
   9.9051328  29.1089468  11.9015893  10.0417544  28.1178608  11.7298263
   9.2119205  29.0009634  12.5820514   0.9066854  34.0071294  25.9043687
   1.8813806  33.7237725  26.0877381   0.5653495  33.1941406  25.5847353
  14.9715192  37.3382826  28.9916421  15.4691323  37.7221814  29.7222635
  15.0955401  37.9745460  28.3005058   4.0747502  25.4673535  21.8477946
   3.1508024  25.9052259  21.8030495   4.5683952  26.3539601  21.8713927
   2.7213656  30.4506906  23.3990854   2.4211094  31.3768058  23.6403070
   2.0825036  29.9157566  23.9128813   7.5554336  17.1258743  18.4232603
   7.9872416  17.2186032  19.3144887   8.1755838  17.8327798  18.0192164
  15.7812210  29.6949658  23.1911676  15.2395638  28.9721509  22.8679239
  16.4238039  29.8806006  22.5230518  13.6128072  30.8284075  10.3350746
  12.6910744  30.5698887  10.2494922  14.0864525  30.0350119  10.3743043
  -0.8320242  44.3089079  36.8529856  -1.0957608  44.7104691  35.9707751
   0.0636289  44.0505167  36.6745706   3.4029843  24.6064534  13.5141614
   4.1796778  24.6691163  12.9447794   3.0401315  25.5004247  13.4725305
   7.7354884  49.9777975  38.1833182   8.2557365  50.3923707  37.4531405
   7.2842154  49.2705285  37.6429689   1.6612137  47.3036893  35.0290347
   1.7120213  46.3083107  35.0182294   1.2113589  47.3985722  34.1349377
  16.3929873  25.7762840  31.1171445  16.2236084  25.7373537  32.1181645
  17.2032031  26.3683625  31.2109399  -0.0884777  49.9342264  32.3101126
   0.3864641  50.7581413  31.9979809   0.1497810  49.9779476  33.2784685
   6.5830016  42.9723681  35.3025550   6.7578949  42.1878861  35.8195967
   6.9992290  43.7006068  35.8537745  10.2158905  47.2548888  26.4407361
   9.5545520  47.0059652  27.0741818   9.6616935  47.8899170  25.8755799
  13.1278212  52.8038725  36.8646369  14.0048641  52.6323249  36.3752110
  12.9481091  51.8536263  37.1355981  12.3170066  53.2431061  22.5330729
  13.0349023  53.9716231  22.5880393  11.6607201  53.8006635  22.0512260
   1.0725636  46.9780657  29.9261852   1.0290962  47.8389780  29.3968129
   0.5439639  46.3834419  29.4063950  22.0372349  56.4209863  17.0106790
  22.5239786  56.1299539  17.8237040  21.1387655  56.2822398  17.3224430
  13.3042892  44.4072786  24.4205933  12.9171131  44.9012724  23.6824468
  12.7014732  44.5898533  25.1358546   1.9546972  58.5716282  36.1777863
   2.5527416  57.9822932  35.6601839   2.1296010  58.1809178  37.0601329
  14.7914807  47.3468826  34.2470380  14.1385372  47.6864474  33.6477212
  14.3537823  46.6036705  34.6731209  12.6979077  48.3479235  24.7343387
  12.2050502  47.9875144  23.9984015  12.0022852  48.5701224  25.3566526
  10.5516024  46.0857253  35.4194716  10.8989367  45.7840414  34.5544879
  10.7516965  45.3032746  35.9298677  23.9186115  32.9442090  32.9196815
  24.6636759  32.8564230  32.2834865  23.2117043  33.0798442  32.3068284
   7.9964911  47.6096699  16.6741739   8.9151907  47.6542673  16.4436903
   7.5579377  48.2790151  16.1888667   5.8985113  44.7267385  26.2242751
   6.6636793  45.0779221  25.7738286   5.3423540  45.6069234  26.2871060
  14.4193901  42.4475806  34.6602713  13.7803852  41.7699477  34.3477065
  15.1003919  42.2520374  33.9642065   0.5043435  56.8211554  42.6679195
  -0.3101372  57.3524456  42.6485176   0.3006738  56.1930231  43.3843266
   7.7100754  72.6473116  27.1024062   8.0361452  73.0228554  26.3066174
   7.2394323  71.8330652  26.8176038   6.8149634  50.5510660  30.5775007
   6.2044577  49.8717339  30.9468631   6.5438864  50.4845254  29.6501184
  11.2703146  66.1017994  22.9080953  10.6538728  65.7030290  23.5600179
  10.8400220  67.0172097  22.8107048   4.1266212  40.6558810  21.4170697
   4.5483660  39.8246675  21.5707756   4.3412106  41.1802013  22.2395973
   4.7906020  46.2138831  21.6136365   5.4112382  45.5482055  21.6238994
   5.1396858  46.8419467  22.3224257  16.1186555  43.6379562  24.4077658
  15.2533829  43.3610732  24.0505766  15.8141085  44.2104793  25.1755799
   7.9927724  54.4225879  34.3304900   7.0808501  54.1087292  34.5407732
   8.0962341  54.0981094  33.4477838   0.2763876  43.4630058  30.0102855
  -0.0575037  44.1804721  29.4503763   1.2338768  43.5994820  30.1335058
  15.3842490  38.5277807  31.5604411  14.6663229  39.1350163  31.7547230
  16.0477682  38.7890896  32.2398437   5.1216696  64.5772128  16.2780289
   5.0110130  64.9206236  15.3440213   4.3501047  65.0009196  16.7066420
  10.9308713  56.0646124  39.6734225  10.9175331  55.5498381  38.8516939
  11.4999112  55.5497809  40.2416833  12.2831115  45.7392027  22.2883384
  11.4091777  46.1832195  22.5883275  12.7217765  46.5542661  21.9337483
   9.1052257  44.4269664  25.3398326   9.1582482  43.4394979  25.3987661
  10.0756792  44.6018274  25.4750932  15.2853925  64.8396208  24.5025356
  15.1135986  63.8119142  24.5554105  15.8183426  64.8183957  23.6938112
  -6.8482443  42.4823439  15.9291997  -7.7466889  42.5674672  16.3070460
  -6.3743735  42.1071399  16.7173196   4.8924522  39.6021611  15.4886325
   5.6852686  39.3123403  14.9580211   4.2370179  38.9146044  15.2530142
   7.5708698  52.7979003  32.1266483   8.2736071  53.3512044  31.7020904
   7.6419967  51.9830903  31.5181898  10.5414287  48.7401295  28.9536214
  10.3191243  49.6874924  28.9185024  10.7567947  48.4997250  28.0317642
   8.2028683  46.3815010  27.8834230   8.2318514  46.8249431  28.7106297
   7.6661447  45.5833769  28.0141578  11.3542734  55.5107438  26.1259682
  10.8115449  56.0257731  25.4572420  12.1964983  56.0116680  26.0324730
  -1.4921232  48.7841947  30.4265138  -0.9465973  49.3188568  31.0779755
  -1.3550338  49.2633027  29.6164152   9.5803975  61.8509298  32.8971020
  10.1758755  62.3314393  32.1997098   9.5384444  60.9941298  32.4340107
  12.8764911  48.2963577  21.4826529  13.7225007  48.6677277  21.1120834
  12.3178226  49.0833143  21.4279802   9.9700361  43.2006199  28.5945463
   9.6343500  42.3596929  28.9070130   9.0536492  43.6195408  28.3758618
   2.6422928  40.9302672  30.8763943   1.7595936  40.4669636  30.9737007
   2.7263611  41.0277738  29.9374100  15.8563230  44.6024697  27.0799065
  15.9176581  43.8355589  27.6948308  15.6792141  45.3169734  27.7137199
   8.5530188  40.4408741  33.9147583   8.4987212  39.5764265  34.4634473
   8.2513959  40.0264647  33.0469146  17.7630707  44.7101809  22.8143502
  17.0935830  44.4448549  23.4433322  18.5634952  44.2395263  23.1046964
  -1.2452580  41.4893459  30.6405722  -0.6236421  42.2187761  30.3979508
  -0.6498935  40.7538526  30.7474182  -1.0160195  53.5903205  38.1545827
  -0.8173493  54.2390608  38.8240370  -0.2083159  53.1251571  38.0488580
   5.7192439  49.2751866  18.5621000   5.1498171  48.4194120  18.6996790
   5.8139645  49.5303786  19.4558102  -2.9119796  46.6312915  29.3726734
  -3.1341738  46.1137581  30.1922962  -2.3250384  47.3150425  29.6822448
  11.7525921  50.8947434  21.0714254  12.0016995  51.6964457  21.5903166
  12.1939799  51.0162344  20.2306376  16.0662443  51.3436432  39.3129384
  15.5414094  51.1921578  38.5442307  16.4910451  52.2304720  39.1188192
  -0.4728782  60.1724983  32.4741823  -0.3498634  59.4726309  31.8333511
   0.4202199  60.3836566  32.7184490  -1.0510331  48.4783773  13.3109794
  -1.6770979  48.3293823  12.5693950  -0.2891555  47.9826595  13.0134658
  17.0088376  59.4718645  27.4704375  17.1289413  60.3798473  27.2741588
  17.9523685  59.1878603  27.4703572  18.1108434  49.4357011  17.9483663
  18.3670520  50.3374524  18.2097009  18.4224072  49.5284886  16.9981504
  -7.0590573  48.0494656  30.0209354  -6.5066915  47.5584435  29.3649119
  -6.4169850  48.8416086  30.1768590   4.2511773  47.0288525  19.1595994
   4.2675848  46.8287477  20.1330579   3.3272085  47.0258473  18.9458269
  14.2004846  44.1264933  41.0359413  14.0249267  45.0615773  41.4166989
  13.2275198  43.8309180  41.0956460   3.3357670  55.0702874  37.8545633
   4.2147107  55.0733855  38.2275395   2.9846632  55.9273790  38.0160809
  16.0108169  41.2248130  36.6349971  15.5830248  41.7162857  35.9287637
  15.3825354  40.4161586  36.5737649  13.8218844  49.6540768  27.5380000
  14.1551912  49.1186334  26.7213538  12.9101950  49.8770386  27.1955085
  11.3503331  45.9473138  30.1710154  10.7376021  46.6007676  29.8498457
  10.8563273  45.0949767  29.9836309  12.3728987  58.7720312  26.5475230
  12.9797343  58.1583464  26.0508999  12.9947774  59.2556906  27.1254921
   4.7798124  52.7714668  36.1425829   5.2763787  52.0179564  35.6864946
   4.7923023  52.4559573  37.0619426  10.2008555  57.4022738  20.4590620
  11.1150550  57.6363905  20.4366984   9.8144082  57.8684605  19.6769708
  18.7476006  54.9350055  26.7346912  17.9508608  54.9399614  27.3065306
  19.0734671  55.8158095  26.9347727  12.8192122  43.6955477  44.2430648
  12.5950105  43.7575661  43.3015723  12.8484801  44.7391864  44.3546330
  22.7542262  63.0656977  31.2447869  22.7812122  62.0792521  31.0455125
  21.9595788  63.0730656  31.7898514  20.5887518  62.8840075  22.1899554
  20.0299219  63.4900643  22.7502809  20.9328104  62.2900332  22.8688917
  11.3308235  44.2840760  38.1161183  10.7333333  44.6321088  38.8040622
  12.0264044  45.0295581  38.2179459  15.8284298  64.4385879  16.9982308
  14.9932506  64.9778910  17.2043819  15.5656673  63.7077815  17.6832217
  31.3126699  66.5378251  15.0649894  30.8923020  66.2733460  15.9134121
  30.5536826  67.0249842  14.6410283  39.8414564  71.8522376  32.4834721
  39.1159776  72.1636550  32.9994624  39.4951964  72.1549014  31.5537270
  16.0893532  63.9983458  31.8641698  16.1138974  64.9537243  32.0555900
  16.4361722  63.9140274  30.9536593  22.3291414  66.2914539   8.1535543
  22.0719527  65.3627143   8.1556296  22.8683794  66.3492877   8.9100932
  12.7546373  50.9904456  32.5568460  12.7797465  50.1342007  33.0461316
  12.9017811  50.6028176  31.6261254  14.6205400  65.8576921  36.4577452
  13.9338306  66.3595062  36.8491768  14.5539421  66.1385166  35.5319038
  18.8230043  57.2737521  28.3344568  19.3753410  58.0867505  28.5136154
  18.2270024  57.2855227  29.1177820  31.0262246  68.5831770  17.9063054
  30.7805908  68.0980833  18.7255117  30.3803739  68.3140011  17.3019461
  36.3740513  71.6465941  21.4898331  37.0203192  71.1545121  20.9561605
  35.6110926  71.0134948  21.5790050  26.5263399  67.2566989  20.2181451
  26.6664424  66.2805862  20.1452383  25.5510178  67.2377374  20.3768598
  14.9375351  65.9767731  21.5633730  15.4599595  65.1902748  21.8841376
  15.5352856  66.3941665  20.9298794  26.4461972  57.8936025  26.0535648
  26.9892635  58.0232250  26.8761625  27.0892257  58.0425489  25.3687700
  29.8762690  59.9138505  29.8329816  29.1525461  60.5736896  30.0717540
  30.4992976  60.2554096  30.5522916  29.2033546  60.3532325  22.6592223
  29.4706080  60.8110887  23.4639586  29.9897327  60.6790329  22.0874798
  16.8781528  64.5397678  29.3794705  17.4395385  65.0379336  28.7767855
  16.3053514  64.0910753  28.6932726  18.7442377  84.0946146  15.1689384
  17.9964547  83.4548799  15.0673204  18.9531206  84.3069617  14.2306325
  27.0593726  59.9418878  40.5152561  26.8670262  59.6822808  41.4161939
  26.2405506  60.3846232  40.2497018  40.3691987  65.6065991  37.8712007
  40.1009892  65.9086810  38.7592386  41.3030432  65.9366889  37.8122432
  39.2265046  70.5565165  13.0748372  39.4337224  70.0529435  12.2808711
  38.3421980  70.3674024  13.2784231  18.7818032  72.7071938  32.2926133
  18.5151247  73.6472805  32.3989175  19.5729059  72.7306414  32.9346381
  19.7805654  62.6909222  14.7007032  19.4557641  61.9485655  15.2644806
  19.1031107  63.3095536  14.9360503  13.0891637  54.5969848  29.2085137
  12.8928296  53.9488880  29.9028918  13.0668160  55.4456808  29.6960121
  26.6007022  64.6583598  20.0846745  26.8316834  64.2085699  20.9277158
  26.2530141  63.9776388  19.5368236  11.1902817  50.2130353  26.7231463
  10.7674623  50.5641046  25.8918829  10.5597066  50.6926892  27.3576895
  28.6743000  60.7290098  26.0715341  29.5870623  60.8704571  26.2537139
  28.4612253  59.8878228  26.5338108  16.9613284  54.4239968  24.0354105
  16.0930583  54.6905043  24.4558301  17.4318334  54.0009719  24.7748730
  12.8701816  70.3812654  36.5103096  13.0657976  71.2786685  36.2918805
  12.4482387  70.0726450  35.6768533  16.5761604  55.1499166  28.4726757
  16.1136605  54.2961779  28.5173736  16.4163117  55.5542836  29.3217123
  13.1650238  64.5081530  30.3097498  14.0983871  64.3384213  30.5168677
  13.2226970  65.0355938  29.5277149  18.3720549  64.3504650  16.3657644
  17.5662155  64.3451434  16.8950190  18.0721470  64.9602497  15.6265234
  10.8590461  68.7858740  22.8327288  10.3402600  69.0283924  23.6536601
  10.1590633  68.9063405  22.1150893  19.6882247  64.6959537  30.7799354
  18.7595716  64.7967242  30.8554634  20.0706792  65.2150789  31.5466450
  23.1049798  66.0300644  24.4725199  22.2850113  66.2584071  24.0484289
  22.7796350  65.9587756  25.4241959  21.1427337  72.6186276  33.5796033
  21.4414174  73.5046142  33.2715151  21.9657141  72.4151404  34.1460935
  22.4639955  65.2556895  27.0445852  22.7059135  65.4373496  27.9820346
  22.1904297  64.3278264  27.1577757  13.0321829  76.1141466  33.1574966
  12.2306767  76.4888718  32.7235847  12.9147088  76.3049813  34.0781653
  22.2873099  61.7015142  23.9186511  22.7998375  60.8882818  24.0389168
  23.1148445  62.3613588  23.9347973  31.1717800  56.2611801  21.9183025
  30.4010644  56.0398278  22.4492474  31.5945387  56.9870580  22.5026796
  28.6341403  70.7935032  21.2990247  27.6402491  70.9595473  21.2581708
  28.8010305  71.2633598  22.1526055  20.3902242  66.5442468  25.6692777
  21.1604643  66.2428724  26.2686401  19.7174535  66.8049349  26.3311269
  35.1343846  82.4885825  24.2636693  34.2521342  82.8938924  24.4423578
  35.7037727  83.2776748  24.1535351  27.6382696  63.4510015  22.5193123
  27.0988786  64.2040488  22.8924256  28.4205570  63.5274471  23.1150785
  26.9068224  70.2870851  15.3155643  26.5008801  69.4894895  15.1692059
  26.8128036  70.7342312  14.4165123  15.9905709  68.1420566  23.3228911
  15.3105987  67.5111264  22.9801497  15.9063879  68.8414364  22.6911550
  20.2615863  70.5452977  28.4932241  21.2076823  70.6606457  28.5606820
  19.8844834  71.2745679  29.0176518   6.0511251  65.4874035  26.7239452
   5.8401632  65.7376704  27.6807339   5.6132695  66.2705722  26.2936713
  33.8310497  70.5205190  12.9719976  33.0785976  71.1965231  12.9887269
  33.2819412  69.7181721  13.1409169  23.7916385  61.9342293  20.8682402
  24.2824214  61.4043578  21.5762680  22.8963956  61.4711355  20.9208597
  22.7476966  85.9220584  28.4492702  22.6934077  85.0412749  28.8309733
  23.6486340  86.1480460  28.7240450  15.9749077  66.9260390  25.7379220
  15.8634416  65.9655751  25.4129039  16.0876946  67.3296675  24.8214872
  23.0526108  61.0004483  37.9083537  22.6552738  60.1382390  37.6532924
  23.1901605  61.4247444  37.0227274  12.4991105  65.6516148  20.4304481
  12.0595932  65.8420474  21.2783162  13.4765620  65.8187297  20.7574373
  18.6814001  56.8829378  21.7143985  17.7671154  56.7257449  21.4382228
  19.0060644  55.9968212  21.9680222  33.1856828  69.0572477  28.2092543
  32.2620085  68.7841350  27.9262309  33.5561347  68.1954660  28.3607260
  32.9365521  63.0814104  28.1065419  32.4890391  63.3101173  29.0035752
  33.8661047  63.2761841  28.3968094  20.0241082  59.7612533  27.4950964
  20.8076177  59.8744796  28.0251065  20.0236054  60.5215928  26.8919863
  30.7096017  71.8203876  24.4505723  31.0446055  72.6236976  24.0135999
  31.4828454  71.3143541  24.7343441  35.6847891  63.9285742  21.3021048
  36.1720280  63.1300156  20.9260789  35.8493596  64.4892033  20.5197261
  31.2781733  72.4771294  27.3058252  31.3994488  72.2227993  28.2650416
  31.4459382  71.5997873  26.8529751  18.2310732  66.6178604  27.5318509
  17.5401130  67.0335076  26.9612246  18.2926417  67.2775670  28.2515160
  27.5286010  63.1671671  14.8614226  26.9322115  62.4826358  14.4332779
  27.7633923  62.6834200  15.6612451  27.0826687  58.6208162  31.4400945
  26.5130934  59.3216695  31.7538711  26.5500382  57.8077852  31.7479526
  30.0414053  70.9059951  35.8315340  30.3373350  71.0552926  36.7711117
  29.1709345  71.3436575  35.8614458   9.9501588  83.8177896  21.1269876
  10.4344627  82.9721577  21.2436521  10.7643970  84.3343845  20.8315254
  34.1780544  74.5204470  35.2715637  33.7125865  74.0069387  34.5679354
  33.3787600  74.7026721  35.8497627  14.6069478  62.3104027  24.8392817
  15.0108439  61.3952092  24.7801928  13.8528245  62.2304355  24.2427298
  19.2589224  64.6974105  23.5121921  19.6584980  65.6035633  23.5029517
  18.9707945  64.6248486  24.4903226  23.9756220  68.5119537  29.6877260
  24.6705959  67.8134856  29.6589344  23.3380847  68.1137110  30.2701163
  25.3943016  73.5200568  43.6038913  25.7063230  72.9049643  42.8963670
  26.1762981  73.3524328  44.2435576  34.3718974  62.2066069  12.1507756
  34.4531315  63.1682158  12.3975193  34.0852708  62.3080571  11.1739105
  25.9712849  63.1481605  34.0876335  26.0772492  63.9328225  33.5018040
  26.7988896  63.2232547  34.6112770  43.1605544  63.0113217  14.8084080
  42.5522203  63.6600222  15.1378184  43.7192453  62.7800784  15.5399309
  38.3922780  60.1366710  38.8264326  38.1530006  60.3871433  39.7490262
  37.4889085  60.0716449  38.4490301  35.0107170  72.0554128  39.6171694
  35.9497657  71.8458470  39.5299303  34.6349715  71.1389806  39.5615706
  24.5007947  71.4243859  19.4816806  24.4284300  72.1746962  18.8045100
  24.8915754  70.7234573  18.8979770  10.9466555  77.2990057  31.4235096
  10.8593132  76.5699737  30.7747220  10.2871366  77.0742675  32.1049958
  22.7037087  81.4530954  27.1094870  23.1941144  80.5943698  27.3093875
  22.2242226  81.1974445  26.2942735   7.6512339  57.9638222  31.5005049
   7.5028085  58.8004127  31.1747227   8.5184055  58.1109946  31.9564509
  22.6454508  74.8950501  41.4837484  21.9625803  75.1218895  42.1373475
  22.5063560  75.5490020  40.8117333  24.6464698  60.0290716  23.8431033
  25.5303317  60.3071160  23.4523594  24.8402649  60.2114639  24.7873036
  15.8669099  69.4358092  20.7037693  16.1414189  68.7598141  20.0525731
  14.9319057  69.4357059  20.5835763  19.6925019  61.0364995  25.0362215
  20.5496958  61.4217270  24.7827209  19.7035553  60.2237999  24.4838936
  44.5342214  73.5609922  29.2743122  43.7021794  73.6846251  29.8057748
  45.1316956  73.3651314  30.0449981  28.9586582  56.3448822  19.3953518
  29.6263388  55.6117391  19.6329718  29.6908870  56.9281073  18.9420796
  30.2011303  79.0339848  36.2601757  30.0374708  79.9361660  36.5050607
  29.8635853  78.5363373  37.0056458  32.1207065  65.5716326  26.4388931
  33.0687731  65.6089324  26.1785676  32.1969656  64.7670327  27.0324822
  31.0550429  63.8956590  33.0909402  30.8234814  64.8189620  33.3879359
  30.2897204  63.7421330  32.5204444  32.2250694  64.0228888  30.5431627
  33.0828480  63.7876071  30.9482829  31.7015559  64.1042492  31.4039134
  22.8796615  65.3414487  29.7695617  22.8898130  64.5375492  30.3354858
  22.5561794  66.0020791  30.4317054  28.0254764  77.3993328  20.5464992
  27.8809763  77.4444640  19.5942068  28.9734903  77.6603154  20.6472709
   8.6920433  59.9704578  24.7543432   8.1076055  60.7730920  24.6221967
   8.1192575  59.3036506  25.0944526  43.5780292  70.1047878  11.0675183
  44.3444172  69.6596430  11.5320053  42.8250307  69.5890668  11.4425183
  11.4575314  63.0399161  37.7456705  11.1298951  62.1019833  37.7302401
  10.6085728  63.5151511  37.6924776  15.3305282  74.3498823  35.8394259
  14.6300705  74.9998114  36.1128358  15.6129976  74.7762531  35.0052080
  24.3676106  68.8992023  17.1340417  23.6731699  69.5092256  16.7512973
  23.8399986  68.3015605  17.6763398  23.7845715  62.4017845  35.7176795
  23.8935315  61.4518465  35.4260154  24.4602912  62.8461126  35.1776170
  11.1372099  62.4742925  30.8540359  11.4019658  63.1960100  30.2533316
  11.9433090  61.8959974  30.7984702  28.1677346  61.7142657  30.7052822
  27.2415800  61.9369104  30.5327400  28.5564543  62.5940262  30.7069023
  25.3534395  61.5613065  39.1328169  25.4279695  62.4554704  38.7199745
  24.5252741  61.2405966  38.7583885  23.9538593  77.2163580  23.7522101
  24.6176917  77.7248959  24.2431535  23.7757756  77.8484778  22.9852699
  30.9582722  67.8272497  27.4580332  31.3640668  66.9622713  27.2602568
  30.4832573  67.9095344  26.5771876  21.6662424  58.6017403  37.4201752
  21.8566485  57.7522918  36.9781496  20.9892924  58.9929138  36.7511608
  17.6650703  65.6061139  14.2315782  17.5976648  64.9710822  13.5298876
  16.7058854  65.9072161  14.2262296  31.6102766  74.0821082  19.1298587
  30.9059560  74.3543002  18.5396787  31.2936385  73.1683439  19.3758157
  36.3561455  67.7747436  19.3463090  35.7490672  67.0737323  19.0532630
  36.0440266  68.5429477  18.8808464  37.0652233  72.2413841  26.2285735
  36.4481838  71.9141767  26.9811134  36.8242698  71.4817829  25.6154463
  25.5638782  60.9055701  26.3726151  26.4678432  60.6012035  26.5920381
  25.5916313  61.8414375  26.5220196  30.0212385  60.6416827  36.3954638
  30.4472072  61.5143180  36.5967230  29.6301362  60.4404651  37.3079628
  18.5199825  64.4548057  26.1007508  19.3206933  64.2616695  26.6661689
  18.2715579  65.3401773  26.4166204   3.0934367  60.7971041  31.0917975
   2.7861935  61.5100792  31.5992193   3.0027292  60.0216306  31.6165651
  10.2619346  63.7281428  24.4337028  11.0633978  63.1418566  24.3034853
   9.8216365  63.5672835  23.5798967   8.1796722  64.5145156  29.6595895
   8.8347204  64.7422247  28.8999121   8.6734441  64.9721956  30.3698414
   8.5755393  64.3114188  40.1866996   8.7030476  64.6813912  39.2257117
   7.9251635  64.9807896  40.4230698  29.2597340  72.3226520  32.8351799
  28.7036508  72.5743829  32.0680824  28.6683903  71.6500997  33.2233223
  13.7999257  62.7984911  35.1879948  13.3883631  63.3865839  35.8658175
  13.3107888  63.1810537  34.4036016  12.5067059  58.6566946  30.5393421
  12.4583737  59.0222413  31.4345746  13.0947957  59.1916116  30.1239455
  24.5188269  73.9560255  31.4536606  24.6622174  73.5478247  32.3619968
  24.9501480  73.2585389  30.8824859  22.4548423  58.5198016  22.7049663
  23.2431805  58.9990146  23.0841494  22.9057970  58.0536524  21.9544856
  29.9683338  63.3999542  24.0798506  30.4092764  62.5543242  24.1725268
  29.5526366  63.5532160  24.9592843  19.5569849  70.0000475  25.9040703
  18.5554647  69.8725021  25.7792008  19.5313195  70.0765684  26.8958158
  32.9023497  63.9223701  21.3680735  33.8948261  64.1170263  21.2523690
  32.8140292  63.8992189  22.3257307  31.6252195  59.2489055  27.4683678
  30.9051260  59.2677853  28.1421091  32.2378066  58.5838206  27.6747143
  15.9588760  67.9491367  29.9379324  15.6260542  67.6511257  29.0438723
  16.6153993  68.6266982  29.6331453  27.8300094  59.4368610  28.1207874
  27.0946431  59.5234260  28.7483826  28.5996002  59.7208945  28.6212763
  29.2732471  68.0349674  20.2657924  28.3305684  67.8578769  20.0927293
  29.1946622  68.8978687  20.7324420   9.1531985  67.5437691  28.9202298
   8.2194405  67.5882484  28.6340846   9.6502513  67.6110709  28.0979953
  46.5168480  82.5578204  41.9326486  47.0334781  82.8252761  42.7189453
  45.6647185  82.3496720  42.3368776  38.8035300  85.7317237  28.5044054
  38.2785605  85.2901631  27.8102110  39.6932872  85.3641416  28.4651319
  31.2564272  84.9259153  17.8682285  31.0279565  84.9047235  18.8399552
  31.7849307  85.7562259  17.8466941  32.4039292  82.2501929  47.1435613
  32.7273276  81.3860063  47.4037875  31.9067751  81.9902116  46.3236613
  46.9068279  80.2326996  25.7546542  46.9118908  79.3458602  25.3382869
  47.5551969  79.9797675  26.4809899  33.3221409  83.0817184  38.2915268
  32.4879255  83.4718598  38.6488926  33.9953913  83.5842709  38.7645232
  48.8991880  74.3687438  28.9421108  49.0982397  74.4405047  29.8736652
  48.5767017  73.4299873  28.8979239  47.7056636  82.6242650  23.9498693
  47.6764862  82.0481511  24.7330174  46.9895893  82.2110724  23.3824223
  45.3046173  74.9107536  15.4131639  45.3126476  73.9477671  15.3558820
  44.8597028  75.1613869  14.5989333  40.0101085  76.8235561  34.5353433
  39.7598553  77.4837718  33.8732679  39.2738041  76.8740750  35.1753737
  26.0154099  86.5833175  13.6327391  26.4381052  85.7463432  13.9468086
  25.0672876  86.2838075  13.5326828  17.7049186  86.2551272  16.4200289
  18.3538097  85.5560493  16.2127943  16.9686819  85.7477771  16.7656700
  43.6766993  73.4234816  32.7004211  43.3038249  73.9254128  33.4517069
  43.1155308  73.7607405  31.9679766  44.0977241  67.0661209  14.9084142
  44.0843266  66.2022198  14.4686305  43.1917967  67.0070387  15.3165700
  35.1653683  77.7332370  32.3132395  35.2833410  78.5080291  31.7019090
  34.3307101  77.9810518  32.7389568  31.7338088  71.1146459  32.0414645
  31.8733180  71.7874098  32.7313158  30.8648656  71.3611079  31.6597895
  45.9590572  59.7849461  16.9343857  45.7072182  59.7209611  15.9974305
  46.9534510  59.6445072  16.8845902  33.6473110  81.1269190  32.2646994
  32.6700786  81.2101833  32.1932157  33.8617295  82.0283492  32.6022208
  22.7028538  77.1998343  33.4201596  22.0299524  77.6275310  32.8611070
  22.1552571  76.6402585  33.9812929  36.7589972  72.9199935  36.7477928
  36.6901209  72.4271854  37.5940557  35.8351530  72.7549752  36.4249533
  45.7880496  78.1635658  39.6093102  45.4352861  77.8248368  40.5136422
  46.3210771  78.9261623  39.8961632  25.1010496  74.0020381  27.1550411
  25.8970126  74.1923366  27.7609801  25.6121736  73.9651633  26.3257616
  28.2613607  65.9639016  25.4942587  28.1490213  65.0076827  25.6387540
  27.6549616  66.3600274  26.1469089  34.2023149  70.2006416  32.6151680
  33.2943960  70.5036363  32.5598840  34.6619877  71.0035366  32.2081530
  35.7643110  78.2350724  42.2979815  35.4268120  79.0408660  41.9254654
  35.3943281  78.3136433  43.2060636  33.0971140  81.2713265  27.2999066
  33.8887041  81.0696344  27.8566449  33.4957986  81.0866064  26.3970926
  39.3736889  76.5065725  18.5068865  38.8611788  75.6458731  18.5825142
  40.2667750  76.2131524  18.8000164  39.2321757  83.9128954  34.3589762
  39.2801324  84.4863864  35.1671515  38.2221814  84.0759087  34.2439562
  35.8222088  65.6200279  41.3551998  36.3893157  64.9282187  41.6244180
  36.4171234  66.3444599  41.1120491  35.0139001  76.0634479  28.2995747
  34.9856910  77.0545093  28.2697890  35.2656121  75.8923561  27.4017285
  36.0484225  87.7065889  32.6273571  35.6538249  88.3776838  31.9702165
  36.3023632  87.0279897  32.0604447  31.3217719  77.5038670  32.0565152
  31.8775592  77.6180196  32.8304177  31.7552362  76.6543367  31.6927738
  27.9416208  74.5433143  19.8444754  27.4217442  74.3302080  20.5988054
  28.2676553  75.4399884  20.1065651  40.2078920  76.8715355  29.0946367
  40.4902052  77.8024410  29.0042218  40.2325874  76.5442068  28.1519095
  25.9798409  73.2978628  15.0630184  25.5718149  72.8122903  14.2783880
  25.2169597  73.9720943  15.1644240  36.7637501  74.0959349  28.5838095
  36.1525135  74.8387357  28.5707208  36.9704162  74.0296603  27.6396334
  30.2306464  94.3590737  19.5369146  30.0726128  94.0920411  18.5955873
  29.8254197  93.5370488  19.9694905  23.5526863  76.8319752  45.3466370
  23.8707006  76.6094775  46.1726401  23.1654483  76.0067905  44.9482105
  26.7328373  68.7694015  35.8468426  27.0392651  67.8764370  35.7469603
  27.3300784  69.1671989  36.4924151  57.0464488  86.5695546  23.9396255
  57.8786687  86.0589046  23.8287751  56.8049669  86.3018833  24.8433261
  34.2597404  63.8175077  37.6617099  34.8308335  63.6429504  38.4024856
  33.8625637  64.6736891  38.0152828  25.7615273  71.4638347  30.0599304
  25.8004465  70.5644319  30.5552674  26.1002384  71.1277319  29.1769543
  13.4529336  61.5560655  30.0093857  14.3877329  61.4243019  30.1523674
  13.4248780  62.1440590  29.2533724  27.7305906  91.7933643  35.0028164
  27.5301965  90.9374226  35.4275843  28.0326336  91.5170982  34.1155254
  40.9667907  75.9540892  36.9926649  41.7775173  75.4447399  36.8588860
  40.7680738  76.3389376  36.1460299   8.2410335  86.2742504  28.8823565
   7.8386235  86.9087784  29.6128290   9.1098312  86.1852797  29.2295320
  39.4401136  78.2469112  21.2171342  39.5080865  77.8063662  20.3876129
  40.0295544  77.6276730  21.7905788  38.3096626  62.1376451  11.5259357
  37.8605595  62.4174054  10.7267441  39.2333292  61.9966103  11.2285373
  38.1214805  69.0252467  31.7201801  37.7783698  69.7072358  31.0433443
  38.6312513  68.4356327  31.0951572  27.9888442  63.4092895  25.8852150
  28.2519672  62.4597934  26.0375067  27.0904053  63.4338276  26.2436666
  41.9617354  89.0847348  26.4422388  41.8138655  88.3902496  27.1463713
  41.1150532  88.9517190  25.9772043  45.3721736  78.1317374  30.7794002
  46.1121393  77.9888525  31.4118903  44.6812273  77.6220360  31.2326524
  33.0887413  90.8082686  23.8073753  33.9492675  91.3095738  23.8257103
  32.9461999  90.8341639  22.8159746  45.2671775  78.3453420  35.5970275
  46.0443283  78.2505009  36.2027848  45.1971532  77.3984240  35.3122093
  32.6608982  75.0117500  31.9096821  32.6196246  75.0580380  30.9015411
  33.6063567  74.9426877  32.0554492  43.8613201  78.8879666  26.9632345
  44.2816078  78.4041425  27.6789781  43.0427994  79.2796747  27.4201704
  14.9230240  70.9509416  14.8657458  14.4471223  71.5222900  15.5072955
  14.6832289  70.0960755  15.2124703  30.0887039  76.8329225  24.7660297
  29.6178078  76.2650944  24.1568272  29.3569414  77.1959562  25.2626611
  31.4824849  86.0870925  24.7054799  31.4562595  86.3782412  25.6665245
  32.3012455  86.5436535  24.4235536  40.4511192  75.5046911  25.5486091
  39.7913442  74.8177143  25.5907541  41.2503440  75.1118460  25.8532796
  35.5480758  79.9645806  30.6946898  34.7900933  80.4249673  31.0590169
  36.2899585  80.5264079  30.8868273  29.4981218  71.3436893   8.6982731
  30.3653946  71.4650048   8.2923558  29.6072480  70.4625810   9.1770455
  40.4290885  82.2863658  22.0333484  40.1575491  81.4433124  22.4852923
  40.7738894  81.9649065  21.1916489  49.4284454  62.2305156  34.0191496
  50.1419505  62.6874302  33.4338807  49.5497058  62.8172600  34.8038038
  16.0401100  82.8336418  14.7327173  15.1332461  83.2010631  14.5742749
  15.7110087  82.1052480  15.3653943  26.5025127  70.8821536  27.5225811
  25.6147346  70.9124900  27.1015655  26.9309536  70.1943573  27.0736394
  20.9639135  78.0447514  19.0889001  21.1914795  77.6945614  19.9878317
  19.9874085  77.9478801  19.1403869  18.2781719  77.7780812  18.9463829
  18.0014694  76.9327386  18.4859723  17.6308812  78.3958421  18.5666404
  40.2096457  81.0238817  34.5311260  39.2442043  80.7112796  34.4637130
  40.0226993  81.9996693  34.4612027  44.9726336  79.7083362  20.6599985
  45.2214338  78.9748102  21.2679921  44.1414183  79.3748513  20.3113277
  20.6043338  78.1024140  31.8839437  19.7466941  77.6661595  31.8389841
  20.6352200  78.6436769  31.1103601  44.1288078  83.5833390  28.5564846
  45.0509199  83.5904639  28.9212581  44.3136811  82.9525685  27.7931539
  26.2240997  82.1332299  20.8277066  26.3940307  81.1871006  21.1421871
  26.9787099  82.6156404  21.2646724  26.3605220  65.7804394  23.1028398
  25.8008114  66.2794173  22.5002529  26.9100179  66.4722248  23.4774493
  27.0185025  75.5696183  28.3482418  27.1781269  76.2325805  27.6006731
  27.8291840  75.0147735  28.2725814  38.5848996  78.5002694  32.6553524
  38.0497993  79.3220738  32.6508481  38.1358131  77.9773032  31.9895930
  52.2448882  69.1421258  39.1675037  53.1149187  68.9964709  39.5758809
  51.9760809  68.2903089  38.9267571  35.3438130  74.9766302  31.1311964
  35.9900494  75.6834210  31.0400489  34.9457591  75.0813203  30.2327838
  41.9398823  82.6478168  31.8009190  42.8535627  82.7584980  32.1475098
  42.0666211  81.8649974  31.2413734  49.2406097  77.2765337  35.4956455
  49.2771505  77.9977502  34.8259501  48.5894996  77.6605904  36.1435116
  28.6148777  87.5703261  28.1881982  28.8904187  87.5739898  29.1163425
  27.6126369  87.4426269  28.2463187  43.8575696  76.1639991  13.3182975
  43.4180776  76.3728747  12.4247515  44.4158584  76.8575957  13.4784461
  37.2992717  67.5331772  40.3781868  36.6533905  68.0360760  40.9038008
  37.0353604  67.7303937  39.4445506  37.8143478  73.0714243  34.2038660
  37.2593426  73.0223429  34.9802859  37.5500785  73.8917615  33.7676454
  41.0775723  78.5976788  38.4956207  41.0625241  77.6370357  38.1056969
  42.0212238  78.7420064  38.2652029  27.0741477  79.4239939  34.1259296
  27.8800689  79.4737059  33.5581718  26.6201519  78.7320335  33.6031936
  44.9734888  80.1985189  33.6935793  43.9816949  80.1000492  33.5356353
  45.0648406  79.4754186  34.3648205  31.8994104  78.9499323  24.8395159
  32.6870026  78.3833613  24.5347827  31.2347462  78.2109427  24.8684163
  41.1725706  67.4931840  25.3419806  41.7596056  67.0343326  25.9081626
  41.5689904  67.2211117  24.4557302  39.1945432  80.5145421  37.3288859
  38.9010354  80.5162121  36.4958485  39.6579313  79.6661731  37.4698507
  24.6814653  78.8724657  19.0664306  24.7039001  78.2169753  18.3819294
  25.5142529  79.3346901  18.8323081  36.3765676  75.8810103  34.4275507
  35.5597341  75.3951847  34.6174722  36.1251512  76.2686991  33.5357129
  46.4971178  77.4708174  22.1901616  46.4943338  76.7398051  21.5595281
  47.3776387  77.8866093  21.9110498  30.4282005  81.4454608  17.5919763
  29.9227453  81.2035991  18.3857143  30.6035089  80.5080635  17.2172861
  42.7740653  74.5910880  26.9713684  42.8740622  73.6495114  26.7611609
  42.9517862  74.5669096  27.9799114  35.6301974  63.2999884  28.8937885
  36.5550537  63.5483431  28.7228300  35.5052676  63.0420582  29.7670770
  28.5400649  63.1124389  53.8020830  29.3799811  62.8054390  53.3501893
  28.1023246  62.2781405  53.9828478  30.4398076  83.7611549  38.7559766
  29.8885513  83.9115358  39.5090557  30.4788248  84.6189819  38.3044071
  36.0421838  80.5551637  26.9044443  36.1837868  81.5289993  27.1493090
  36.9710828  80.3381030  26.7620184  36.8822163  81.3225073  32.7399289
  36.8676550  80.9833342  33.6331249  36.4639400  82.1539840  32.7501794
  27.3601767  82.0315470  39.0049313  27.6122822  82.4997021  39.8112474
  27.5037849  81.0974539  39.3199236  24.4477471  70.7648025  25.9926601
  23.7115059  71.1249355  25.4312570  24.7769824  70.0938333  25.3092595
  33.7114664  69.6457843  35.3170289  32.8249153  69.5216755  34.9747870
  34.1700050  70.0522842  34.4856654  24.9370464  68.1860065  24.9823621
  25.4682753  68.2353448  24.1326654  24.3201989  67.5012987  24.7376698
  30.8672100  70.9931523  15.9990779  30.0007101  71.1382241  15.4638261
  30.5051504  70.2957106  16.5848202  41.9472456  70.5100140  35.7347993
  41.1617620  70.1073767  36.1672467  41.6385597  70.6841127  34.8307948
  26.8202715  59.8641900  19.2816748  27.1391594  59.2652007  19.9843250
  27.6465273  60.1774853  18.8696353  22.6715215  73.2164580  17.6776549
  21.7539945  73.0371273  17.9534881  22.6994585  72.8221223  16.8240175
  41.9340320  73.7645669  17.2845052  41.8266471  74.5841419  16.7268987
  41.6978058  73.0929256  16.5444982  28.0847139  83.8266536  32.6308739
  28.0915372  82.9645513  32.1717713  27.1648654  84.1198011  32.4614020
  30.1255148  77.1100246  29.0385793  30.7763035  77.7103070  28.6397737
  30.1469367  76.3525884  28.3954127  34.6777606  71.4243486  28.3713913
  34.3362913  70.4955713  28.3606373  33.8842867  71.8704460  28.7807576
  14.3618382  78.4015718  20.7065933  13.4995128  78.8629956  20.7593047
  14.5434507  78.4357556  21.7074798  25.2939357  74.1356718  21.9945497
  24.7034694  74.1077071  21.2199830  24.7172124  74.6811389  22.5900266
  39.7358623  72.3377539  25.9778650  40.1322638  72.1137686  26.8050075
  38.7432828  72.3375997  26.1925585  38.0167706  83.3975286  30.7108429
  38.7576461  84.0280423  30.8198773  38.5242387  82.6281848  31.1341111
  21.6411942  71.5712473  25.6388841  21.4028402  72.2832011  26.2357126
  21.0445869  70.8385904  25.9069168  52.8927707  73.5476383  27.0500568
  52.3546291  73.4647614  27.8605529  53.7267380  73.1386591  27.3846865
  28.5153444  68.5626499  47.2611491  28.6776066  67.8551349  46.6316367
  27.7300143  68.1954154  47.7063768  50.2250352  77.9203247  43.8338331
  49.7389800  77.1885474  43.5021816  50.3347983  77.6133913  44.7609854
  47.9908396  71.7223869  29.0396585  47.2342695  71.4310145  29.5537213
  47.5991598  71.9624601  28.1858171  37.9282742  76.6237785  30.5175724
  38.7600830  77.0400157  30.1778316  37.8354086  75.9221589  29.9138814
  25.0839815  76.6338620  30.2690296  25.6336974  76.2176963  29.5752780
  24.7261640  75.8580443  30.7339104  53.8653956  80.2463978  40.6897308
  53.0959370  79.6697928  40.4693792  54.6102885  79.5747723  40.7732600
  53.9878940  82.8629396  17.5382984  53.3716430  83.4546313  18.0384777
  53.3531969  82.0987627  17.3758735  36.9237121  68.1207930  28.3661327
  36.4381318  67.2960600  28.2142780  37.5460660  68.1162541  27.6096048
  27.7842512  72.8481470  30.7078234  27.6489844  73.2494533  29.8001625
  26.9522976  72.2433418  30.6634777  37.0610535  70.4779127  29.6047782
  37.1149252  69.5401716  29.2549535  36.0980081  70.7006481  29.4920956
  25.7755913  62.1747750  18.9651396  26.1768137  61.2729058  18.9624036
  25.0282454  62.0416896  19.5790799  41.5172333  76.5996650  40.7592600
  40.6748225  76.9466622  40.4401738  41.1794009  75.9859526  41.4311863
  36.9577944  75.3441147  37.9610963  37.8267094  75.1413266  38.4155240
  36.8999946  74.5503422  37.3970156  37.3306329  75.4957965  22.3507303
  37.6186203  76.2118839  21.7555412  36.4343326  75.3631637  22.0533212
  34.5468181  76.8362351  46.5761936  35.2440657  76.9590281  47.2433667
  34.6962999  75.8311954  46.4104721  18.8198986  72.5639384  29.6099382
  18.7311910  72.5375507  30.5233646  19.3033771  73.4438345  29.5589136
  44.5685528  70.4909727  33.7214577  44.7234228  70.8947568  34.6289129
  43.8795213  71.0471672  33.4090857  33.5069712  76.8557800  24.5936181
  33.2238633  75.9740940  24.9861242  34.4671714  76.7823030  24.7991084
  50.7802107  90.8457268  35.4470958  51.4358936  91.4193576  34.9744111
  50.8453802  91.2189235  36.3341724  49.7852984  70.8608901  34.1572886
  50.5681931  71.2390799  34.6564118  49.2946249  70.4468891  34.8619074
  22.1500123  80.9922266  30.5515948  22.3761188  81.1601406  31.4713353
  22.7118416  80.1796137  30.3531617  50.9839374  62.9244336  13.9694388
  51.4329969  63.5853260  14.5496097  51.6955222  62.2470798  13.9744441
  13.8010288  79.0587731  31.1278457  13.4065183  79.2697389  30.2712434
  13.5574973  78.1003930  31.2219024  22.5766177  85.7973745  31.3990580
  22.4411185  85.1227602  32.1194004  22.5712852  85.2479105  30.6059086
  34.1432292  86.4602480  26.3708227  35.1135558  86.5419557  26.1971536
  33.7916775  87.1398869  25.7033562  38.3566278  69.1583879  23.7844680
  38.4099413  68.3594255  23.1622669  39.0832636  69.6570459  23.4159960
  26.6531947  69.9071466  53.2093255  27.3013821  70.4534604  52.7631237
  26.0370745  70.6305944  53.5215887  35.0904638  73.9493285  20.5256069
  35.5471454  73.0982996  20.5869726  34.2419969  73.7251624  20.9546794
  40.5931856  71.7233689  28.3609209  40.3343332  70.8042223  28.3730623
  40.3198319  72.0091288  29.2631033  28.1877644  77.6269217  30.5862709
  27.4625693  77.0326241  30.3775955  28.8926322  77.2821193  29.9854145
  32.5900253  86.7467161  37.1158422  31.6776793  86.4053372  37.3644322
  32.6652027  87.4979366  37.7726954  17.8587179  75.2087997  32.6407200
  18.0178205  75.9880981  32.0970417  16.9693554  75.4237350  33.0591249
  47.2755268  79.2120216  19.1930923  46.3973939  79.4890403  19.5486991
  47.2236156  79.5531218  18.3172309  41.7426771  67.3087491  31.4451344
  41.2571178  67.5867376  30.6434328  42.2571528  66.5621927  31.1253298
  39.0498397  80.2207132  22.9467349  38.0703462  80.1625239  23.0035355
  39.1428789  79.5711194  22.1487338  42.6998978  78.2351670  19.6368375
  42.7396837  78.0416783  18.6586814  42.5118602  77.3791551  20.0058845
  48.7463640  74.4454329  19.2764738  48.5311812  75.3077597  18.8979375
  49.6476041  74.7084895  19.6922443  48.2942586  77.0045867  29.0277534
  48.8974381  77.2785081  29.6941283  48.4159426  76.0044460  29.0642024
  50.7255813  77.6910872  12.4245352  51.3121929  77.2759566  11.8221603
  51.3161947  78.2243277  12.9728322  51.5320071  71.6381738  12.7696554
  51.7046728  72.5396414  13.1412249  52.1325755  71.0888038  13.2760683
  40.8365438  76.2488663  22.6433207  41.8388612  76.1960848  22.7401170
  40.5939371  75.6618910  23.3671847  30.0188846  76.5537523  35.3032485
  30.1959377  77.4390492  35.6593769  29.1531455  76.6889121  34.9070767
  30.2000567  81.3684833  37.2521942  30.4035712  82.2162173  36.8903994
  29.6341506  81.6016235  38.0202266  30.2032201  71.7572604  19.4003704
  29.5163467  71.5040132  20.1155803  29.5223604  71.7931451  18.6456618
  35.5788961  65.0965595  15.2818511  34.6245670  64.9905132  15.3652174
  35.9315488  64.3140475  15.7226385  21.9225398  74.8799993  48.6776520
  22.2599965  74.5263179  49.5419006  21.7493110  74.0949767  48.1883292
  49.3068496  87.5197168  46.1965586  48.9388072  88.4381302  46.1977274
  49.7626288  87.5478964  45.3221729  61.8318872  80.4482265  46.7573280
  62.0000422  79.6642730  46.1969169  61.5843723  81.1168475  46.1335326
  42.8373747  78.5832149  42.4449252  42.2905428  78.1053911  41.7235417
  43.7178124  78.1896815  42.2394934  55.9068730  85.2510992  26.1462507
  55.3204487  84.5422315  26.5534613  55.0897570  85.9152351  26.0761667
  41.3171430  87.3778182  28.4872232  41.2860478  87.3128718  29.4714521
  41.5988855  86.4877553  28.2830192  43.4858709  69.9579928  21.5678863
  43.4548437  70.9146266  21.7321099  44.1922051  69.6614506  22.0721159
  50.3064337  68.7887413  16.4026778  49.5107281  68.2821167  16.6997657
  50.0893634  69.6505458  16.8084688  49.7307371  78.5948187  30.8758650
  49.8490316  79.4072600  30.2768468  50.6055618  78.5020202  31.2209204
  49.4830436  91.4446316  28.9151633  49.0658666  91.1088296  28.1175651
  50.3033296  91.8647086  28.5541976  51.6275523  77.2148170  25.3342462
  51.0793823  77.9373858  25.7087640  51.1899383  76.4835392  25.7937772
  52.3262332  66.0187070  33.0767243  52.0990591  66.8929246  33.4672314
  52.2042220  66.3333457  32.1190578  44.4765959  82.6549005  32.4022410
  44.5965212  81.7896958  32.8643731  45.2835279  82.5956593  31.8451730
  48.3546116  81.1252515  28.2531101  48.7631821  81.9144428  27.7933219
  47.7366025  81.6169576  28.8509138  45.5386238  88.4170873  32.9841900
  44.9921929  87.6231843  33.0092341  46.1399140  88.2818529  33.7454248
  47.8970933  82.9506141  16.2068872  48.1282604  82.5735316  17.0449811
  47.4965009  82.1744838  15.7084481  54.9596763  86.3573200  29.9490452
  54.4912980  86.4434784  30.8221522  54.6605520  85.5226052  29.6463001
  58.5092954  84.2836378  26.0474514  57.6034947  84.6469367  26.0103731
  58.3211869  83.3570166  25.7425563  51.1431295  88.1297965  27.8004349
  50.8530515  87.7087408  28.6131021  51.6148931  88.9326291  28.1260539
  42.4701548  74.7815213  30.4617360  41.5976781  74.9137470  30.0406080
  42.7280884  75.6899960  30.7204741  38.4090038  72.6062990  30.0841621
  37.8263438  71.8229954  30.0328690  37.8402990  73.2241479  29.5254552
  53.2670881  77.3715717  10.6519107  52.7242251  77.7968422   9.9180330
  53.9732862  78.0452093  10.6830451  37.5868364  89.5968172  14.7436037
  37.8973801  89.5575104  15.6402533  37.2033644  90.5040505  14.7281513
  41.5181084  89.6408214  31.9173948  41.1704295  88.7265456  31.8863976
  40.7982476  90.2146283  31.6042762  61.9185699  84.7654209  23.8217071
  62.2661310  84.1156594  23.1452320  61.3664277  84.1444934  24.3385750
  49.3524632  93.3472448  38.1814990  48.5885896  93.3713134  38.7306662
  49.1691361  93.9863655  37.5316135  44.3140936  83.8857862  16.0189538
  43.6641417  84.5302390  16.4424141  44.0405211  83.0375772  16.4508549
  40.1561227  72.9868293  35.5548122  39.2409448  73.2609730  35.3427761
  40.4818587  72.7850964  34.6638074  -0.6517780  20.0710914  14.8258617
  -0.5865423  19.5299015  15.6904023  -1.1473436  19.3967696  14.2956999
  11.5433091  10.4405068  16.0508601  11.8461260  10.0339170  15.2379066
  12.3769441  10.7830710  16.4544890  -8.0389056   9.6429259  22.3344526
  -8.8275014   9.7225960  22.8429274  -8.3072305   9.8932231  21.4344894
   9.9403270  26.6877573  21.7615658   9.2928175  25.9524721  21.7502122
   9.4738668  27.3289611  21.1831509   0.8060810  13.4789154  19.5674984
   1.5566059  12.8682681  19.6871712   0.0750976  12.9051221  19.9015730
  -1.3886110  12.2259955  20.6623470  -1.4464777  12.1827383  21.6250829
  -2.1314173  12.8884843  20.5307983  15.0345635  22.8834749   6.2712992
  14.4096267  22.1640941   5.9917973  14.7789075  22.9484109   7.2428781
  12.8219124   4.3862892  18.6950520  12.2287227   4.3139946  17.9558451
  13.5898496   3.8607718  18.4267929  14.8927537  24.2725148  24.2587488
  13.9512883  24.5228017  24.4600357  15.3432666  24.7809641  24.9253679
   2.8946233   5.2035558  25.1076968   2.6604756   5.6823879  24.2816656
   3.0943011   4.2877773  24.8025546   4.0287878  19.3711510  21.5863000
   3.7372089  18.4559250  21.8083481   5.0278936  19.1869555  21.5567708
   0.6316306   9.8624260  16.8696348   0.5459841  10.1794260  17.8100937
  -0.0328024  10.5363913  16.4522722   6.5239995   8.2335798  20.4618679
   6.7382644   8.6553090  19.5912599   6.7097910   8.9822418  21.1015110
   6.2750454  18.3559084  27.4788729   6.0779213  18.3107059  28.4761466
   7.1634615  17.8570884  27.5148628  19.5745941  23.8175683  12.2195908
  19.3243141  23.1685088  12.8913886  19.7435343  23.2765870  11.4150251
   4.4101694  24.0407175  38.7213825   4.7339647  23.1614847  38.6797174
   5.0761142  24.5452389  39.1142542  10.8870074   6.2770558  30.2983929
  11.8045305   5.9767049  30.2537833  10.8349416   6.7596628  29.4130398
  14.1349370  20.1767534  16.9302440  13.9244890  19.2173602  16.8087449
  14.2560918  20.3918663  15.9585895  13.0249489   3.7696176   9.3592671
  12.0838653   3.8023408   8.9400269  12.8153802   4.3776479  10.1168961
  12.2400877  17.8417855  23.5411168  12.3295561  16.9946548  23.9899477
  13.1948079  18.0679390  23.4335299   6.4863756   1.2728473  24.6398005
   6.1340385   1.5196827  23.7454171   6.7974613   2.2060075  24.9035527
  20.8489008  20.3477029  24.4077663  20.5255397  20.5277408  25.3311348
  21.5963062  19.7766174  24.5825317  11.8854802  22.0087489  22.4953276
  11.0089831  22.2130545  22.1476187  12.5108970  22.5071001  21.9957409
   4.8741546   8.3599235  32.4628766   5.1119996   7.4554041  32.8718630
   4.5162081   7.9355375  31.6270008  -6.5122212  15.3618448  33.1117939
  -7.1678160  16.1229428  33.2658843  -7.1722799  14.7190943  32.7301616
  -2.1393803  18.5456905  16.9437382  -2.5612534  19.1248222  17.6715883
  -2.5876443  17.6793789  17.1764811  24.9944641  35.3590339  13.5540416
  24.0537475  35.3455683  13.9167305  24.8218099  35.8126693  12.6961170
   4.3222885  20.0870424   8.7853626   4.8244798  20.4626547   8.0383425
   4.3072038  19.1303590   8.5673279   3.0470306  23.6890943  20.0060594
   3.5919218  22.8781725  19.7576865   3.5910528  24.1115809  20.6483327
  18.8797994  32.5198957  27.7999110  18.7308314  31.5971099  27.8456198
  18.0578945  32.8916928  27.5266010  12.3414039  25.0378923  24.6444713
  11.3918270  24.8845367  24.4006441  12.3456964  26.0274465  24.6199997
  27.6888547  32.6493841   3.0351272  28.1536595  31.9629052   3.6319273
  28.4748709  33.2546410   2.9170015  15.3678030  33.5392981  22.0941434
  15.0241335  33.1426173  21.2888465  14.8985980  33.0075943  22.7849008
  12.3834525  36.2661936  12.3095434  12.3708368  36.7127449  13.1993650
  11.5888521  36.6296981  11.9237123  12.2644052  35.6822372  18.1920495
  12.8344208  35.7025392  18.9662237  12.9158394  35.2873550  17.5375258
  21.8295305  32.8526511   8.7738576  21.7732670  31.8812128   8.9188747
  20.8643080  32.9593668   8.5884672  17.1155442  14.7955990   7.5098212
  17.0847117  15.2852829   6.6957922  17.9894716  15.0014489   7.8985248
  14.2482341  27.6686493  22.2194559  14.5854826  26.7743785  22.0886915
  14.2289163  28.0744082  21.3286794  20.7955804  13.6763916  24.6145500
  21.3647227  13.3068483  25.3728840  19.9337644  13.4214001  25.0513096
  17.7271409  22.1219166  17.3237420  18.2202401  22.9201484  17.1428859
  17.8865300  22.0041239  18.3028216  10.4180649  15.4571978   7.4952909
  10.0871672  16.3659518   7.5826871  10.9445861  15.5706687   6.6873387
  27.4627275  15.1053039  20.3607669  26.8579483  14.3678104  20.0008684
  27.4644490  15.6542292  19.5474360   2.5235134  27.3471367  14.2689604
   2.6962867  28.2522953  13.8087413   3.2071050  27.4632290  14.9781713
  24.9788072  39.1691286   5.4756525  25.4250351  38.4539882   4.9272849
  25.2334954  38.9321270   6.3340435   4.6804530  21.5552928  19.7133216
   4.3616316  20.8130671  20.1965931   5.0860841  21.1047232  18.9193117
  37.6625754  26.2462664   3.4187651  38.4796521  26.4317000   3.9905831
  38.1413571  26.0087210   2.5997936   6.5807262  20.6670847  17.9006658
   7.4345259  20.2648951  17.6595760   6.0285558  20.2095475  17.1927514
  16.8076078  31.7813324  31.3888483  16.0825042  31.9153821  30.7181358
  17.5225830  32.2764266  30.9824163   7.0739528  25.6402413  19.6120817
   6.9779262  24.8833430  19.0162499   6.1776333  26.0010150  19.5978332
   5.6059563  33.2182142  22.2329225   4.9862247  33.9987852  22.3119837
   5.4481224  32.8554389  23.1430932  14.5039342  24.9915868  21.4524954
  13.9285425  24.3499313  21.0248816  14.5901704  24.6799957  22.3599986
  17.0833675  27.1994107  24.7496732  16.5131686  26.6993907  25.3395412
  16.7993472  28.1204207  24.8521007  15.7923779  34.9791065  17.4098475
  16.6352163  34.8126643  16.9652586  16.1098059  35.1484427  18.3063740
  16.5345102  14.2033217  17.0327653  16.5075320  13.2451826  16.7994412
  17.4451009  14.3850881  16.8064520   7.7612949  21.0286623  11.4854761
   6.8713618  21.2641084  11.2956146   7.9277238  21.1808121  12.3938067
   0.9925467  22.0949781  20.7670560   1.6077721  22.8339233  20.5232244
   0.6928484  22.4131463  21.6332693   0.6627579   8.9130697  22.4403322
   0.6738459   7.9752113  22.7129469   1.4512923   9.3179678  22.7552249
   8.2404341  -3.5675934  20.4446496   7.3558696  -3.8315223  20.8537121
   8.3629186  -2.7058449  20.9274616  17.4555855  31.9636219  18.7861025
  17.5889875  31.0801767  18.4032631  18.1807701  32.4278644  18.3762842
  16.3489991  34.8657140  32.8585753  17.1497059  35.5144807  32.9307652
  16.5925740  34.3358269  33.6612675  11.2448104  18.0429928  21.0823363
  11.6198220  18.0544691  21.9764101  11.7659530  18.7732395  20.6043418
  22.1326302  32.4684768   3.3155191  22.5829071  32.2903848   4.1779898
  21.3018036  32.8520879   3.6159376  15.7713339  20.3259933   7.9597374
  15.1479933  19.6769947   8.2931062  15.3930795  21.1432586   8.3100311
  12.4839156  27.6718397  24.5131325  12.1746458  28.5224095  24.0920316
  13.2135375  27.4262860  23.9201736  12.1077136  33.2505568   9.4684758
  11.8759260  32.3272552   9.4655206  11.6528335  33.5411856   8.6650113
  13.4525621  36.1433805   2.6825278  13.0922551  36.9680544   3.0257255
  12.5868796  35.6609900   2.5898894  16.6031424  15.8123346  27.7205549
  15.7660315  15.3262840  27.7437504  17.0912395  15.4442382  28.4396435
   8.2164633  37.6725525  29.3412217   7.9033361  37.9132822  28.4766915
   8.5770106  36.7497013  29.1839967  12.6189073  34.5492049  21.1564038
  12.7585704  34.6677057  22.1284039  13.3573163  34.9759131  20.7318214
   5.0817170  18.9640693  16.0064531   5.0160407  18.9798019  14.9971679
   4.1832073  19.0833297  16.2912793  14.3270727  33.3247458  31.9230407
  14.3711302  32.7781564  32.7192192  15.0151841  33.9799197  32.1091681
  22.2880890  31.3710034  25.4634675  23.1485688  31.0978889  25.1896639
  22.3792487  32.3117418  25.4862046  14.2942976  23.8869234  35.9991283
  14.1848646  23.7668774  35.0350163  14.0676854  24.8394825  36.1106160
   4.8455696   4.6052449   9.8149612   4.3178558   3.9111503   9.4043476
   5.3208373   4.1525691  10.4651744   6.2467914   9.8954212  18.0209066
   6.2474700  10.8708000  17.7818286   7.0972045   9.6498716  17.5666267
  16.0954155  30.4290734  13.7110204  17.0349228  30.2690339  13.5519943
  16.1796702  31.1575269  14.3586148   9.8704065  29.3436890   5.1696808
  10.2238441  28.4090935   5.0798803  10.4713100  29.7008578   5.8378161
  16.8734761  27.9779767   7.7484508  17.6476132  27.8887583   8.3093048
  17.2220000  28.3960630   6.9460345  12.1188421  24.9372204  12.6649612
  12.9681545  25.3090166  12.3951335  12.3720226  24.4879509  13.4785724
  15.3217649  41.1475839   4.5188533  15.6264895  41.9764109   5.0685233
  16.2189674  40.8839808   4.2050859   5.0940357  20.2909573  25.9750628
   5.7493251  19.8972979  26.6355799   4.4923436  20.7588888  26.6281880
  15.2304765  28.7227609  10.8660526  15.8811977  27.9938098  11.0455434
  14.4466766  28.3639521  11.2878844  25.2588942  26.8421609  12.8317821
  24.4387599  26.3662463  13.0717419  24.8130564  27.5450726  12.2532400
  22.1003792  29.0128459  12.2443076  22.9420905  28.9050726  11.7167192
  21.5109853  29.4129702  11.5868431  17.8898559  31.6444305   6.4264355
  17.3631042  31.7119097   5.5626198  18.3114132  30.7982628   6.2391391
   9.7509825  30.7437361  14.6247205   9.5194405  31.5327812  13.9843246
  10.6442747  30.6244234  14.2674714  10.8816423  30.7466187   9.8805605
  10.3111291  30.1653160   9.3703001  10.5707606  30.5440724  10.8180180
  15.3219482  29.3616711  17.0578437  14.6249533  29.0457073  17.5762847
  14.9047471  29.9862564  16.4239443  18.5812583  28.9509086   5.9656745
  18.8964452  29.4100044   5.1648004  19.1385232  28.1474678   5.9241868
  12.0936175  20.8531875  14.1903718  13.0748522  20.8972234  14.1297047
  11.9922491  21.2752297  15.0987202  17.4626579  30.2769883  21.0480923
  18.2962809  29.7711773  20.7538803  17.0837921  30.4942455  20.1690004
   2.6618073  29.7894082  13.1984140   1.8137494  30.2456680  13.1678973
   3.0710467  29.9935871  12.3781208  16.9214275  26.7013177  11.2446176
  17.8830656  26.8948476  11.4921682  17.0756285  26.1242300  10.4944378
  -1.8206895  17.4690305  29.8445095  -2.2233295  17.5221366  28.9665914
  -0.8852620  17.3976649  29.5443074  21.1657638  30.9368065  21.3938001
  20.7935723  30.0106580  21.3123029  21.9272054  30.9243509  20.8612878
  17.9674821  22.1815250  19.8390936  17.0565516  22.0683211  20.1971749
  18.2979975  22.8317082  20.4908006  25.6344921  31.9421999  25.8551540
  25.1887079  32.1499652  24.9920132  26.0418438  31.1277082  25.5912936
  12.4390737  38.6601775   2.2809422  12.9897067  39.1601664   1.6808445
  12.1612954  39.3778234   2.8744791  17.1017791  25.7705449  20.6193178
  17.5075279  26.1040087  21.4271492  16.2082840  25.4738467  20.9811667
  13.1849643  44.8072521   1.0552545  13.4923029  43.9654157   1.4394169
  12.2091118  44.6710993   1.2224403   6.6733293  28.6445128  23.8719178
   6.6318068  28.3284592  24.8110186   7.6485760  28.4417719  23.6852188
   3.0115087  10.1597365  33.4838846   3.5758058  10.9708180  33.6786838
   3.7201388   9.5780976  33.1556809  11.4828289   9.2376914  21.5777785
  11.5989453  10.1415126  21.1260331  12.3581767   9.2423594  22.0367645
  -0.5183710   3.9202795  31.1385116  -0.7477441   3.1633450  31.6870875
  -1.3336824   3.8486375  30.5136307  12.2654824  37.3885343  14.8745861
  12.4573945  38.1745513  15.4343353  13.0763761  36.8437540  15.1190926
  16.8816690  23.6144906  10.0069093  17.3812986  24.2279827   9.3902853
  17.5700371  22.9003024  10.1001955   0.8268689  23.5654768  14.6167659
   1.2591967  22.9487470  15.2194220   1.5714085  24.1028783  14.2743595
   4.5151008  37.8617216  18.8452842   3.6579743  37.7818171  19.3327937
   4.2529356  37.3429843  18.0691118   9.2848364  32.9021230  12.8930001
  10.2264678  33.0877105  12.5849028   9.1875268  33.6475128  13.5415341
  13.8250316   4.8013830  24.3359163  13.3368840   4.1117827  23.8852691
  14.3904019   5.1753446  23.6642329  16.0874102  27.6896370  14.6718327
  15.9357531  28.1753973  15.5492961  16.2447892  28.5264417  14.1361821
  10.2302372  36.3618645  16.5533309  10.8761222  36.2789620  17.3169719
  10.9349777  36.5662480  15.8879426  18.7694400  20.4140204  22.5551578
  18.9856038  21.1746582  21.9586651  19.5893962  20.4527161  23.1398454
  11.1044569  23.6816739   8.5984451  10.4301293  22.9886773   8.8253881
  11.8484405  23.4152708   9.2078341  18.0201553  27.5622655  28.6511819
  17.6605386  28.4827125  28.5278871  18.8231094  27.6960823  28.0330161
  12.3860902  35.3976045  25.0601093  13.2352844  35.4990413  24.6340909
  12.6747854  35.2714546  25.9684037   9.1308590  28.0647215  15.1211641
   9.2847581  29.0461630  15.0065353  10.0417814  27.8213938  15.2297187
  11.5344404  15.3173416  15.2534054  11.3666503  15.3113019  14.3063206
  10.8236652  14.7245442  15.5831698  18.4602491  23.1123731  26.5650434
  17.5114996  22.8084203  26.4617425  18.3030887  23.7764105  27.3398766
  11.4388821  30.6008094  20.2030244  11.5258262  31.5940961  19.9354158
  10.6494435  30.4275098  19.7358710  13.8193309  21.5937149  -0.0860279
  14.3595801  20.7906121  -0.2477350  13.4108000  21.3892597   0.7741235
  22.1524206  17.3917309  38.3466999  23.0052886  17.0841490  38.6823964
  21.5906528  16.5796212  38.3778171  14.4457573  35.9888734  20.0105614
  14.6631958  36.9464878  20.2052711  15.3985345  35.6732041  20.0820265
  11.7836896  21.8615081  16.5216901  12.5186397  21.9133868  17.0923110
  11.2059788  22.6129116  16.8078035   5.2232765  12.0676803  27.3587790
   6.1721257  11.8550525  27.0346858   5.0388054  11.1530537  27.6796022
  -1.7744985  25.4087375  26.2280921  -0.8697556  25.6264861  26.5661426
  -2.2884381  26.1412607  26.5409044  16.1828454  35.8012049  23.6684781
  15.7520501  35.2619451  24.3652219  15.8622475  35.3407154  22.8818615
  17.1271861  35.1088893  19.6643104  17.2596566  34.1967077  19.9886470
  18.0203494  35.5267904  19.7798848   0.4104099  16.0690804  21.4972935
   1.1938039  15.5418798  21.5093166  -0.1645840  15.7176769  22.2252169
   8.8882316  32.7495932  19.1798310   9.8196728  33.0537157  19.1813938
   8.8595049  32.2209860  18.3526436  16.9369981  31.0280421  43.9287741
  17.6599845  30.3825790  44.0017805  17.3315178  31.8466302  44.3298068
  18.0190114  34.1356740  16.0380306  18.5080726  34.4146995  15.2357526
  18.8174415  33.8578241  16.6149706  19.3128244  36.4000042  20.3591994
  19.9094204  36.2728293  21.0882161  18.9572679  37.2701233  20.4201598
   6.5884172  18.6366065  22.0865492   6.9988036  19.2369676  22.7119914
   7.2740947  17.9867289  21.9323787  14.8707297  22.8639458  16.8785722
  15.8197002  22.7594274  16.8763732  14.5569867  21.9455601  16.7699473
  13.2769285  24.4054557  15.1989615  14.0001656  23.8115878  15.4765095
  12.7868908  24.4203384  16.0896408   8.9608971  24.7809043  16.0885507
   8.3000069  24.6940109  15.3876134   8.6420720  24.1029169  16.6978318
  11.3794342  28.1609837  16.9797566  12.1325217  28.1169607  17.6404484
  10.7747497  27.4560657  17.3879407  26.9409442  37.8404362   2.1353345
  27.4645172  37.2806970   1.5806685  26.2278124  38.1527589   1.5261084
  -6.6151217  19.6848898  14.6917032  -7.5427584  19.2960484  14.7889367
  -6.8780983  20.5855699  14.5862953  20.9752814  36.4576460   4.5870125
  20.6680798  35.6210912   4.1513009  20.6301727  36.4240582   5.4662435
  20.3932356  46.7758300   1.8661193  21.2658573  46.8047702   1.4186195
  19.8763280  46.4462517   1.0275153   6.9334870  33.2028795  16.6355222
   6.6910334  32.9285145  15.7321349   7.6367605  32.5422791  16.8604287
  17.4275268  17.8789721  16.5782531  18.1257680  17.2664876  16.8808920
  16.7792003  17.8149293  17.3098956   7.1482151  38.0210137  14.2723107
   6.4498421  37.3992076  14.6358293   7.7030220  38.0724959  15.0817585
  24.0190728  44.9761228   3.8823882  23.3571051  45.5535203   4.3128166
  23.4629202  44.2461328   3.5191319   0.0285800  38.6127893   6.8187968
  -0.2753633  37.9226659   7.4791833   1.0022011  38.4832663   6.9479666
   1.9672119  35.5029756  10.7859709   2.1909485  35.4874646   9.8419975
   2.8480452  35.1965659  11.1390638   6.1722455  32.8883507  13.9994506
   5.3840395  33.0223888  13.4689822   6.8279419  33.4358870  13.5307485
   8.0400131  24.8396863  21.8806744   7.2525323  24.3414760  22.2395159
   7.6779445  25.0566683  21.0106534  17.7798731  19.5229118  29.6044000
  17.7797655  20.3607365  30.1611349  16.7980442  19.4570240  29.5431817
  21.2787502  36.8474404  18.3378959  20.4849101  36.6411216  18.8263521
  21.9306004  36.8160751  19.0716593  26.4426898  24.3156675   8.6932412
  26.4125266  24.0230720   7.8348471  27.3497542  24.4327434   8.9272984
  30.7039622  21.3066567   7.8334390  31.0810090  21.7604392   8.6232770
  30.9930319  20.4014687   7.9732099  13.5499735  33.2419264  14.0116359
  12.8016157  33.6349950  13.4635770  14.0010332  32.7230247  13.3025499
  24.3327467  29.9131777   3.8023761  25.3029704  29.6221189   3.8701479
  24.3378408  30.5424241   4.5288094  30.3716766  29.0706993  11.8602531
  29.8516256  29.7323143  11.3469596  30.9059110  28.6622932  11.0990101
  14.7485026  22.6626969   8.8750257  15.5224778  23.1405032   9.3709004
  14.1071761  22.7361722   9.6429903  24.2794031  15.1419955  13.5738466
  24.3106827  14.8648240  14.5107405  25.2479493  15.3576269  13.4959415
  15.8941965  35.9771220   3.9721058  15.0388309  35.8109498   3.5163126
  15.6978913  36.9175360   4.3017788  18.5346733  16.9929884  11.0902773
  17.6803448  16.6107476  11.3938321  19.1682565  16.4361339  11.5524953
  22.3941124  23.9704350  21.4411462  22.2826443  23.0345087  21.7685209
  23.1646017  23.7889969  20.8954605  23.2813697  36.0795801  11.2955681
  23.2741855  37.0376636  11.1108911  23.3619011  35.7043351  10.4012063
  18.2892460  47.5984655   9.0558504  17.9517764  48.0450885   9.8751370
  17.5473283  47.8197626   8.4411541  21.7141252  22.2504945  28.6550429
  21.5538666  21.7340070  29.4376944  22.6826891  22.3614103  28.6569871
  12.4436130  28.9709082  26.8285131  11.4834286  28.7123988  26.7544133
  12.8236546  28.3496050  26.2012162   6.6441781  27.8025106  14.0732784
   7.4227266  27.6818325  14.6512629   5.9407122  27.6670839  14.8172803
  19.8660587  28.4841330  21.4567836  20.2714026  27.7434490  20.9960463
  19.3144691  27.9520343  22.0960932  39.3987205  24.1330113  20.9619283
  38.4263892  24.1790731  20.7824989  39.5711402  25.0160988  21.3660756
  14.9284670  34.1419236  25.0387965  15.4863976  33.8518932  25.8140571
  14.7384210  33.2519623  24.7069070   7.6654930  28.7843659  -0.2939661
   6.7631802  28.7751568   0.1166655   7.8380535  27.7691884  -0.2113639
  15.3800064  23.3068717  30.5088890  15.9090031  24.1095213  30.6626360
  15.9675711  22.5872904  30.7631967   6.1336653  30.0360656  17.4408635
   5.8245859  30.8723521  17.7801559   6.2509306  30.2411680  16.4711977
  13.3258994  19.2441229  19.9074547  13.3318963  18.9408231  18.9770853
  13.6807080  18.4579567  20.3659972  16.5360407  20.0077714  24.0055308
  15.8196593  20.3277144  23.4094817  17.2913141  20.0538460  23.4109266
   7.6516179  18.2054706   8.1871539   7.0882971  18.2258811   7.4152998
   7.6009200  19.1406020   8.5055274   7.1357732  23.6976724  17.8369673
   6.2362171  23.8677387  17.4655701   7.1197003  22.6984140  17.8542454
  16.3755854  22.6178562  12.6470042  16.2045445  22.6548781  11.6882897
  17.2024399  22.1886893  12.7371033  12.8519799  22.8978280  10.9058573
  12.7694940  23.6085552  11.5310978  12.3264968  22.1911925  11.2847605
  14.7287143  21.1849416  14.3823252  15.4537696  20.5766306  14.4435811
  15.0260241  21.9697562  13.9606608  10.4717252  40.3620294  15.7265252
  10.8157022  41.1308282  16.1833572  10.4142976  40.7526216  14.8554678
   8.1944707  33.2369226   7.3310603   8.2237829  33.0469385   8.3108538
   7.3141375  33.7115786   7.3816714  15.3319253  33.7329201   7.0344693
  15.7942718  33.0141221   7.4954103  14.8784947  33.2230654   6.2902503
  24.7554868  21.7375244  15.8715499  25.7232581  22.0210165  15.9076666
  24.4126368  22.3689045  16.5574296  15.6781069  31.7130440   8.7534235
  15.0053566  31.7491510   9.4853258  15.3255253  30.9384709   8.3061072
  17.5016902  36.0248898  -3.0721009  16.8810130  35.5547677  -2.5300958
  18.3336535  35.4556007  -2.9815153  18.1830813  26.1468099   3.6275970
  18.5572083  25.4347744   4.1617392  17.5686838  25.6429778   3.0500979
  -4.0054965  32.0544336  15.4662120  -4.3676009  31.2397512  15.7901027
  -4.0166032  31.8338900  14.5028350  21.3878134  33.1548145  27.9761412
  20.4303530  32.9181393  27.8323385  21.6493170  33.5085773  27.1324934
   8.8890981  39.5513010  10.4423863   8.0405918  39.8684204  10.8604306
   9.2507409  40.4266226  10.0408556   1.1605396  40.7370490  18.7191970
   0.8716454  40.5632678  17.7788930   0.7484257  41.5897522  18.8483692
  10.3777614  23.4854798  20.7756566   9.5844966  22.9140954  20.8144110
   9.9213791  24.3315846  21.0395550  22.9944963  45.3804133  -1.1766599
  23.9551311  45.4411766  -1.2371870  22.8310638  45.9291000  -0.3928729
  26.4267725  24.7030247  20.4180376  27.2577061  24.1463667  20.3181820
  26.5106428  24.8773931  21.3805047  26.6644961  38.8678505  -1.3640642
  26.0593463  38.9523987  -2.1483398  27.4279217  38.3672438  -1.6757360
  28.8166176  30.5994302   4.6756007  29.5622404  31.0554997   4.2482673
  29.0047506  29.6679395   4.5074329  23.2980562  36.3714044  20.0937856
  23.8361711  36.8066265  19.3758257  24.0084349  35.8868190  20.5487591
  18.0873643  32.2020660  10.5781521  17.2666728  31.9543133  10.0672561
  17.7759563  32.9062563  11.1909919  26.1518416  31.4665691  12.1515653
  25.9167737  30.6113959  12.5173559  25.2006325  31.8409197  12.0317146
  20.8542533  29.3785210  14.4170328  20.0913980  29.8828548  14.0092128
  21.3441380  29.2332806  13.5720863  26.7677980  28.9626866  17.8352860
  27.6763012  28.8584707  17.4318026  26.5733642  28.0144544  18.1092216
  24.4243328  29.6432824  16.9820984  24.8383517  30.3765501  16.3931131
  25.2592562  29.3639837  17.4027874  29.9302632  34.6919709  14.1197871
  30.3429841  33.9213772  14.5690712  30.4401864  35.4025387  14.5685251
  17.0150998  36.4815748   0.2227593  16.4650390  37.2741918   0.2065544
  16.4989484  35.8455700  -0.3544424  23.6569404  32.3051520  11.9058605
  23.3703088  33.0554306  12.4491857  22.7826827  31.8302902  11.7378097
  19.6860870  29.5134884   0.2037301  19.4291088  30.4010542  -0.1844521
  18.9513106  28.9705903  -0.2457495  32.2531393  46.5240606   3.5319445
  33.2125252  46.5413223   3.4819079  32.0897513  45.5475245   3.3352175
  20.1014034  32.9910975  17.4887485  20.4439521  32.1986434  16.9597503
  20.9426416  33.2770478  17.8566064  18.6840003  25.1709122  16.6235522
  18.0398544  25.7092637  17.1011132  18.1211127  24.9087984  15.8207603
  13.9244163  35.5016786  15.6575084  14.6233804  35.2772465  16.3785568
  14.0676781  34.7626188  15.0388798  29.1197041  40.4162879   8.2379130
  29.9485126  40.2626016   7.7638612  28.5721881  40.6993246   7.4087633
  24.7684471  50.4410679  -6.2772795  25.7761541  50.3531530  -6.1184023
  24.5731081  51.1541561  -5.6050188  26.0788550  35.6385695  15.9775977
  26.5599439  34.8359104  15.8335848  25.5127273  35.6595178  15.1494391
  17.1155826  34.2673098  12.2973063  16.2334712  33.7500811  12.2272875
  16.7121581  35.1592002  12.0830831  30.8146879  33.0479447  15.9688028
  31.1890610  33.9540833  16.1253824  31.5891098  32.4958553  15.8350710
  30.6197856  34.3693048  18.8624838  31.3088562  34.3825449  18.1491978
  30.2891658  33.4251119  18.7636527   6.2226893  48.5830384   8.8174418
   7.0567598  49.0993210   8.6909279   6.4954345  47.6731015   8.5265319
   8.4044542  42.4523394   6.7483922   7.4981721  42.0987877   6.7835834
   8.9101698  41.8073191   7.2946257  27.8419714  43.8684183   4.8075781
  27.6529409  43.1592391   5.4232661  28.6972234  44.2258110   5.1515989
  24.6902623  37.0774321  17.9161355  25.0582020  36.4589938  17.2486858
  24.2809782  37.7158788  17.3068786  14.6372103  32.6439158  19.2917774
  14.1209518  32.8381020  18.4504794  15.5458264  32.7661228  18.9554669
  24.8460802  33.3935554  -2.5795613  25.1558843  32.6003002  -2.0795923
  24.7544931  33.0192912  -3.4904620  28.2663850  33.3385294  -3.7269454
  27.6080101  33.2056095  -3.0057033  28.2450675  34.3198278  -3.7913692
  23.9286359  28.7390293  25.2065756  23.1061714  28.2777654  25.1863901
  24.2039304  28.5672917  24.2359613  19.6354579  26.7541867  11.6131959
  19.2489608  25.8871674  11.8650567  20.4921275  26.7302256  12.0715129
  24.9019833  50.1114881   9.3696152  24.1432894  50.7383657   9.4994492
  24.3679621  49.2544808   9.1944124  30.8914010  36.4849626  20.3878299
  31.6121826  36.2313390  20.9790964  30.7730663  35.6359524  19.8967955
  18.3487882  41.8194993   4.9551724  19.0504679  42.2662343   4.4644560
  18.4651879  40.9050392   4.6371004  16.1854555  32.3228869  15.3975822
  15.3768375  32.6005489  15.8341290  16.7332899  33.1129283  15.6432946
  41.0975905  63.7959640  -4.2917867  40.5846604  64.6111988  -4.2077380
  41.8567833  64.0507041  -3.7211417  30.7775041  33.8447778  -1.3809568
  30.8775335  33.5401131  -2.3119653  30.0485237  33.3228106  -1.0444040
  30.0460169  38.1435336  14.0861004  30.7922429  37.6100288  14.5348608
  30.6342005  38.7985680  13.6769275  35.9550381  42.7377588  18.3701965
  35.7755854  43.5950320  17.8518249  35.5534864  42.1012836  17.7194998
  29.0236455  34.7441991   7.5964097  29.2356050  35.7560869   7.6520094
  28.2187456  34.8602480   7.0349471  14.2164048  35.0767851   9.1145201
  13.4927747  34.3864884   9.2485380  14.6785374  34.6515206   8.3448302
  24.4492440  23.2406027  10.0026418  25.3561416  23.5723562   9.6831156
  24.6692534  23.2493236  10.9592045  23.4233387  25.4649665  14.3610469
  23.1472733  26.2276799  14.9233087  23.9632489  25.0107540  15.0423770
  26.5876709  36.3450663   9.2951434  26.3842994  36.4560810  10.2075251
  26.8175773  35.3949682   9.2910960  32.4918438  33.1065370   1.7209753
  32.7876207  32.5544790   0.9708947  33.3022230  33.7550278   1.6458536
  25.3261674  31.6919629  15.6184509  26.0299364  32.2908086  15.9151857
  24.7903520  32.2868122  15.0285985  22.6866430  43.2050090   2.3396084
  22.6589864  42.4771872   3.0351064  23.1149003  42.6385607   1.6128702
  31.1633100  48.3720621   1.5467855  31.7285863  47.8788308   2.1877667
  30.2783287  48.1311301   1.8027622  23.9006825  36.8546176  -0.4724609
  24.2474460  37.5848759   0.1084673  24.7333674  36.4493555  -0.8470145
  23.2048645  23.3593002  17.4514714  22.3706280  23.7509734  17.1528112
  23.0331491  23.5256352  18.4315770  24.4168983  22.8493708  20.0803048
  25.2855699  23.3217182  20.0394287  24.7517346  21.9456645  20.3275136
  45.4451830  46.6006218  12.8953607  46.3782211  46.6236891  12.5820362
  45.2255647  47.5513908  12.8149627  31.2389231  50.0716905   8.1507729
  31.4815267  50.7750287   7.5273946  30.5741229  49.5884318   7.6283546
  37.5365010  52.3162498  14.1606615  36.7818577  52.8872052  14.4856956
  37.0551545  51.8564519  13.4150171  22.6633299  62.7524464  16.6304921
  22.7072130  61.8019641  16.6597099  21.8913866  62.9027425  17.2142577
  38.8910773  50.7338868   7.2807898  38.6257875  51.4870095   7.9201200
  38.3255384  50.0431387   7.7290812  40.7589181  55.2389525  11.9181571
  40.0043019  55.8842635  12.0092054  41.2410859  55.5858405  11.1688471
  46.1497697  54.3424656  22.8121542  46.0031786  54.3067139  21.8323405
  46.0133984  53.3954349  22.9919621  41.2420309  56.0347014  17.4002349
  40.8820704  56.7291789  18.0328406  40.6367761  55.2935511  17.6414412
  34.2841468  55.8682958  21.6192992  34.4018855  55.7081063  20.6611156
  34.0640941  56.8027043  21.5527601  60.0316259  50.0886460  24.3086822
  59.3412921  50.1441600  23.5808178  60.8311477  49.9844927  23.6711097
  40.7615837  65.2279114   9.5881787  40.5496790  64.3365381   9.3568941
  41.4508540  65.2401100  10.2245384  45.8734680  51.4949104   8.0345757
  45.3006962  50.6960115   8.1663556  45.7068745  51.9649354   8.8906202
  30.6424012  59.0451314   4.4783622  30.3447934  59.8431328   4.0122044
  31.5011779  59.3503730   4.8859890  40.8434548  62.1107330  10.5515278
  41.7656917  62.4472024  10.6068690  40.9583613  61.1869733  10.6661090
  41.3303598  51.4520944  14.4737871  42.0488463  52.0250247  14.0843888
  41.7342959  50.5887445  14.4105238  45.0402955  62.8120128   6.0534751
  45.7233222  63.3516101   6.4843501  44.3768641  63.4940249   5.8149085
  34.4146942  64.9241538  12.4146245  34.7574827  65.3383454  13.2187223
  33.8568751  65.6108400  12.0787104  33.3207771  62.9852222  16.7635106
  33.0730918  63.6142271  17.4811015  33.0580759  63.4752073  15.9858171
  39.1442655  61.7714763  19.0279223  39.7645560  62.3808647  18.5905352
  38.7826960  61.2492680  18.3091298  43.5797180  58.2407835  15.9522109
  43.5868954  59.0852681  15.5235208  42.6065624  58.0284235  15.9764988
  31.9048401  56.9474756  19.3283385  31.9985607  57.8949217  19.6109698
  31.8792516  56.4991653  20.1991001  46.4263755  58.0473944  19.8051321
  45.8298816  58.2536019  20.6068169  46.9752775  58.8633477  19.8270726
  43.4827898  63.0123555  10.0419013  44.2834645  62.5376843  10.4125490
  43.3111391  62.4636319   9.2421698  38.9637959  57.9499858  18.1444125
  39.3808001  58.2983504  18.9363265  38.4541854  58.6427659  17.7634445
  49.3638797  60.2766286   8.6395653  49.4598708  61.2609904   8.8036254
  49.5051797  60.3171952   7.6316225  33.0668839  62.5566633   9.6619532
  33.0087517  61.6172907   9.5514032  32.8137053  62.8837078   8.7601942
  34.1834047  50.2001030   4.2162032  34.7355385  50.7746409   3.6059560
  33.6632425  50.9464958   4.6386687  35.7109573  58.2071554  18.5849516
  34.9656806  57.8140563  18.0575109  35.4488441  59.1626050  18.5348627
  25.8636096  60.4826669   2.5688583  25.1480656  61.0614605   2.3993330
  26.1769258  60.2331943   1.6828229  45.9797987  56.8078208  15.0502868
  45.1562526  57.3567123  15.4066069  46.3259800  56.6288864  15.9716356
  33.5137690  57.7585873  17.3870517  32.9261395  58.3611878  16.8582154
  32.9176144  57.4625177  18.0613759  41.5250658  42.4409384   6.9155200
  41.1084031  42.9464367   7.6370313  41.0101866  42.8398099   6.1438172
  31.6639142  65.4178731  23.5627496  30.9912933  64.6920222  23.6391897
  31.7032673  65.6779780  24.4892944  29.2083473  63.4715619  11.5901568
  29.5524770  62.6250244  11.2738058  28.2771756  63.2517163  11.6912979
  37.2699973  65.3641834   3.2770016  36.9097715  66.2497684   3.4568698
  36.8453341  64.8197214   3.9796220  32.5061250  64.2476487  14.6437489
  32.1555692  65.1648965  14.7037602  31.8709494  63.8047127  14.0594928
  37.8816798  60.3944681  16.6605259  38.8506554  60.3725322  16.3716730
  37.5734555  61.1785629  16.2436908  44.9606761  56.7267025  17.8724786
  45.4603210  57.2347708  18.5420328  44.2711834  57.3833200  17.6459744
  44.1218376  60.0830639  19.0944846  43.3268875  60.6773123  19.0171682
  44.5992236  60.2932246  18.3192853  27.5091121  73.7581158  10.6218674
  27.1494566  73.1376615  11.3946293  26.5896858  73.8160366  10.1978239
  45.7433654  63.0265501  19.3380495  46.0469131  63.7868852  18.6912520
  46.3670119  62.3347199  18.9731416  32.2513874  46.8599223   8.8778876
  32.7701139  46.4300462   8.1893861  31.4274452  46.3191569   8.8072977
  34.8242292  48.9061218   8.1046823  34.7633140  48.6568133   7.1884771
  35.7670042  49.0554700   8.2389755  36.7534637  63.9225349   5.3961522
  36.1204364  64.0877581   6.0938568  37.5307750  64.5173883   5.7344179
  39.1473762  46.4384107   8.1835122  39.6644237  46.9010220   7.4802065
  38.6138888  45.8360452   7.6412235  36.1918560  62.6014594  16.0606921
  36.4234026  62.2420477  15.1559854  35.3407785  62.2215396  16.2016784
  50.2748950  56.2037349  18.2710622  49.9211929  56.4842046  17.3726251
  49.4185812  56.2091455  18.7634894  38.0167251  84.1054186  26.2559994
  38.7449873  83.8829492  25.6016565  37.3374624  84.2415458  25.5285381
  29.3491923  64.5098575  18.5844262  28.8304370  65.0224359  17.9185330
  28.8434266  64.6152212  19.3833287  36.3200851  72.7719804  -0.4262033
  36.9863674  72.1616954  -0.1438500  36.7784386  73.3966099  -1.0124127
  39.7107745  59.0692458   9.3342890  39.0632759  58.6951703   9.9521126
  40.4052112  59.3249155   9.9644004  41.4643973  40.1234845   9.4871301
  42.0065249  40.0796329   8.6267145  41.4270781  39.1351449   9.6149758
  38.0503974  67.2403839   0.6651451  38.6466787  66.4313841   0.8106957
  38.2576304  67.3207165  -0.3284862  27.7332136  63.4908258   8.6493021
  28.1760223  62.6746265   8.9504296  27.9910312  63.4801230   7.6928610
  44.3793920  52.7195659  10.3850686  43.9473319  53.1367566   9.5971013
  43.7551358  52.0256022  10.6410926  35.5685730  48.4960290   5.4789706
  35.1400260  49.2182808   4.9203178  35.2661182  47.7274578   4.9874761
  41.7027334  50.4781236  17.3973758  42.5569446  51.0031274  17.5645396
  41.5290150  50.1603889  18.3180060  41.7374350  43.2979095  15.9730047
  41.7356614  42.9156592  16.9191748  41.7864710  42.3609042  15.5094496
  47.5725045  41.6208982  16.6067334  47.8417730  42.0058363  15.7708601
  46.7025547  42.1601621  16.7306817  41.9516565  52.8031144  20.1313746
  42.7661216  52.3018375  20.3556539  42.2944401  53.4929745  19.4873303
  29.0704240  52.2398011   5.9986163  28.9956569  53.0978684   5.4964103
  30.0331105  52.3160089   6.2069541  32.1915842  50.9023253   0.9751385
  31.8715507  50.0573275   1.3863931  31.9963482  51.4779005   1.7077881
  42.6038886  40.9008302   1.6876197  43.3414553  40.7763919   1.0428351
  42.1939176  41.6921087   1.2991380  37.1598891  46.3701083  11.8287154
  37.2832788  47.3220904  11.9254799  36.6723275  46.3460395  10.9889812
  39.1305285  49.2195768  12.8234889  38.2055088  49.3432775  12.4997826
  39.2029254  48.2509492  12.7855557  39.4280259  38.7038677  14.1585984
  39.6434472  38.4167259  13.2241409  39.4064477  37.8209882  14.6026853
  45.5962693  41.5089605  14.2093139  46.3299863  42.1115491  14.3281651
  44.8379087  42.1111919  14.1295759  34.8404905  65.7385554  27.6634237
  34.9903410  65.1787299  26.9004394  35.3044024  65.1644114  28.3356112
  31.9524239  58.4141687  -1.7668416  30.9493257  58.4551506  -1.7993886
  32.0325945  57.7440192  -1.0471295  41.1108087  48.7884941  10.7444472
  40.9932709  47.8417055  10.5301635  40.3545731  48.8008979  11.4592710
  44.0353252  51.7002279  17.5821546  44.9792494  51.6748507  17.7817418
  43.8466935  52.6224661  17.8526810  34.2635841  66.5478558  18.4009463
  33.3079523  66.2723144  18.6210848  34.6874122  65.6724669  18.3863754
  33.5665213  46.0573313   6.6677241  33.7323796  46.6966477   5.9323770
  34.2242025  45.3504079   6.4516986  33.1889200  72.3845679  21.8807833
  32.7220411  71.6159001  21.5926014  32.5977822  72.9270317  22.4063373
  31.0878055  61.7863929  20.9847739  31.8026952  62.4638336  21.1588700
  31.7341924  61.0303650  20.8411833  50.3490986  68.1105740   9.3416067
  49.8521100  67.4107362   9.8692672  50.8997988  67.5728829   8.7966723
  33.9077667  78.5822020  22.5126074  33.9898587  77.9723492  23.3151131
  33.5078591  77.8653620  21.8992405  33.5097771  74.8741856  16.7384523
  33.0050579  74.4078007  17.4275398  34.0666844  74.0668086  16.3830632
  35.8220798  76.8645781  25.7355362  36.3643796  77.6970107  25.8352731
  36.4577655  76.2532091  25.3191853  36.6179311  69.8402548  13.0536344
  35.6766834  69.9878594  13.0807513  36.6341379  68.8706751  13.4330014
  46.3687881  85.0415649  18.5290170  46.0295687  84.7788206  17.6609756
  47.0581803  85.6785696  18.2697809  38.9229792  58.4376584  22.5440469
  38.7106115  58.9801839  23.4102683  38.0923652  58.5744356  22.0582992
  44.8025651  68.1604113  26.8338744  44.0651025  68.5865345  26.3573860
  44.9229514  68.8720697  27.5012021  52.8339442  60.7580637  37.0462892
  52.0584509  60.7538363  36.5482537  53.3294471  59.9395014  36.7374388
  36.7963408  61.5825184  20.6967039  37.6422742  61.6319228  20.1566062
  36.8674926  60.6370712  20.9970748  48.5952585  59.6112092  16.7894449
  49.4524547  60.1082211  16.6867475  48.9084281  58.8243794  16.2656251
  43.4077864  64.6707982  18.0211711  43.2048159  65.0987509  18.8605561
  44.3760623  64.7442832  17.9931298  41.1917182  79.5038097  27.7863019
  41.1129303  80.4227852  27.6476635  40.9176808  79.0978870  26.9366670
  56.2777365  66.1628147  15.9728494  55.3303199  65.9209870  16.1155650
  56.3510826  66.1636707  15.0232037  48.9182891  59.5107766  20.5889658
  49.1627250  59.9417340  21.4432463  49.2524411  58.6286219  20.7755514
  44.0621526  73.1546151  12.2476806  43.3204004  73.8121989  12.1413178
  43.8210818  72.5082885  11.5794889  48.9516401  66.1666131  15.2170476
  48.8034773  66.0397798  16.1522540  48.1360708  66.7350607  14.9935325
  38.3107692  70.0389316  20.2049464  39.2012922  69.7512098  20.6873211
  37.8332382  69.2270031  20.3199884  49.8024878  76.1760061  22.8909457
  50.2390686  75.9495023  22.0483820  49.6043644  77.1153019  22.6605239
  54.8803986  68.7356970  11.1722300  54.0019223  68.5715746  10.8405345
  54.6970296  69.4947417  11.7926935  60.1706896  83.6101668   8.7992939
  59.9275265  82.6857321   9.0528237  60.1546484  84.0721583   9.7036727
  45.4693839  69.8017182  23.6010676  46.0236168  70.3258196  24.2551483
  46.1014860  69.1758224  23.3070186  50.7975989  64.3112535  17.7744347
  50.6658335  64.3275418  18.7187454  51.5085038  63.5983294  17.7421406
  54.5612612  55.5785173  16.6785846  55.3316278  55.5685080  17.2629489
  53.9118939  55.4084935  17.4236050  46.7062116  67.2155537   7.3520572
  45.9832382  66.9595785   7.9662609  46.9994921  68.0864957   7.8114770
  35.3901434  69.8836673   6.7638410  34.5248658  69.4769601   6.5072428
  35.9658647  69.0937632   6.7908378  42.4911490  71.3142185   3.4817084
  43.2880338  71.6296514   3.9301479  42.4519564  71.9399522   2.7617202
  34.1000583  75.3366333  11.0000042  34.4706204  74.5058306  11.2897173
  33.0768430  75.1936172  11.1778091  38.6119206  68.1706566  26.2873063
  39.5583836  68.2217474  26.1627183  38.2667267  68.6076563  25.4802745
  57.0244230  75.6286280  13.1974267  56.3576713  76.3088393  13.0323126
  56.6330402  75.2634032  14.0570700  47.9142893  61.6896070  14.6777187
  47.9524757  62.2666487  15.5058667  48.7973822  61.5388380  14.4517091
  51.7686249  68.8566751  11.8662917  51.2475092  68.8019579  11.0412083
  51.1902338  69.4642680  12.3704258  38.6351486  65.0222620  18.0516504
  39.2406901  65.4311398  18.7131785  38.4182148  65.8375106  17.5022742
  34.2294476  68.7885247   2.9536822  34.7002098  67.9605553   2.8128146
  34.9130215  69.3587355   3.3212677  46.0469314  67.7195131   4.3537711
  46.7033405  68.2197055   4.9281084  46.7019798  67.1354601   3.8940669
  36.3779240  80.4108138  23.1915202  36.0887562  81.1959770  23.7595405
  35.4919574  80.1260891  22.9047548  54.2031908  83.2459769  30.4573684
  53.5045777  83.7233397  30.9913048  54.1799684  82.3789303  30.9205091
  41.3983356  80.9290770  19.6981140  41.7079703  79.9806077  19.8485063
  40.6343884  80.6760094  19.1209265  55.0931058  71.1138964  22.7114536
  54.9975180  71.6800466  21.9300864  54.6716180  71.7647114  23.3624562
  40.3581507  84.7396508  32.1972485  40.8660064  83.8703444  32.0489610
  39.9815118  84.4781408  33.1002465  48.9063209  55.2703719  22.3059620
  49.4197348  54.5682282  21.8266329  47.9878269  54.8342491  22.2577646
  54.4198021  77.0822983   5.5927919  55.3164945  76.6949681   5.4099097
  54.3118650  76.7163463   6.5066726  49.3770420  66.4121484  12.6238681
  48.9860526  67.2798680  12.7137915  49.6261318  66.1262523  13.5192332
  64.0640632  65.6242679  37.8456999  63.3123315  65.4219689  38.4220555
  63.6316751  66.3177600  37.2356234  50.3726965  63.9181149  20.3728256
  50.7688501  64.5098847  21.0494948  50.4924285  63.0325160  20.8402293
  46.8642916  65.4738699  -4.8714878  47.3673504  65.9908599  -5.5253555
  45.9970090  65.4886251  -5.3837398  45.0261840  75.7524746  25.6975065
  44.2277327  75.2541922  25.8962117  45.2433144  76.0289250  26.6118860
  42.8269662  53.7302150  13.7532145  42.1560995  54.3477236  14.2089110
  42.8906175  54.2056123  12.9443223  53.2712085  67.1123543  28.4630781
  53.6346225  66.9638282  27.5381469  52.5797125  66.4053693  28.4294993
  33.6790806  71.9484901  15.5639108  33.8035800  71.6913141  14.6327930
  32.8017735  71.5794242  15.7582294  35.9758872  64.4345574  18.4908962
  36.8494621  64.7387930  18.1936001  35.8832793  63.5977881  18.1130808
  46.2132573  67.3645077  35.6622844  47.0449195  67.3605220  35.1506133
  45.5708612  67.2765806  34.9186075  56.8771153  76.3360593   4.6431361
  56.9259121  75.5022164   4.1888539  57.7368991  76.6744746   4.6374022
  53.7127514  67.3554147  13.5321145  53.4415774  68.0028148  12.8994713
  53.3995175  67.7938261  14.3360526  38.8085470  52.3246020   9.5704791
  39.3557297  51.9811262  10.3090060  38.0721529  52.7786693  10.0929443
  45.2226193  73.9410015  22.4023412  44.4899212  73.5632691  21.8930111
  45.8436336  74.2111604  21.6997924  34.1744979  60.2302851   3.4909415
  34.9800446  60.6672568   3.6873666  34.4243535  59.2806810   3.7017798
  37.1840688  66.9878685  14.4025355  36.5944710  66.2218705  14.3537311
  37.2926511  67.0826079  15.3891581  46.2480701  69.6366292  18.1702840
  46.0508652  70.5607447  18.4647667  46.4193059  69.7797429  17.1705658
  50.3549381  54.7208653  14.5068898  51.1902699  54.2899175  14.7027788
  50.4328711  54.6626593  13.5091073  48.6289533  63.2709473  16.7043920
  48.1283236  62.9350641  17.4123286  49.4058701  63.7063377  17.1252051
  39.0997785  72.2934005  10.0957751  39.5771656  71.4456430  10.2922764
  38.2942024  71.9372618   9.6934327  47.6619533  61.5115353  18.7252746
  47.9313540  60.8474590  18.0020854  48.1574043  61.1162110  19.4515908
  41.6055097  64.7325210  16.1150461  42.3052610  64.7898273  16.9114925
  41.4729958  65.7327955  16.0988454  46.2719066  64.1757953   7.9405374
  47.0469376  64.7873786   7.7944805  46.1124543  64.1860284   8.8824383
  48.5864585  53.0853778  19.1679176  48.9067989  53.0787048  18.2175792
  48.6175779  54.1035161  19.2930155  43.4494315  76.0917666  22.8251927
  43.8044016  76.6854872  23.5005031  44.2588785  75.5245777  22.6210470
  41.4559354  58.6013398  14.1243170  41.8560183  58.8956025  13.2754984
  40.4965862  58.6572894  13.9328529  43.2821416  77.1413387  32.1481534
  42.9339903  77.9298269  32.5319616  42.9322452  76.4360196  32.7104810
  41.5005132  67.4566544  16.1536395  41.1891067  68.2996272  15.7082951
  41.3532865  67.7326058  17.0850420  46.9974214  80.9566908  14.8546891
  47.4316666  80.0639471  14.9366170  46.9784069  81.0902447  13.9461003
  40.6856778  73.1732202  19.6807726  41.0350519  73.3073471  18.7849012
  39.7087958  73.0911176  19.4532399  38.5948813  73.0428474  22.1819299
  37.9788815  72.3528224  21.9331711  38.2717509  73.8168081  21.7153287
  45.7024281  59.8013860  26.2659514  45.1869500  60.1354535  25.4592045
  45.1744453  60.2676962  26.9937269  54.8139125  66.3747818  30.4762635
  54.4814620  65.5118869  30.7184104  54.2240683  66.5199392  29.6543536
  46.2526902  66.8027644  21.2445220  46.8715081  66.0380513  21.1395192
  46.9548867  67.4626878  21.5679867  25.9928259  84.8754686   6.7199631
  25.5307305  85.2726158   7.4501837  26.4671217  84.1224857   7.1177593
  56.3164344  64.2403623  20.3023465  55.5640396  64.8781117  20.2692024
  56.9643463  64.7717330  20.7883671  34.5245511  73.0438645   8.0916482
  34.1809492  73.9270847   8.0295553  35.3749991  73.2790915   8.5136183
  40.1488795  66.4318028  19.7357163  40.5024842  67.3358053  19.5827746
  40.9707853  65.9713330  20.0714017  44.9476477  74.4168873  18.0817351
  43.9867291  74.3212235  17.7756708  45.3183506  74.7228598  17.2260420
  59.9659680  64.3413224  15.4837134  60.0980172  65.0041467  16.1960110
  59.2616256  63.7537996  15.9406123  53.9148349  65.6191477  19.7144747
  54.0402565  66.5765140  19.6183430  53.7494404  65.3380962  18.8213736
  42.2018632  79.4595812  33.3207040  41.6856415  79.8982263  33.9916500
  41.7634091  79.8576457  32.4825651  50.4337180  57.4661058  21.8720691
  50.2006822  57.7467706  22.8484386  49.9167071  56.6343712  21.9009525
  56.6702586  68.3761839  19.8378603  57.1174839  68.5839085  20.7124062
  55.7409440  68.6453863  20.0734159  53.3109902  74.8961256  11.7328066
  53.5328220  75.8176053  11.3935102  52.7535959  74.5284639  11.0069806
  58.6058611  58.1704111  22.1230698  58.0315750  58.7303194  21.5502913
  58.7676185  58.9384495  22.7908890  46.4237514  59.6449816  12.2438416
  47.2846718  60.0306031  11.9258663  46.6109580  58.7398642  12.1724932
  41.1383440  78.1472181  25.3557390  42.0862590  78.2406074  24.9965492
  41.0135311  77.2013125  25.1127746  38.0752397  72.3817370   7.1238067
  38.7964713  72.0761044   6.6103326  37.3170582  72.1454855   6.5778955
  36.5273044  58.7904430  21.2943087  36.1172906  58.4416090  20.4345417
  35.6717632  58.5792119  21.7919369  46.8945351  73.8574226  24.5106308
  46.0936248  73.9011758  23.9327827  46.5740557  74.2115788  25.3227958
  40.4531426  62.6297650  21.6709967  39.9743844  62.9379068  22.4471490
  39.8421428  62.4678128  20.9616011  34.6884990  62.8246205  31.5499093
  35.0471092  63.1591323  32.4080386  34.5043542  61.8846772  31.7651323
  61.0790936  77.2856510  30.9660034  61.8879409  77.8005592  31.1721163
  61.5195305  76.5032572  30.5340766  39.1742999  60.9237449  -0.7651116
  39.8723440  61.1830088  -1.3128164  39.1928365  59.9389857  -0.7517030
  49.8372989  76.2495230   8.7455699  50.0044100  76.6376900   7.8738475
  49.4303503  77.0732464   9.1977386  45.5981324  65.9614629  24.9737536
  45.2990894  66.3877341  25.8145992  45.0103349  65.1568501  24.9519046
  51.0762784  89.3986081  25.3252370  51.1385613  88.8697071  26.1528412
  50.5050003  88.8403461  24.7800509  51.4626512  60.4708458   2.4152238
  51.0002315  59.6029391   2.4145732  51.5763353  60.5926604   3.4162161
  29.6106848  75.0215243  17.4016507  28.9567432  74.4374032  17.9309430
  29.6171713  74.5299821  16.5754570  44.3422475  67.5709895  19.3542311
  44.9163616  67.2479137  20.1063505  44.8556089  68.2878311  19.0071696
  49.5986489  70.6033752  21.7957723  49.0256913  71.2278003  21.3124510
  50.3077234  71.1768536  22.1988420  39.1266315  64.0756708  15.3829460
  38.8857816  64.3957080  16.2398098  40.1082969  64.2016764  15.4123615
  44.0654762  68.4994751   6.0066644  44.9021368  68.2805647   5.5105318
  44.1816983  67.9869870   6.8014402  43.1657179  69.5156991  25.3073823
  42.4228790  69.1176573  24.8320387  43.8350836  69.6258789  24.6370080
  47.9543099  68.6066288  22.7727544  48.7113704  67.9809261  22.9111785
  48.4883212  69.4288003  22.7183423  48.9943544  59.9682917  11.3828962
  49.0346160  59.9284551  10.3819913  49.1404613  60.8807523  11.5027432
  33.9732179  68.9056210  23.7395643  33.5513266  68.1195121  23.3980023
  34.0920567  69.4359155  22.9053842  37.6868013  67.3592039  17.1074674
  38.2913292  68.1127983  17.0475358  37.0322228  67.6265416  17.7055170
  38.6748148  57.1299552  15.5475106  39.4585641  56.5453380  15.4538847
  38.7907879  57.3887932  16.4786553  42.1842735  61.7894056  18.5756361
  42.2838282  62.4200315  19.2480195  42.6224521  62.2385100  17.7986748
  36.1650820  94.6054792  22.6742470  36.6609138  94.6518811  21.8818580
  35.2396684  94.5586269  22.2755430  38.4224583  79.1217454  25.6716056
  39.3751594  78.7845859  25.5537565  38.3810125  79.6397851  24.8296523
  50.1290655  70.4940932  18.5243149  50.6529266  69.9292057  19.0935237
  49.5611181  70.9724049  19.0953965  44.4634297  71.3199991   5.7097797
  44.3736158  70.3367384   5.6811583  44.1035609  71.4855234   6.6325082
  43.3842081  62.5936704  30.9103442  44.1006368  62.4085907  30.2366868
  43.1203523  61.6335602  31.0422251  44.9463349  70.6772239  28.8900399
  44.2578640  71.2904712  28.5336209  44.4827780  70.3801755  29.7222662
  53.5268799  64.4817277   9.6393445  53.1623635  63.6226522   9.5579197
  53.7499086  64.6098157  10.5917056  32.1502709  64.9078231  18.7367699
  32.3822248  64.4639372  19.5895915  31.1948407  64.6525740  18.6150010
  46.4352472  59.2734841  29.8249753  47.2961420  59.2077539  30.2097630
  46.4827870  58.5280075  29.1330487  58.1718450  80.2633273  22.3600787
  57.4564604  80.6790493  21.9006238  57.8272500  79.8914468  23.1728748
  51.4460840  65.4827254  28.3292750  50.5580677  65.7496066  28.6280008
  51.2932773  64.5625483  28.0811027  44.5342529  84.4292218  10.6773052
  43.9624449  85.0391312  11.1889214  44.2239763  83.5826667  10.9531438
  49.9957904  75.5540801  26.8608029  49.7854514  75.0136366  26.0064033
  49.6050468  74.9237959  27.4998177  38.0602404  74.1655653  18.6861592
  37.2549219  73.9078269  19.1795452  37.8487779  73.8475630  17.7997629
  59.0922987  45.5258239  15.5839956  60.0455521  45.6926845  15.3785226
  58.7419567  46.4117241  15.2613484  64.2087288  63.2221414  18.4991207
  63.5577880  63.4399750  19.1937243  63.6134004  63.1208515  17.7364154
  59.3840618  62.3337452  22.3032786  59.6502753  63.2792656  22.1025379
  59.9592561  61.9118330  21.5924964  58.7974344  66.0699192  24.5043050
  58.3567298  66.8996428  24.8074267  59.2761580  65.8127590  25.2960241
  53.0161533  71.0867598  19.6805610  52.4501811  71.2609354  20.4596229
  53.0476804  72.0234266  19.3121522  46.3655973  55.5971693   9.1207719
  46.6981641  56.3962223   8.6570666  47.2545290  55.2382100   9.3094469
  63.9646808  68.4037489  12.2523195  64.3851795  67.7349132  11.6442998
  63.1068031  68.0005321  12.3310518  52.7228382  62.3781037  18.2509134
  53.5320024  62.4200371  17.7779160  52.9537803  62.0066693  19.1586732
  36.1855138  69.9988662  24.9939671  35.4366246  69.4415686  24.7829360
  36.8592265  69.6691330  24.3357286  39.7611292  69.6243376  10.4788035
  39.3102190  68.8668906  10.0470477  40.5586869  69.2405898  10.8021282
  42.0320057  79.8632126  30.5161044  41.5260587  79.6254293  29.7267779
  42.9036775  80.0745333  30.1173549  43.1511727  61.4354134   7.5424924
  43.4851251  60.5229002   7.5725265  43.9554776  61.8494972   7.0888265
  38.0753712  67.1242458  21.6616407  38.4647150  66.2702757  21.3168060
  37.4027383  67.2797623  21.0250705  49.8234752  59.8905108  35.6743463
  49.1242497  59.8095767  36.3600091  49.4862517  60.5880799  35.1100094
  24.1438639  75.3520074  18.2386233  23.8564553  75.3727572  19.2000035
  23.6675433  74.5587481  17.9504198  49.5240556  57.7634213  12.9982445
  49.3621197  58.5184410  12.3868840  48.7275090  57.2284891  12.7746944
  42.4501762  67.4657774  23.0806940  42.7266529  66.6170442  22.7072433
  42.6145365  68.0978348  22.3628183  32.5331989  84.9743722  27.8539418
  31.9321718  85.7403791  28.0955362  33.2479369  85.5387692  27.4219126
  41.8408321  68.0306436  11.3013410  42.4708303  67.3292786  11.0316259
  41.2331223  67.5070751  11.9275640  36.5082739  85.0204513  24.1496470
  36.3304319  85.4390476  23.2707870  36.4673490  85.9223193  24.6803785
  46.0023570  67.1694559  10.5718783  45.5660964  67.6571802  11.3304120
  46.0824212  67.9207990   9.9093437  58.2794819  54.0651605   9.7820908
  58.4027818  54.2315196  10.7357720  57.3963586  53.7176003   9.7261011
  57.4595779  69.8193675  13.8503319  57.6788178  69.8101214  12.8958243
  57.8335944  70.6570827  14.1483225  54.2350931  60.8934929  20.3732198
  54.7409105  60.2312958  20.7901902  54.0280473  61.4671675  21.1812614
  54.3025992  85.9816795   6.7455237  53.7653615  86.7616419   6.5925155
  54.2786306  85.5624125   5.8285729  57.8019322  63.4359300  16.6659190
  57.3894373  64.0367258  17.2777622  57.2442912  63.5439152  15.8447341
  65.2929785  65.8346477   7.7272857  65.9142935  65.2717870   8.2718628
  64.6395040  65.1519013   7.4604888  42.8213666  72.7313465  21.5185207
  42.3041539  72.9174011  22.3377790  42.0717224  72.5873621  20.8817946
  32.6551371  67.3534761  21.4509728  32.3963914  66.5532667  22.0035573
  31.8059385  67.6470135  21.0553550  46.9842718  77.4442563  24.8996786
  46.8426271  77.3597989  23.9069092  46.2971721  76.7853243  25.1885328
  46.9249924  48.8432680  10.4092082  46.0625413  48.9586406  10.7920791
  47.3726977  48.1897167  10.9503107  48.1964750  78.6427652  15.1660869
  47.7345631  77.9617786  14.6573840  48.9798861  78.0649507  15.3863811
  46.5169941  78.3482863   8.9351347  46.4692712  77.3956879   9.1172014
  47.2870572  78.4881769   9.5473993  46.2820073  64.8769126  17.7275856
  46.7607008  65.6774807  17.9246548  46.5986498  64.7772079  16.7739051
  47.1723931  90.7673608  21.0015267  46.7610426  90.0138893  20.6196750
  47.4326824  90.4442211  21.9056015  44.3189026  84.3687064  20.7235225
  44.9436321  84.7794363  20.0464052  44.9506487  83.6933811  21.0845811
  55.5942032  91.1158963  13.6047033  54.5806903  91.0597482  13.6555631
  55.6911802  91.3466151  12.6736875  55.0429509  77.3607220  13.1298638
  54.9768706  77.6914286  12.2394745  54.1853147  77.5376472  13.4945443
  52.6987816  79.6453369  26.9429430  52.4366609  79.2564156  27.8047355
  53.3601043  80.2856205  27.1888600  49.4468210  88.6770305   3.9085385
  49.0587163  89.3426883   4.5141011  50.3529408  89.0368333   3.7760965
  57.8418599  81.3997796  14.9378247  56.9319542  81.1134314  14.9901527
  57.6863732  82.2993621  14.5587100  64.0313317  78.4453604  28.0533000
  64.7113694  79.1755319  27.7165636  63.8190447  78.0922907  27.1851202
  46.4078566  81.2440363  12.1570418  45.4638779  81.4586027  12.2549686
  46.7990158  82.1440886  12.0551802  55.7854501  88.1593807  11.2207566
  55.0877961  88.4152428  10.5963999  55.1445341  88.1861911  12.0602502
  51.6965372  75.6668606  30.8045966  52.6134503  75.7665924  31.0864227
  51.7483318  76.1234896  29.9277810  37.6285384  88.3825621  22.0631771
  37.8678496  87.5023205  22.3880301  36.9358100  88.5798343  22.7825156
  46.7520051  83.0332969  20.3018572  47.5512235  82.7077858  19.8318140
  46.6123271  83.8313780  19.6784369  44.2500483  90.5424610  16.4842278
  44.8714524  91.3003789  16.5367212  43.6917709  90.7734641  17.2614970
  56.3932244  79.6798523  19.2684820  56.2150654  80.6045040  19.0468747
  57.2788474  79.5772154  18.8003150  48.2953764  61.2431217  22.7919177
  48.1886843  60.8912704  23.6991694  47.4006196  61.5251258  22.5654278
  42.2676639  74.8706220   9.9293787  41.9246717  75.4161273  10.7131707
  41.6763267  75.1870310   9.2739236  45.7140059  87.9067341  19.8822346
  44.8847221  88.3080254  20.1583188  45.6629547  87.9456490  18.9233373
  46.0164986  75.8071333   9.5730445  45.6584577  75.1989068   8.8802647
  46.7145140  75.2553254   9.8942075  51.3416827  72.1412739  16.6157094
  50.6175482  72.7104481  16.2599435  50.8677944  71.4905521  17.1362962
  52.6849271  78.7596117  13.9137591  52.6972624  79.7477606  13.8353531
  53.3617536  78.6685575  14.6085629  52.6066010  81.8145925  14.1658909
  51.7817792  82.3008111  14.3445885  52.9637202  82.3426764  13.4351224
  67.6304875  94.6089538  15.8353360  68.5042691  94.1626203  15.7364397
  67.0290373  93.7899718  15.8724126  49.3293704  74.8212582  31.8743088
  50.2445909  75.1324161  31.5308743  49.5862585  73.8353600  31.9792063
  53.9231400  88.9490861  16.0784835  54.7540539  89.4916397  16.2720269
  53.2790941  89.4804824  16.6286397  48.0205385  76.4807346  12.8684915
  48.9388957  76.2353214  13.0336065  47.6126351  75.5976876  12.7693434
  52.8613892  78.2719170  35.4580091  52.8899785  78.4927597  36.3776629
  52.4957174  77.3775127  35.4362180  23.2895606  20.0539362  17.7334606
  23.6105056  20.9163240  18.0447368  24.0848128  19.6701943  17.3355995
  22.9611379  31.0646913  18.9867665  22.7701078  31.8501145  18.4274219
  22.9871538  30.3620349  18.2821893  30.8365884  15.4062712   4.3014200
  30.0521796  16.0145345   4.2909631  30.3182071  14.5871572   4.2379253
  13.9822354  19.5153526   4.0855106  13.9433104  19.3138437   5.0332695
  14.9219444  19.3780220   3.9319151  35.3134276  23.1803398  14.5236038
  35.1813813  23.5013034  13.6102936  36.2005133  22.7602805  14.3735388
  24.2077488  12.4328359  12.8074959  24.4227943  13.4167894  12.6242865
  23.6450601  12.5895194  13.6023464  35.3561427  25.7248187  18.1588459
  34.6687705  25.1252872  17.9181203  35.2392567  26.4286563  17.3980926
  33.8317478  23.9986416  16.8771134  32.9378066  24.0083325  16.4203644
  34.3269151  23.4873060  16.1797788  34.6363387  23.3924892  21.2015129
  35.2970904  23.0251576  20.6128011  34.9352535  23.1608282  22.0812431
  20.4455300  11.6954346  13.5793176  21.3125055  11.8743571  14.0325300
  19.8675576  12.1522944  14.2098026  14.5983532  17.3985224   5.6298128
  15.1684535  17.8048949   6.3124015  15.2650241  16.9408115   5.0742465
  25.5235150   7.5766742  19.1374099  25.8787552   6.6542132  19.1983638
  25.9116793   8.0412198  19.8549821  26.4832363  28.0603642   4.2152987
  26.4638347  27.2985192   3.6049927  26.9222029  27.6538193   4.9862934
  33.1990504  29.4263935  17.4080752  33.1499216  30.2967658  16.8413687
  33.9334254  29.6173420  17.9766651  16.8652064  25.2214631  -1.5875836
  17.5007335  24.4473925  -1.7844208  16.0350412  24.6356740  -1.5299375
  22.8349592  33.4074794  17.5004060  23.4948534  34.1351463  17.3935987
  22.7015767  33.2119833  16.5304965  33.4711088  31.3684682  -6.9509983
  33.9512122  30.5170804  -6.8411591  33.6146034  31.4904561  -7.9168139
  25.3059169  18.1695022  11.9387929  26.2108582  18.3364776  11.5511821
  25.5314759  18.0508508  12.8960886  35.1702286  27.3524881  16.1139745
  34.4665251  27.8404463  15.5631929  35.5599025  26.8428758  15.3956477
  23.9700215  23.6659814   1.0565248  24.0785201  24.6911177   1.0045069
  24.3337843  23.4826330   0.1692692  26.8746139  30.7936316   1.2711255
  26.9281416  31.4457471   2.0266051  27.7192740  30.9846530   0.7871739
  30.6083525  16.7649878   0.4512522  31.1620916  17.4862137   0.9390017
  30.1344861  17.4082535  -0.1486074  29.0047594  31.7277399  13.0711013
  28.0772632  32.0253134  12.9815214  29.4778089  32.3832541  12.5079218
  18.7313828  16.3899331   5.1582830  18.6701099  17.3806201   5.2184522
  17.7474814  16.2300952   5.0189828  13.9622166  29.8860711  19.9953485
  13.0836911  30.2127337  20.1336227  14.4506220  30.7027854  19.7628998
  31.2467589  23.6935861  12.1968489  31.7527681  24.5452069  12.4593228
  30.3782287  23.9053956  12.5338414  34.8659213  29.0077968  -6.2193695
  35.6853949  29.0289416  -6.7225198  35.1839999  29.1698141  -5.2837493
  41.1544671  35.6681766   5.6076695  40.7572330  35.8046790   6.4613336
  42.0824054  35.6039114   5.8378204  26.8539863  40.7044141   9.8799411
  27.0536208  40.9697010  10.8294368  27.7671390  40.5778217   9.5454141
  37.3182432  37.4973047   4.0043989  37.4406418  36.6553637   3.6051125
  36.6021387  37.8997917   3.4348699  29.4209770  29.4105768   7.4309244
  29.1643284  30.3728366   7.3658826  29.4430868  29.2334582   6.4777701
  13.0342554  33.2448589  -2.8554733  12.9084220  33.8981800  -3.5492488
  13.7975284  32.7472872  -3.0578021  37.3353057  42.3907207   4.1848369
  37.7839802  43.1979762   3.8375308  38.1035316  41.8013852   4.2674311
  33.5425362  33.2566291  12.3695635  33.3007918  34.1786558  12.5619272
  32.8820648  32.8175697  12.8936571  34.7701739  34.8032410   1.9406861
  35.6476618  34.6349451   2.4297900  34.8108132  35.8248717   2.0713628
  20.5248878  43.6003042  -0.8660321  21.3983171  43.8395194  -1.1835189
  20.1772259  44.4971556  -0.6052101  40.1256696  31.5338738   6.8523842
  40.9581602  30.9442922   6.8563785  39.8094873  31.3137968   7.7942911
  31.4402851  39.9093451 -13.5830443  30.9281738  39.1702418 -13.2405300
  32.0863741  39.4416001 -14.1780656  43.0342248  32.2903416 -13.3310075
  42.6796589  31.3860399 -13.2079540  43.4805693  32.2707325 -14.1833683
  37.0187490  29.6762999  -1.2237744  37.3593004  30.6107640  -1.1361487
  36.8250034  29.5372790  -0.2621167  34.7430725  21.7787054   5.9238261
  35.1157224  22.4175208   5.2424829  35.5433057  21.4305329   6.3110805
  50.7570452  39.0875659   9.8512402  51.5683489  39.5371917  10.2519588
  51.2068759  38.6772580   9.0743480  20.4224319  17.0897271  16.2539003
  20.9513542  17.1008570  15.4691709  20.4737467  17.9784793  16.5303990
  32.2951653  42.5473564   5.6049892  31.6671726  42.2759725   4.8674510
  31.8312528  43.3775799   5.8042684  34.1301212  31.9463023   4.4154037
  33.2304587  32.3817158   4.2744563  34.4469158  32.4818157   5.1696467
  36.5980533  30.9108083   7.6237314  35.7215447  31.3086616   7.4505685
  36.8495154  31.5147676   8.3791646  27.3598095  22.5470547  15.8048269
  27.7859265  21.9617438  16.4913236  27.7415233  22.1486998  15.0047261
  26.4001237  53.2966835  -1.2000628  27.1679218  53.8014973  -0.8083935
  26.8964890  52.4959615  -1.3923935  38.2571326  26.8989943  -0.9175489
  37.7531663  27.5712502  -0.3959743  38.6693664  27.5034939  -1.5575123
  32.8680981  39.3393584  -0.8203386  33.5329786  39.9678426  -0.4193717
  32.0337031  39.8478629  -0.7139055  44.5739601  43.8448941  -7.4654982
  43.8554283  43.2225077  -7.4951032  44.5324607  44.0891647  -6.4989902
  30.0873516  19.1938885  10.3862540  30.8563102  18.8902676   9.8739720
  30.5053410  19.1537363  11.2776530  33.4039031  31.7657066  16.0072835
  34.1092508  31.5735797  15.3385117  33.8924800  32.4318597  16.5445740
  28.7373616  27.8021643   1.7333057  28.0343769  27.3026063   1.1695595
  28.1218285  28.5557881   1.9046416  52.1200726  41.0649937   6.4517902
  52.8525594  40.3807906   6.4579170  52.4166998  41.6234719   5.7336327
  31.8965320  43.9330130   2.1179983  31.0172847  43.9952382   1.6038299
  31.7308079  43.1459484   2.6418179  33.4945537  21.6536630  18.2635286
  34.0300921  22.4331608  17.9684513  34.2201198  21.0093836  18.3067315
  29.6395476  21.3864982   2.6851062  30.4686455  21.1749228   3.1313234
  29.8037674  22.2466216   2.2419003  39.4739867  32.9895177   1.8949460
  39.8636497  32.4869159   2.7136851  39.5040967  33.9099006   2.2885441
  27.7075798  33.5348966  15.5329259  28.2745932  32.7934170  15.3199095
  28.2135586  34.2757295  15.1821943  33.6830065  29.3359328  14.4283317
  33.1329984  30.1025397  14.2225790  34.4577968  29.3786632  13.8668737
  44.9799623  35.7913557  -7.0808335  44.0781038  36.0806115  -6.9913498
  45.2322356  35.4117699  -6.2222122  42.4804485  36.8175121  -5.7128202
  42.8831428  36.9967428  -4.8357355  42.4315721  37.7535727  -6.0370222
  30.3155979  17.9752704  12.9189513  30.0759071  17.1800755  12.4700581
  30.8007995  17.5657819  13.7378658  27.6443876  27.1822110   7.0825367
  28.4076450  26.6265120   6.8979516  28.1418152  28.0112376   7.2940012
  32.7638000  35.7255908  -1.5310700  33.5554026  35.1791342  -1.6126265
  32.0620605  35.0161105  -1.6020120  36.3112044  31.0461354   3.2912881
  35.3458357  31.2461190   3.5676842  36.7619842  31.3848765   4.1141430
  25.5875441  36.5427358   4.2737586  26.0123316  36.7700746   3.4381588
  24.9772347  35.8377785   3.9924134  42.9671142  40.3557670   7.1905409
  42.4138416  41.1802408   7.0422121  42.7522105  39.8857627   6.3750278
  40.6507083  23.1831177   4.8560065  41.4956704  22.7612151   5.0741824
  40.1391761  22.5132007   4.3502734  44.9667609  31.3384506  14.8715107
  44.8261599  30.6675873  15.6106561  44.1230460  31.8462198  14.9893102
  34.9021502  33.7185717  -1.0890807  35.4058882  33.9922336  -1.8642400
  35.6548370  33.7345278  -0.4340989  32.6768982  25.3362930  -0.5971999
  32.4810855  26.1524367  -0.1610194  31.8211385  25.1362000  -1.0443258
  23.6076801  34.8731352   8.9478180  23.8901688  34.9561122   8.0030470
  22.9372753  34.1777012   8.8334189  44.1033618  44.8582171  11.0021172
  44.5120935  45.5352569  11.5253972  43.8695572  44.1560258  11.5524224
  36.0676045  24.9337154  -5.0879008  35.4524671  25.3464445  -4.4889765
  36.8354858  24.9063953  -4.4398492  43.0824521  48.7323404  -4.3849271
  43.2271223  49.1460391  -3.5433981  42.2537269  49.2246537  -4.6546034
  28.2133594  30.3658052  10.4458254  28.1193278  31.0682680   9.7338487
  27.7497153  30.7876392  11.1640405  33.0325083  45.7317566  -4.0459375
  33.2148024  44.9560758  -4.6047692  33.5020703  45.3669489  -3.2252776
  39.8059790  40.2179134  -0.9802280  40.3603329  39.7317517  -1.6398455
  39.8138771  41.1142456  -1.4475947  48.6317890  35.1676153  -2.4815619
  48.0483467  34.3752017  -2.7710782  47.8992897  35.8285076  -2.4767254
  43.0352075  45.7278249   5.7788281  43.2186272  46.6711399   5.7543007
  42.0416106  45.7429002   5.8994622  47.8892038  50.3147577  -1.0644524
  48.5648444  50.1396958  -1.7638829  47.8333279  51.2665981  -1.0676231
  25.8903895  48.9548968  -0.5332708  25.6092507  49.6128328   0.1393467
  26.7772990  48.7617968  -0.1985472  39.6773698  36.4591279   7.6050166
  39.2332859  35.6024600   7.6824058  38.8878882  37.0074612   7.4659090
  31.1956020  25.6263164  -5.0666334  30.4830774  26.2065058  -5.3841601
  31.0396735  24.8267000  -5.6129784  28.1547830  31.9903799   8.2606317
  28.8493371  32.5552429   7.8282646  27.7121015  32.6932337   8.8029216
  31.2636944  28.8275715   9.2973700  32.0407542  29.1808752   8.9009990
  30.5477555  29.0479577   8.6651820  37.6083145  33.2687169 -12.3696108
  38.5102504  33.3598291 -12.0085404  37.8448744  32.7376080 -13.1639548
  39.0017975  39.8702927   3.5867098  39.3861978  39.6667520   4.4834619
  38.3530504  39.1526230   3.4969516  20.9876954  25.9841600  17.8707309
  20.2302426  25.5252363  17.4136974  21.4605779  26.3988569  17.1355931
  47.8702861  48.4834431   4.8675562  47.8723437  49.3934489   4.6057188
  48.7163802  48.3913621   5.3784876  33.9876848  16.4539318  16.2075207
  34.6681582  17.1258477  15.9250746  34.4070707  16.1171025  17.0286823
  37.1001335  44.6992756  -6.8490148  37.1125458  44.5396139  -7.8186386
  36.2605451  45.2120881  -6.7930144  35.3346821  46.6872704   9.5810417
  35.1897386  47.4405739   8.9682606  34.4968000  46.7607591  10.0909626
  33.4380460  43.4616653  -5.4334823  32.8606128  43.8015414  -6.1853946
  33.4555723  42.4764451  -5.6365035  37.0811282  45.4204077   1.8519623
  37.4906458  46.0756521   1.2920981  36.1315502  45.4238896   1.4885592
  27.0331389  33.9521046  19.5261104  26.3343221  33.6542490  20.1415989
  27.0959988  33.0884785  18.9829632  25.6279453  17.8907352  17.1579616
  25.0789151  17.4366725  17.8139209  26.5060100  17.6499010  17.4782282
  27.2939368  38.0576174  13.8493423  26.9345876  37.9460636  12.9519934
  28.2003648  38.3742310  13.5579434  11.8055719  47.7253675  -2.3240405
  12.4858780  47.3041818  -1.8123151  11.0232515  47.3088362  -2.0242241
  22.1390737  29.5054458  -0.7089286  22.6788425  30.0212296   0.0295267
  21.2671252  29.6080327  -0.2439856  33.1943553  48.4164582  -4.7534138
  33.0666025  47.4450364  -4.6052572  33.5592348  48.3969386  -5.6732964
  28.2789246  38.1137663 -12.7219975  28.0266924  37.5494531 -13.5044492
  27.7324755  37.6529421 -12.0436053  51.8249953  19.5781209   0.6976712
  52.7365773  19.7186957   0.3664335  51.3614206  19.5725321  -0.1895582
  41.5026309  30.0455345  -3.3517357  42.4546347  30.3227870  -3.3499141
  41.1432498  30.6899380  -2.7334451  40.4911547  38.8064114   5.6617589
  40.7026387  37.8702466   5.7117930  41.3789217  39.1007345   5.3356930
  29.4369997  34.5150551   1.6487616  29.8454869  34.6095116   2.5276708
  30.2390876  34.3831404   1.0739292  31.0061099  22.7293015  17.9350374
  31.0411173  23.3790829  17.2389928  31.9377011  22.3501528  17.9196430
  31.2852027  27.8830431   0.3599255  30.6020653  27.5455664   0.9201551
  30.7144486  28.1475285  -0.4169117  48.4071340  28.2329708 -13.9689854
  48.6206716  27.8165953 -14.7904872  48.9376515  29.0125427 -14.0263735
  47.1430011  15.7178937  12.5363047  47.7867247  15.4470028  11.8192616
  47.6305862  16.5221992  12.8566413  32.1309615  37.7018878   1.9163466
  33.0336508  37.4352345   2.1861701  32.2825117  38.7283265   1.8885971
  35.9943761  48.1282947   1.5234977  36.9188673  48.3184654   1.7349556
  35.9352372  48.3242995   0.5458247  36.6192936  52.4262099  -1.0350496
  36.9128013  52.0244809  -1.8604465  35.7932973  51.8889811  -0.8794174
  24.8443825  43.0315900   0.4334376  25.3733481  42.5064112   1.1333934
  25.0146292  43.9390618   0.7496184  16.5981118  28.3183451   3.6072623
  15.8458000  28.2967992   4.2129383  17.0599513  27.4950609   3.8924086
  45.9374988  54.0797669   6.7721009  46.1683331  54.6544365   7.5158043
  45.7910157  53.2047276   7.1628422  28.0074306  18.6544166  -0.5374182
  27.9072481  19.1797149   0.2821008  27.0189598  18.4843146  -0.6570554
  31.7831888  31.2065662  13.2748621  31.8451670  31.2031427  12.3406867
  30.8120748  31.3580428  13.4328133  58.4744439  40.8373439   6.6969812
  59.3549165  40.4561393   6.5118086  58.6964783  41.6774824   7.0796197
  17.2385858  11.0096159  19.4888535  17.5825419  11.8439674  19.8123745
  17.3041143  11.1954439  18.5453765  39.0732813  32.0130281  13.2269971
  39.2847700  31.7311032  12.3495216  39.2148680  33.0125231  13.1994545
  36.9496067  34.2678602   3.7464678  37.4280457  33.4671647   4.0109014
  36.6515070  34.5676353   4.6063693  34.9216993  46.3667173   3.7578152
  35.2720994  46.7868081   2.9140120  35.4555756  45.5604926   3.8108292
  50.8256659  31.4506882   4.4101042  50.0716656  30.9017096   4.7245746
  50.3126690  32.2913332   4.1404148  26.3911025  28.8037931   9.2152458
  26.7045850  27.9020336   9.0755346  27.1954365  29.3457327   9.1482796
  33.9128970  23.0028609 -15.0052379  33.2843293  22.3621612 -14.7026351
  33.3629887  23.7623221 -15.3252083  26.8819749  33.6769629   9.9025385
  26.0477723  33.1485808   9.9396660  27.0870524  33.8528407  10.8311428
  40.1762009  20.7889899   8.5237636  39.5707086  21.5325345   8.3759912
  40.9811171  21.2878735   8.8810307  28.5337286  26.2048537  -2.1700082
  29.3714664  25.6960100  -2.2926375  27.9585478  25.6038483  -2.7792916
  41.3830918  47.5827570  -0.3257682  41.2207121  48.2261227   0.4015693
  41.3896143  48.0779392  -1.1421998  29.9218023  31.1753049  -4.1127277
  30.5251089  31.7960191  -3.6756988  29.1096680  31.6624210  -4.1458935
  36.5482738  28.3150673   6.2100695  36.8531276  29.1605273   6.6686226
  35.8414663  28.0492114   6.8468017  51.1260919  43.9962737   3.0421290
  50.3576909  43.7237375   3.6026785  51.1670160  44.9492899   3.0546803
  33.1198970  34.7472869   4.1384928  32.1865551  34.4133074   3.8454172
  33.5267520  34.7905332   3.2382256  39.3549315  40.2658961  -4.3660665
  40.0680440  39.8119898  -3.8705037  39.7717367  41.0888848  -4.6145858
  25.1211620  45.7422023 -14.5117192  24.6974257  46.3119542 -15.2103448
  24.2623368  45.4658205 -14.0545355  23.1164159  44.5738992  -5.7726805
  22.2646309  44.9035099  -5.5123265  23.1668351  44.9177765  -6.6656659
  27.8450559  55.7201179  -0.5330399  27.4407982  56.3630352  -1.0793770
  27.5605519  56.0733684   0.3908675  25.2191797  23.6833891  12.5531437
  25.2337330  24.6205983  12.8598271  26.1644597  23.4555161  12.6582898
  29.6583846  27.9533245   4.7507324  29.5765000  27.6662834   3.8230487
  30.3847065  27.3774365   5.0603530  33.8082114  33.0182515   9.7942233
  32.9013783  33.2344328   9.5048009  33.6657166  33.1775217  10.7630398
  35.9755767  33.3330920  -6.9014343  36.3519051  33.0203908  -6.0369000
  35.1525590  32.7512366  -6.9090255  39.4314947  31.6784402   9.6207417
  38.5916331  31.9739755  10.0428980  39.3704566  30.7261408   9.5770632
  19.6303844  19.7419450  19.2358223  19.8846730  19.8999614  18.2597133
  19.1132342  20.6231202  19.3700891  35.2464603  27.2210404   4.0317314
  35.7705682  27.5341048   4.8355581  36.0650666  26.8191318   3.5892364
  53.4314817  42.6456842   4.4938460  53.0852801  43.4169109   3.9588052
  54.3560719  42.9360770   4.5705581  31.7039984  33.2504835  -3.9279883
  31.6919708  33.5175967  -4.9047733  32.6471295  33.0606449  -3.8653784
  33.6713133  25.1399433   8.8162424  33.8869325  24.3114511   9.2223863
  33.4397003  24.8111512   7.8837014  45.0896927  34.8217208  -1.9969537
  44.4500195  34.2318093  -1.5049862  45.7811758  34.1676011  -2.2909745
  48.0207898  36.7782671   4.7980999  48.1714036  36.8895332   3.8530269
  48.7473095  37.3750873   5.1750865  33.0864346  16.7805008   4.8815864
  33.7231219  16.6834669   4.1470566  32.2662541  16.4807027   4.5147297
  47.3580099  43.7888641   1.7280192  48.0965320  43.6991960   1.1265221
  47.4886121  43.0271383   2.3372385  45.3639334  40.7454621 -11.9743958
  45.6941678  41.4139939 -11.3496636  44.4800559  40.5558665 -11.6226480
  36.7306158  49.2221882  -7.4424343  37.3794171  48.5690451  -7.5578011
  37.0956488  49.9866509  -8.0022400  43.9944750  31.4124036  -2.8336297
  43.6769430  32.1883939  -2.2830913  44.2139928  30.7587335  -2.1492175
  41.3143886  23.6258390  -7.3547889  41.2491127  22.8328584  -6.8415812
  41.4666729  24.3140380  -6.6842470  43.7668400  40.4513666  -4.1074471
  44.6669987  40.3688947  -4.6301683  43.7475792  41.4483430  -4.2671255
  47.2154570  35.8068653   0.8065219  47.7570626  36.4484570   1.2701064
  47.8826271  35.0601694   0.7418945  25.0297897  38.3454621   8.1248198
  24.5743249  38.5428834   9.0160067  25.4885530  37.5463581   8.4006730
  22.2397820  33.9629869  13.9346015  21.2180498  33.9152630  13.7603536
  22.2136423  34.7805152  14.5568578  24.6042773  25.5240012   3.7194849
  25.2769803  25.2871885   3.0732283  23.9680324  25.9884293   3.1804934
  37.3727714  28.5738911  -7.3634916  36.9775678  28.7297896  -8.3009603
  37.1472858  27.6434152  -7.2900421  15.4067300  39.8773906 -10.3165433
  15.6247321  39.2201647 -10.9799020  16.2386349  40.0478756  -9.8804016
  24.9017392  38.9533191   0.6656451  24.4602498  39.7349494   0.6393947
  25.5599135  39.0125707  -0.0862121  30.8367478  37.3140092   5.9593539
  30.5691530  37.4856583   5.0393787  30.0234174  37.4934969   6.4593677
  33.5361703  25.7045860   2.3642301  34.3071022  25.2737521   2.0032236
  33.9299791  26.4132745   2.9803722  60.3775370  19.4081423   7.4503233
  59.9371407  18.6160943   7.0865166  59.8886928  19.5334095   8.2842302
  30.7377371  37.1154892  -0.6252118  31.5920471  36.6206149  -0.8817887
  31.0871380  37.5985668   0.1810202  36.5046214  36.5793680  -6.1970375
  36.6769116  36.9322727  -7.0714499  36.6034988  35.6093931  -6.3541485
  39.2545779  26.8564712   5.5614302  38.6116812  27.3920855   5.9898455
  40.1273978  27.2199796   5.9119039  36.1301570  42.1303656  -3.3921583
  36.7480908  42.7951585  -3.0807192  35.2858798  42.4655666  -2.9911770
  30.4718976  55.7469834  -1.8340960  31.0018326  55.1270916  -1.3316457
  29.6480337  55.6850395  -1.3598131  42.0021628  34.7113590  -8.8480034
  41.5072134  35.3270720  -9.4682553  41.4890366  34.9502496  -8.0603082
  40.6741725  32.1307388  -0.3253908  40.0474979  32.4252124   0.3955812
  41.0104422  31.2954828   0.1253770  23.3085734  27.4897545   2.4211264
  22.3310035  27.5439962   2.5390471  23.5999620  28.2950601   2.8717195
  47.7562483  49.3006105   7.9193646  47.4741339  49.0286644   8.8636947
  47.3281981  50.1905355   7.9393086  35.7708230  37.9133847  -8.6663070
  36.3762113  38.1936866  -9.4246975  35.5494790  38.7700027  -8.3298895
  22.2662608  27.4257034  15.9544151  21.8959624  27.8352854  15.1298738
  22.7282799  28.1803385  16.3295505  50.1895964  57.8543014   2.8418867
  49.8734584  57.5935222   1.9692328  50.2452050  56.9704640   3.2664837
  43.9890915  50.8712062   4.3551137  43.2532462  51.2444227   3.8273617
  44.0535565  51.5610688   4.9837108  37.5135215  43.9256281  -1.7447222
  37.7829479  44.7746006  -1.2697142  37.1915874  43.4254057  -0.9955350
  40.9910997  55.4786954  14.7805387  41.3903648  56.0208893  14.1287665
  41.2218235  55.8281891  15.6388705  40.9505898  59.2726464   5.9439170
  40.0777929  59.0032400   5.6196437  40.9407040  60.2371764   5.9501491
  40.6859039  49.8053329  -5.3092286  40.5464140  50.5352996  -5.9853230
  40.5092169  49.0287396  -5.9267777  47.4244974  53.4688160   2.8342184
  46.8643505  52.7429725   2.6181425  48.2235039  53.1640362   2.2716305
  40.6958183  47.2456694   5.8413701  40.0599009  47.5127668   5.1832124
  41.4925637  47.7366245   5.5713263  53.3095345  31.4512507  -6.4367543
  53.6934170  31.4903215  -5.5108990  52.8759099  32.3286747  -6.4176009
  33.6905626  56.9434744  -0.0517644  34.1610740  57.5503382  -0.6517923
  34.3622478  56.1694825  -0.1344039  41.8468115  37.6129786   9.0953641
  41.9092862  36.7330485   9.5255804  41.1480131  37.3995441   8.4018731
  34.8438330  57.7385357   3.8354708  34.3985802  57.3361251   4.5608781
  35.3395458  56.9926069   3.4576504  50.0620049  55.1304434   3.4272677
  49.7453873  54.4174616   4.0283347  50.2476556  54.6078980   2.6340189
  57.5133469  51.2796647  12.5041222  58.4633407  51.1822444  12.2560883
  57.3686227  52.2316620  12.2797627  40.6959141  62.1503067   7.1369132
  41.0157330  63.0314567   6.8797700  41.5776791  61.7234817   7.3389012
  47.9107556  47.0876749  18.2099908  47.4383067  47.7521449  17.6500090
  47.6216211  47.4372283  19.0933115  50.6925428  46.7319776   8.8367615
  50.3058592  46.6334875   9.7390660  50.8106678  45.8023730   8.5457727
  44.1523151  51.4202446  -5.4375237  43.5952370  52.1953034  -5.3311541
  44.5760238  51.4337574  -4.5203437  45.0839672  49.4118865  12.8411910
  45.9147265  49.5883218  13.3324580  44.8878938  50.2713039  12.4541595
  39.9159376  52.4770770  12.2500092  39.1996418  52.8341267  12.8279230
  40.3679013  53.3533419  12.0184246  52.4921205  66.2722289   7.9221608
  53.2248170  66.7068276   7.5192407  52.8805042  65.8849962   8.7870058
  39.9987846  46.0395325  10.6577130  39.6748752  46.1759596   9.7264039
  39.9915106  45.0349061  10.7014928  56.6550653  51.3357117   0.7792434
  56.1087072  52.1882525   0.7625125  56.6532653  51.2078044  -0.2388574
  51.2387655  45.7407324   5.6185942  51.5627274  46.0214461   4.7213337
  50.4011476  46.1572805   5.6367816  50.0850841  53.0590593  -3.4218484
  49.2495340  52.7205338  -3.6427574  50.6202748  53.1454628  -4.2481510
  29.7604728  61.7091452  -7.4350842  30.5717081  61.1966311  -7.6718351
  30.0724538  62.5596185  -7.8061300  43.6305207  37.2135203  -3.2509015
  44.1804212  37.9948608  -2.9164975  44.0869475  36.4736651  -2.7030044
  39.8871316  48.7149886  16.4304178  40.6093214  49.3871278  16.5141121
  40.0000224  48.2319545  17.2318975  41.0336589  43.9419313   2.0631983
  40.3774446  43.2177080   1.8515384  41.3754839  44.0910103   1.1759991
  62.2559463  54.8482968   6.9082447  63.2062024  54.8558779   6.7223962
  62.1313946  54.0247504   7.4298602  40.7557693  42.7728229  -4.7891792
  41.7633761  42.8038869  -4.7419330  40.6931156  43.4055374  -5.5553110
  56.9532607  39.9329877   2.3668799  56.5275275  40.1711868   1.5363906
  56.3768752  39.1628253   2.6447906  37.5648607  44.2477599   7.6890020
  36.6820616  44.4441273   8.0958742  37.2866669  43.6306213   6.9370759
  30.1250100  61.1049656   2.7155243  30.3396338  61.5729254   1.9468983
  29.3100955  61.5485614   3.0379360  35.8947759  59.1981939 -10.2341585
  35.0892284  58.9526383 -10.6638305  36.4172800  59.5361404 -11.0506773
  40.2629345  43.8385960  13.4016107  40.5478754  43.5805992  14.3053269
  40.3681338  42.9036003  12.9736925  37.8140440  51.8222107   2.3374878
  37.9587021  51.1350320   2.9830876  36.8461675  51.9274928   2.2976068
  47.5509573  49.2496785  20.5555003  47.4466247  49.0754419  21.5169928
  48.4011295  49.6782916  20.4964992  44.2668469  49.6329562   8.5809968
  43.3109778  49.6803404   8.3127945  44.3259672  48.6487386   8.6621891
  44.8329537  55.7442181  11.2996426  45.2747272  55.7522928  10.3721691
  44.9898519  54.7675004  11.4432237  53.2002194  52.0636780  21.3711585
  54.0757839  52.3675639  20.9298973  53.1058063  51.2387318  20.8025279
  44.5229032  34.7723400   9.2412240  43.9510146  34.1202157   9.7405543
  45.0773851  35.0848163   9.9878553  28.7782287  44.3202700   1.3735412
  28.6228529  44.0296976   0.4549389  28.2707466  43.6185933   1.8914981
  42.0667701  52.2131191   2.3004792  41.5809359  52.8229471   2.9302476
  42.5109197  52.8583432   1.7351416  29.7441548  25.3385276   6.2817128
  29.6512135  25.0004605   5.3758444  30.7105414  25.4554099   6.3206167
  39.1097488  37.4530253   0.1015351  39.4405646  38.3270083  -0.1620260
  38.2038438  37.5613423  -0.1064639  41.7673839  44.2871109  -0.5557240
  41.0099735  43.7342475  -0.8432923  41.6864634  45.0692608  -1.1092510
  39.5646999  55.6469597   3.1824614  38.8924655  55.9592843   3.8432354
  40.2613469  55.3999704   3.6881825  27.1971774  45.7445617  -8.1865729
  27.2384428  45.3222161  -7.3495942  27.1726386  45.0005730  -8.8315374
  67.6821050  48.1721686   0.9892562  67.1085325  48.7986581   1.4308670
  67.1723512  47.4030383   0.7996901  43.4552631  58.5620033   1.7868515
  42.5314726  58.2588815   1.9019009  43.2413748  59.4611715   1.3269678
  49.3333928  33.8590744   1.3562371  50.0078742  34.1058104   2.0604293
  48.7539127  33.2989176   1.9936906  52.4440180  62.3400986  10.9483847
  51.5312891  62.4251743  11.2173288  52.5348643  61.3913973  10.6910635
  51.6894503  42.1932614 -12.9240235  52.3246641  42.3421495 -12.1886788
  52.1270965  41.5566535 -13.4896373  47.3694704  41.7798299   3.5152916
  46.5068407  42.0906037   3.9329670  46.9981923  41.0041044   3.0300420
  54.8001638  47.5312406  12.3257814  54.8965898  47.6362189  13.3275024
  54.8235196  46.5446524  12.2766520  44.9519089  47.1570210  -6.1090746
  44.6569021  47.9128271  -5.5473687  44.4657959  47.2879713  -6.9405527
  43.0411081  54.4624934   1.4276117  42.7304301  55.0672280   0.7271621
  43.9071431  54.9289294   1.6672417  37.3125696  44.1835800  -9.4080225
  36.8943317  44.6903558 -10.1129961  37.1995528  43.2860693  -9.7460794
  47.2033860  43.2891490  -4.9541645  46.2861545  43.3194885  -4.5870931
  47.2996102  44.2480484  -5.1537885  41.3726356  39.2344413  -3.1073814
  41.7161578  38.3572634  -3.0756081  42.1217626  39.7643041  -3.4619660
  43.7620277  55.0428272  -3.1351414  44.0290927  56.0351667  -2.8602672
  44.6538185  54.7688905  -3.4156798  43.1931401  65.7502792  10.8845349
  43.4197636  64.8401827  10.5112646  43.6187315  65.6526099  11.7542312
  41.8478789  59.5890093  11.0469884  42.3340024  58.8301182  10.7097949
  42.3186748  59.8114383  11.8348748  33.6234285  52.8820319 -14.0901625
  32.8846563  53.4507738 -14.5032683  33.2341175  52.0199810 -14.0516183
  40.5446311  41.4756899  12.3246927  40.3264118  40.9959883  11.5197924
  41.3614191  41.9623041  11.9713160  47.5442564  48.4406971  14.0165330
  46.8117193  47.9927542  14.5138181  48.2870865  47.9039100  14.3115198
  35.0395882  52.1105884   2.2533754  34.6157907  51.5928976   1.5379244
  34.3925355  52.8626978   2.3222005  41.5315027  40.9466737  14.8560075
  42.2857041  40.3833894  14.6196600  40.9236572  40.8441263  14.0844747
  53.7909608  41.6266842  23.0283957  53.1209760  41.9184326  22.3484407
  54.5816860  41.6210570  22.4816911  44.0655957  46.2321234  -2.1640047
  44.9650882  45.8665178  -2.0070206  43.7795215  46.4109927  -1.2582122
  37.2606152  56.0641739  13.1361938  37.8016862  56.4164871  13.8889247
  36.3682550  56.3911562  13.3323508  39.4657009  53.8748072   6.8806656
  39.2796811  53.5853174   7.8237879  38.5664631  54.3546775   6.7369319
  45.4649659  39.0844572  15.2820123  45.4001754  39.9234840  14.7860558
  46.3589103  38.8606308  14.9473485  49.7350547  44.0182367   8.2058977
  50.1542593  43.2096921   8.4032416  49.0896677  43.7822330   7.5181136
  55.6986665  54.0968809  14.6442532  55.1158803  53.5250634  14.1012232
  54.9986922  54.5182542  15.1874749  39.4498046  38.7508924  11.4001792
  39.5175347  37.8200135  10.9881569  39.3584085  39.2519547  10.5867770
  38.7925730  66.9261490  10.2216463  39.3670100  66.2049110   9.9434222
  37.9186746  66.5012643  10.1352564  61.5926928  67.6412242   7.8527088
  60.6318769  67.7416131   7.8861119  61.8889596  68.4718808   8.3188398
  38.3802350  49.0543204  -1.1804396  38.7258528  49.2222964  -0.3219083
  38.3449673  49.9174999  -1.5855696  38.6638372  46.2238838  -0.5619861
  38.3257899  47.1075224  -0.8263351  39.5754984  46.4406262  -0.3420180
  45.5085020  61.1809890   4.0248130  44.5874510  61.0575110   3.8388768
  45.4083285  61.7556002   4.8701550  42.0274259  45.6418768  -6.3814923
  41.4208079  46.3235531  -6.8221325  42.3665539  45.2216977  -7.1979076
  55.9139152  50.2701244  -4.5714950  55.8610274  50.7551171  -5.3648318
  55.5797263  50.8966905  -3.8935490  42.1941462  65.1675750   6.8016743
  42.6148276  64.7760780   6.0113056  41.5966396  65.8264067   6.3585613
  51.7556870  51.6121718  12.2228344  51.9283191  50.6520837  12.3885775
  50.7735233  51.5588555  12.0721870  51.5146378  45.6260213  -8.7708993
  50.5990167  45.4262601  -8.4266068  51.9651228  44.7168678  -8.5674186
  49.1267037  62.2386025   0.2537872  48.8215115  63.0767747  -0.1860600
  49.3090117  62.5243773   1.1454990  52.7044188  41.4043617  18.3383760
  52.4171439  41.8754449  17.5379132  53.3604632  40.7639609  17.9290786
  42.9845432  48.3107965   4.5986625  43.2604708  48.0626871   3.7205881
  43.3508894  49.2204010   4.6214829  54.7887107  49.4738610  10.3415603
  54.3114172  49.1812477   9.5867262  54.9425090  48.6798000  10.8662188
  33.9482762  53.2810384  -2.8457355  33.9902808  52.4404543  -2.4014532
  33.2563535  53.1651566  -3.5341576  30.9781704  44.3450583  -1.8306615
  30.1256760  44.0937931  -1.4599239  30.7546790  44.5622870  -2.7661321
  39.7697314  67.2905850  12.7623422  39.1986816  67.3079767  11.9878306
  39.1270423  66.9914072  13.4703277  45.9549282  39.7102581   2.6112032
  45.6018456  39.8568838   1.6754965  45.7140625  38.7671066   2.6953054
  48.2140818  60.8997639   3.7016967  47.2789776  61.1788756   3.8779966
  48.6272021  60.9894273   4.5521265  39.9188967  47.7845430  -3.1801121
  40.2780333  48.5124306  -3.7294264  39.3842285  48.3113552  -2.5476419
  44.6995354  42.4416607   4.5163534  44.7885949  43.4194220   4.3152569
  43.8385499  42.2396680   4.0936820  43.1894275  50.4386857  -2.2790987
  43.9088066  51.0577925  -2.5627024  42.8157449  51.0036125  -1.5339260
  39.2793197  57.4070673  11.7111939  39.2931916  58.2009812  12.3195490
  38.4372447  56.9821797  11.9236218  41.7011262  34.8898609  13.2161184
  41.8259836  35.6890444  12.6777913  40.7188146  34.7819568  13.2230404
  33.7449940  37.9982338  -5.8386948  33.6817975  38.0941955  -4.8411595
  34.7250307  37.9180001  -5.9132643  35.7382713  47.5130274 -10.0209561
  34.7447640  47.5303251 -10.2011545  35.9866484  46.8320830 -10.7221406
  36.4570378  35.1508709   6.4535077  35.7302056  35.7854737   6.5817095
  36.9733087  35.3073745   7.3260574  41.3377506  57.4345818   7.7763495
  41.4343587  58.1802710   7.1430020  40.6871020  57.7355943   8.3779319
  53.5452479  40.0724083  -3.9438773  53.1185529  40.2730445  -4.8114999
  54.2892051  39.5744123  -4.3004313  57.9920809  51.2242782  -8.5587561
  57.8682660  50.2442416  -8.3245735  57.9064012  51.6247661  -7.6708601
  41.6933469  46.7753084  12.6245513  42.3015074  46.0207846  12.6987043
  41.1212939  46.3810822  11.8799525  47.8331681  43.8440654  10.4288040
  48.4450691  43.8980848   9.7118629  47.1581066  43.2117149  10.1205506
  47.8526738  43.7326907   6.1209386  47.4485978  44.4585600   6.5978395
  47.7697234  44.0257073   5.1744269  37.7142813  61.6250571  14.0727693
  38.2061525  62.4364850  14.2641883  37.7122242  61.6661826  13.0665259
  37.4978835  38.0221084   6.7726695  36.6712024  37.8024648   7.2417909
  37.2364661  37.7761843   5.8572017  40.0224601  42.8007815  -1.9564313
  40.3514214  42.7329298  -2.8722730  39.1191835  43.1299158  -2.1215520
  35.1124124  43.5059613   5.9578357  34.2452392  43.1183503   6.0108414
  35.6291300  42.9294199   5.3778961  46.4588042  48.8315514  16.8052730
  45.4232473  48.8992656  16.7474531  46.7069112  49.7258182  16.4990644
  37.4127454  64.9416471  -3.1576754  37.6493683  64.0004218  -3.0509289
  37.6423366  65.0571838  -4.1258140  42.9795149  57.9791631  21.5638777
  43.3612024  57.3530981  22.2170357  43.8992365  58.3860607  21.3042412
  44.7316306  57.5180721  -2.4471723  44.9939083  58.0798522  -1.6138618
  45.3899953  57.8935698  -3.0372721  37.2194048  42.2637526  15.1741413
  36.2125159  42.0840949  15.4134597  37.1152310  43.2641876  15.2479692
  63.1133670  53.9955724  10.9528322  63.3952198  53.9625842  11.8675734
  63.0736922  54.9528516  10.7844631  49.6193609  57.8291945   0.1005072
  48.8819342  58.3881149   0.4909236  49.1005427  57.0506680  -0.2001940
  52.3004645  60.5563786   5.1962583  52.0866125  61.4889532   5.4730365
  53.2493762  60.5174295   5.2156195  39.3224506  36.0496870  10.7349657
  40.0584772  35.5233219  10.3582497  39.2616729  35.5573242  11.6320528
  58.2962930  48.1784086   6.3192700  57.8959254  48.7703932   5.6899649
  59.1809884  48.0264434   5.9396823  54.9594217  44.8942663  12.0630103
  55.3599967  44.1132537  12.5594685  55.2334554  44.5882492  11.1616667
  35.2511835  54.8764423  -0.2804460  35.5229921  53.9986312  -0.6520800
  36.1134089  55.2529125   0.0491601  45.6539181  37.4212064   5.9536819
  45.8971242  38.1866966   6.4290469  46.5279019  37.1228309   5.5659499
  35.6713728  50.6261565  -5.3360204  36.1867348  49.9719380  -5.8400181
  36.3595280  51.2995230  -5.0667575  44.2673328  46.8450435   9.0975714
  44.0473163  46.0871783   9.6128894  43.8035761  46.6963142   8.2559898
  73.1453537  34.2066302   5.5155670  73.2050951  34.0984738   4.6222825
  74.0355769  34.4424362   5.7429579  52.4867474  43.8038991   0.5076881
  51.8512736  44.5614347   0.2511358  52.2642726  43.7361912   1.4578122
  48.4224103  40.8111989   6.7924316  47.4527808  40.8520498   6.5909207
  48.7055010  41.7181021   6.8115144  49.8987687  48.2633789   6.7133678
  50.2812087  47.8105761   7.4959505  49.1231578  48.7562867   7.2111794
  59.1928944  43.5768931  13.0018739  60.1028103  43.7727993  12.7428990
  59.1526011  43.6477780  13.9648074  66.2182929  50.4848941   1.6891459
  66.0438579  50.3162467   2.6160346  66.9465467  51.1120366   1.7670612
  56.0668863  43.0630784  13.6262157  55.6692904  42.1637331  13.6650024
  56.9923708  42.8834678  13.5422315  42.5434385  55.8709281   5.3956601
  41.9011515  56.3910047   6.0019618  43.1537957  56.6437754   5.2575743
  47.7172789  55.7713373  19.3958515  47.4288056  56.6667869  19.5373404
  46.9442361  55.2528504  19.5137395  36.7152754  54.9484513   6.7621348
  35.8938019  54.5549684   7.1999864  36.3306913  55.1849345   5.8901517
  48.7585882  42.0966485  -2.6624630  48.1496175  42.6322646  -3.2058308
  49.6061792  42.3749554  -3.0234792  52.9767055  32.2754219  -2.0166717
  52.0828096  32.3729541  -1.6575008  53.4597651  32.9252211  -1.3860022
  47.1830946  48.8030052  23.4207028  47.7882640  48.2368067  23.9049437
  46.3360111  48.3613187  23.6157319  39.6996636  43.4025842   9.1257792
  39.1969241  42.6454936   9.4830023  38.9642061  43.8105312   8.6122289
  36.1903870  38.2472186  -0.9363114  35.6285528  37.8208656  -1.6307386
  36.6238989  38.9378004  -1.4270123  44.7767469  40.3796174   0.0391067
  44.6630192  41.2000031  -0.4733427  44.9800164  39.7575289  -0.6622717
  39.4629738  47.0204591  14.3294503  39.6009206  47.4749980  15.2089765
  40.3938581  47.0719766  13.9957408  41.3240999  51.4587185  -0.5832991
  41.0722677  51.7490786  -1.5237030  41.0530616  52.1659927  -0.0438320
  46.1437442  41.4923636  -8.3950403  46.5344483  41.7987014  -9.2290583
  45.8063457  42.3877469  -8.0547868  42.5375764  52.9701605   8.1557751
  42.6096749  53.0916067   7.2001053  42.1275837  52.0792198   8.1925317
  49.8843337  63.0875996   3.0563040  49.9326898  63.1704463   4.0041637
  49.8751854  62.0687491   3.0211803  61.5168281  46.9626954  -1.8815546
  61.6085238  47.5697191  -1.0790159  60.5916938  46.6460221  -1.6893655
  45.8236859  48.0325346   6.5493567  46.2688270  48.3593072   5.7387666
  46.2238722  48.5349856   7.2408638  35.2550595  66.8342983   4.8350540
  34.6479756  67.4950158   5.2227496  36.0340503  66.9336261   5.4624269
  46.6472365  55.5863051   4.8105659  46.5331394  54.8971860   4.1210919
  46.4527371  55.0556694   5.5817807  57.5167346  41.1198967   9.5441725
  58.0499424  40.6857926   8.8409304  58.0203756  40.9641463  10.3878790
  34.8308665  63.5030023  -3.5825740  34.6673669  64.3936354  -4.0117808
  35.5158754  63.7242047  -2.9349077  43.4142743  54.6034012  18.4777571
  44.1778846  55.2204264  18.3946845  42.7020833  55.1634919  18.0508237
  37.6622065  31.7563439   5.4201840  38.5864739  31.8866854   5.7519810
  37.2455784  31.4167116   6.2174779  41.8301795  55.4529264   9.4057365
  41.5405794  55.9801278   8.6559660  41.9478823  54.5857237   9.0569515
  35.2708284  54.6446676   4.6169912  35.7644093  54.3642235   3.8556182
  34.6260678  53.9948104   4.8251675  54.8924315  42.2020650  -2.9626823
  54.3475226  42.7888767  -3.4601577  54.4208986  41.3360816  -3.1250169
  52.1672611  58.5024499   7.7077633  52.6235796  57.6190893   7.7948754
  51.5614202  58.2603532   7.0017904  47.9687076  68.7771738  25.9018266
  47.6805975  68.2158297  25.1546238  47.6016477  69.6625047  25.6716154
  57.0179628  67.2286437  10.6861292  56.9770691  67.0627908   9.6804660
  56.1630215  67.7357765  10.7830941  46.9027632  64.5824365  10.7873869
  47.0751644  64.4155397  11.7029334  46.3925966  65.4139588  10.8614586
  48.5396055  39.8915085  18.7993868  48.1454123  40.3794556  17.9868641
  49.4583830  39.8109793  18.5586776  61.2876451  67.1190040  15.1827037
  61.2204462  67.1308543  14.1749920  60.4005479  67.4059126  15.4669968
  52.4020404  65.0989012  13.2423194  52.7752731  65.9901627  13.4911595
  51.7598912  65.3259092  12.5656826  54.6452487  58.5617906   3.9756771
  54.7997414  57.6888943   4.3889356  54.7660287  59.1162956   4.7582501
  58.9707567  59.1814965  12.2480279  59.2586658  59.2221835  13.2036348
  59.2389537  60.0476379  11.9370005  52.0638690  57.6513179  12.4240192
  51.1085314  57.6664482  12.5753358  52.3286505  57.6316613  13.3588267
  51.1417963  57.5538289   5.5635287  50.9368827  57.9105901   4.6663875
  50.9799781  56.5791512   5.4007592  46.5079220  51.4975945  19.4191623
  47.3445924  52.0736868  19.3984504  46.9399592  50.6172584  19.5156793
  50.1412341  49.1300285  18.4494677  49.1665633  49.0513288  18.2104169
  50.2748377  50.0651564  18.1891599  36.7112032  65.2165061   9.9494402
  36.5299064  64.7590090  10.7649846  36.0054676  64.9095258   9.3875617
  39.3198317  50.4107175   4.6746100  38.9786268  50.7176307   5.5581545
  39.9738980  51.1383496   4.4989963  54.7755915  75.9162902   8.1054244
  54.3826397  76.0330342   9.0059394  54.6172200  74.9608106   8.0089530
  45.3297475  61.0412623  10.1398331  44.9853129  60.4069116   9.4955548
  45.4953747  60.4889002  10.9379088  57.5639737  55.7633262  21.1058053
  57.9764593  56.5224654  21.5294582  58.1212963  55.0560586  21.5458843
  66.3577529  60.0223964   1.5421379  65.6249757  60.6688277   1.3069448
  66.6027463  59.7657139   0.5995367  58.2624780  78.6300589  11.4024913
  58.7392071  77.8134913  11.0032150  58.9945508  78.8950051  11.9510730
  56.8046905  58.3541461  10.5988476  57.5118910  58.7969741  11.1644864
  57.4634866  58.0058394   9.9340039  52.9060278  60.9456949  14.6274838
  53.1845162  59.9729369  14.5172579  53.6697351  61.2666784  15.1518866
  59.4983880  57.9910825   2.3366786  58.6343821  58.4613044   2.1228400
  59.0683092  57.0843699   2.4930471  53.3689980  63.4238688  21.6677583
  53.5850489  64.1429978  21.0529835  52.7927163  63.9384055  22.2862892
  61.8519502  66.8628422  21.4350529  61.4325523  67.7363838  21.2384795
  62.7558801  67.0754221  20.9892011  53.0657351  66.0396755  17.0110500
  53.1341653  66.9013152  16.5446617  52.2792175  65.6780145  16.5394777
  53.2599534  57.5294239  21.3384048  52.4015911  57.9518989  21.1959243
  53.7411030  58.0745439  20.6833000  45.8284561  76.9028685  28.2795944
  46.7862262  76.8341341  28.3838940  45.5135446  77.3158043  29.1157370
  57.0154566  58.0765782  14.4773445  57.6002220  57.4995667  15.0099949
  57.0703429  57.6442790  13.6237347  42.9964895  20.0070892   3.0035986
  43.4003474  20.7220414   2.5113490  42.0223841  20.1277712   2.7443963
  51.8243478  30.5183467  -8.4434291  52.2818352  29.7282802  -8.7577094
  52.4311091  30.8410680  -7.7206251  41.6460949  30.8534693   2.4531361
  40.9912382  30.0982501   2.5986940  41.4065402  31.4034863   3.2449370
  43.2010946  19.1316676  -0.5135253  43.8689308  18.7291651   0.1526072
  42.3893350  18.7755807  -0.0504786  48.1861658  39.2777719  -2.2513578
  48.0696123  40.2563861  -2.4307506  49.1136116  39.1193684  -2.5196964
  53.2800167  34.9927767   7.5545922  53.4422803  35.4289562   6.6588406
  53.2976083  35.9096816   8.0515152  48.9369136  47.3396747   1.6934422
  48.0283949  47.5052009   1.3290627  48.7541579  46.8077101   2.4648775
  43.7846379  15.6087515  -1.1662904  43.8930761  16.1629846  -0.3554099
  43.1526793  14.9496120  -0.8920625  37.4042317  38.5602217 -10.7407751
  38.3322525  38.8729839 -10.5400060  37.4508487  38.4555769 -11.7037153
  57.5531747  30.7594899  -9.2390683  57.7881844  30.0344654  -8.7165731
  56.6658153  30.5277439  -9.5609547  29.9682846  22.7608341  -0.2873684
  29.0996341  22.3310760  -0.4431153  29.7380950  23.6529597  -0.6986348
  42.1084625  13.6898645  -6.7605505  42.3519376  13.7904180  -7.7434754
  41.8414478  14.6313887  -6.6105172  51.8862122  40.3910437  -9.5671560
  52.2956205  41.2268352  -9.9424888  50.9799809  40.6299051  -9.5444316
  49.4346436  30.7753961  -2.1574243  49.7070386  30.8706641  -3.0892819
  49.9418572  31.5255409  -1.7661605  47.1588676  30.8394563  -4.8220802
  46.3359682  30.7588152  -5.2763815  47.1214170  30.1147198  -4.1997950
  38.5941116  34.8240661  -1.9259586  39.1735017  35.4141075  -1.4337743
  38.0213774  35.4563210  -2.4532108  46.9520272  17.7952449   7.5075875
  47.1607230  16.8689437   7.7884342  47.8305724  18.1004189   7.2665455
  54.1018329  27.2068526  -6.5739628  53.1863699  27.0751040  -6.8929454
  54.1793481  26.4505558  -5.9323119  52.1069885  26.5997912   1.4218479
  52.6676695  26.9677566   0.7227180  52.1847151  27.2880482   2.1229211
  66.0012518  39.8375732   2.6623639  66.6458747  39.0603025   2.5876503
  65.2932191  39.4813123   3.2135181  47.4294888  32.3227953   2.6463237
  46.6828939  32.6513996   3.1543894  47.2925805  31.3614482   2.8971486
  45.8322324  13.0661465  -2.9351830  46.0139003  14.0185009  -2.8480877
  45.0268897  13.1097861  -3.5307124  44.4371494  21.7856064   1.5929435
  44.0810422  22.0560565   0.7253490  45.2152209  21.2066987   1.2684902
  41.4319442  28.0473871   3.2896560  41.5074987  27.0633243   3.3132372
  40.4647765  28.1492347   3.4358505  43.3333442  33.1018549  -0.6477262
  42.4192531  33.0308412  -0.4690254  43.7112691  32.4534151   0.0026614
  36.9895369  32.6254682  -4.5506008  37.0897931  32.1415794  -3.7619360
  37.9269152  32.6090404  -4.9150760  57.3644670  44.6137145  -1.4467467
  57.5478986  43.7022955  -1.3066580  56.3694289  44.6648757  -1.1897532
  55.6755036  54.6075700  -7.5919624  56.5272032  54.8550741  -7.9244766
  55.7458634  54.8707356  -6.6415546  52.1746513  38.1397305   7.5244622
  52.9053567  38.6917974   7.2210476  51.8746067  37.7121309   6.7133928
  56.9480626  47.7492064  -4.2428517  56.6582030  48.5926244  -4.6344457
  56.1868309  47.5900110  -3.6117800  54.5553779  33.1520693   3.7613708
  55.5037003  33.5034927   3.7666321  54.0839847  33.9733521   3.6175197
  51.1552907  39.1331796  -0.3899218  50.3244809  39.6022452  -0.0145439
  51.8411896  39.7173409  -0.1273043  51.0280221  38.6659056  -3.0719182
  51.8544031  39.0881550  -3.3338190  51.0639136  38.7741086  -2.1001658
  50.7414552  41.6347816   8.6211221  51.1790679  41.3740912   7.7502410
  50.4758937  40.6659230   8.8742330  49.7165152  33.7586438   4.0607149
  48.8210014  34.1741913   4.2297169  50.1116478  33.8809362   4.9441643
  59.6478219  47.8381527  -5.1068218  59.5354662  48.5353698  -4.3715753
  58.7096663  47.5342831  -5.0802048  37.8279693  24.8595416  -3.1686291
  37.6687890  25.1991067  -2.2715080  38.5696873  25.4749523  -3.3791532
  52.1609605  37.2893927   3.3346827  52.1073467  38.2814089   3.2590315
  52.4960479  37.1679047   2.3826536  39.3794818  38.8079050 -13.6498724
  38.6385283  38.3007359 -14.1184208  39.5854931  39.4230775 -14.3410668
  43.1421811  35.8483474   3.0213357  42.8262264  35.9795931   3.9202786
  42.2936016  36.0035454   2.5157930  65.4113359  37.9268120  -2.0059871
  65.3050283  37.0126538  -1.8208570  64.5717192  38.1615696  -2.4759129
  57.4669842  37.7796148  -2.6072355  57.5824417  38.6997935  -2.4011316
  57.4950671  37.3082260  -1.7816594  55.4440046  41.3228237 -11.5540951
  56.2190432  41.9454492 -11.6957493  55.4531808  40.9364338 -12.4665341
  54.8076117  46.9216973  -2.7408611  53.8644244  46.6680132  -2.8313391
  54.7981906  47.6701428  -2.1102028  56.2204689  35.1451310   1.3425396
  56.4716315  34.7251395   2.2238963  56.7344449  36.0035880   1.5179223
  69.7977924  38.1098188 -10.9126271  69.0635239  38.1792351 -11.5385330
  69.2718994  38.2989845 -10.0744273  53.9234654  43.5190367   7.5739220
  53.6804988  42.9506425   6.7845553  54.8175628  43.1520268   7.7653821
  69.2820822  46.9809787  -2.3491201  69.8262577  47.2428491  -3.1066165
  68.7619455  46.2896480  -2.7314516  51.7031863  51.9762296  -7.4192158
  51.3534115  51.0876905  -7.5191118  52.4031542  51.9760638  -8.0997076
  50.7919843  45.6424150  -0.2389069  50.5195554  46.3964684   0.3434800
  49.8620960  45.4852289  -0.6400841  31.6570543  44.1209236 -10.5266249
  32.5698448  44.2158025 -10.7170404  31.3416440  43.6721586 -11.3521234
  55.8266389  41.9379607   6.7296546  56.5794818  41.7298709   7.2728182
  56.2084743  42.0039384   5.8508578  61.1573427  39.4364582  -2.4856178
  61.1220266  39.1791221  -1.5414151  61.7642773  40.2168573  -2.4315116
   1.2712068  52.8403801  22.3001863   1.9534628  52.3481755  21.7962066
   0.7984690  53.2738682  21.5244605   0.6288640  62.5116472  25.6806092
  -0.2202008  62.9737502  25.4775873   0.2381568  61.6078941  25.8109463
   2.9649080  63.7799052  25.4312201   2.6344277  64.3139314  24.7087403
   2.1979533  63.2449397  25.6711559   7.4534489  67.9381879  41.6084952
   7.6632276  68.6983602  42.1932878   8.3408075  67.6540293  41.3575585
   2.7872924  82.9170661  26.6206921   2.3176668  83.7315844  26.8809913
   2.6342642  82.3982809  27.4294988   1.0010494  59.6707164  28.6498443
   1.8289199  59.2036863  28.8273058   0.3945009  59.1703305  29.2316550
   3.5416749  68.0473437  25.0897264   3.0197525  67.8888926  24.3189089
   4.4467185  68.1414673  24.7137164   6.5980660  69.2849653  28.0927773
   6.4536597  69.3650632  27.1594309   6.2050403  68.4008864  28.2822188
   6.0074163  51.6466187  33.8727463   6.4819182  51.9755018  33.1417922
   5.1408195  52.1587819  33.8270233   3.8249932  64.0617981  31.2074190
   3.5520848  64.4025756  30.3614059   4.6350231  64.5373469  31.4098482
   9.8198044  66.3412172  31.2114797   9.5661755  66.9586803  30.4725039
  10.6774002  66.7630509  31.4966661   3.4604707  65.6835571  18.4657498
   4.0908312  66.3253664  18.8654713   3.0923788  65.2955718  19.2706302
   1.1573470  66.5187999  31.1126205   1.0347252  66.3221827  32.0457340
   0.9335146  65.6691989  30.6974757  -1.6561077  66.4128537  24.0870730
  -1.8893157  67.3663870  24.0481023  -0.9657060  66.4660336  24.7937426
 -13.7827666  67.4930325  29.6378862 -13.9758149  66.7332636  29.0432619
 -12.7912298  67.5149597  29.5371178  10.2347460  66.6215726  19.7262034
  11.0891791  66.2012270  19.4735039   9.5640084  66.0837200  19.3066324
  -5.4143392  57.6432495  28.4016868  -5.9565976  56.7936784  28.4677825
  -4.8265600  57.4131037  27.7010433  -3.8379859  75.6767276  31.5054825
  -4.5248431  75.7268420  32.2869772  -3.1308489  75.2378717  32.1341401
  -5.7521604  44.6192050  26.4958114  -5.0743607  43.8999320  26.8355396
  -5.4891228  44.4303923  25.5118266   2.1052997  55.6735997  30.3146508
   2.5967476  54.8973221  30.0667458   2.0090828  55.5723921  31.2843360
   3.2948470  53.3507889  27.4732963   3.5102338  54.2713885  27.2602099
   4.1740852  53.0191542  27.7831448  11.8455021  60.8236525  35.3829882
  12.4970684  61.5498104  35.6214571  12.0229032  60.1507515  36.0596608
 -16.9143184  61.1032278  25.4541739 -15.9300767  61.1932756  25.2399313
 -16.8983241  61.5207664  26.3094108   3.5023501  68.1799363  37.7209501
   4.1445625  68.3213512  38.4369409   3.7760830  67.2686542  37.4417816
 -10.2231682  57.8874406  14.3326924 -10.0444185  57.3705391  15.1286063
 -11.1752371  58.0698348  14.4501010  -2.5127593  60.7435254  29.1653072
  -3.1288974  60.9475084  29.8392382  -1.7971585  60.2669034  29.5839657
  -3.3664135  73.0950491  34.8380101  -2.6646394  72.8474616  35.5718322
  -4.1175367  73.0639976  35.4744014  10.8579135  81.8782216  36.3802420
  11.7396399  81.9718712  36.7817998  11.0955471  82.1527441  35.4813582
  -1.5128401  67.6467932  42.2177218  -1.5044122  67.2471885  43.0983072
  -0.7308821  67.4703724  41.7563037   7.5756202  75.6029271  32.8990586
   6.6382792  75.3344605  33.0680274   7.9293017  75.4805124  33.8136133
  -0.1059630  70.9572285  36.2198915  -0.6242993  71.7025874  36.6145050
  -0.6899095  70.1949819  36.5934893  -2.6326294  66.0562948  33.7839458
  -2.6830355  65.1755562  33.2463747  -3.4560268  66.4173341  33.4053939
  17.9337765  73.0033375  25.2976869  18.6325309  73.4529269  24.8001300
  17.8260249  72.1987836  24.7006119  12.2213173  67.0686088  37.3808353
  12.4045213  67.8783917  37.9000438  11.5697482  67.3784197  36.7277507
   3.2340638  64.5274259  28.4916248   2.4370008  63.9149481  28.5293952
   3.3790524  64.5839087  27.5522296   9.4583911  83.4738270  28.8956098
  10.3201659  83.4677683  29.2874963   9.4669026  82.6645211  28.3971080
  15.8102003  60.4267277  30.5898100  16.0357985  60.1407181  31.5172391
  16.6341025  60.1677557  30.1085405  -2.4191324  69.1081940  23.8180701
  -2.4460956  69.9614737  23.3147105  -3.2271068  69.1690751  24.3306143
  -5.6701749  63.0033363  27.6802196  -5.6734816  62.6265456  28.5873882
  -5.0374142  63.7596558  27.8190003  -2.8343213  55.6639906  28.1605278
  -2.2685552  55.5920827  28.9435459  -3.6766531  55.3197501  28.3898495
   6.0999785  61.1690300  20.7447813   5.9978838  61.6509930  19.9061376
   5.9066604  60.2672867  20.3544880  12.0729880  64.2520517  33.6221358
  11.1430543  64.4473259  33.8703990  11.9617954  64.0671695  32.6649772
   9.9538677  80.9223570  28.1395073   9.4143701  80.1190373  27.9231256
  10.8118390  80.5198318  28.3275949  13.6341509  70.7219765  28.3617499
  13.0113131  71.3049555  27.9304360  14.4839549  71.0248320  27.8998735
  -1.0409703  54.1160167  26.9895453  -1.6316441  53.6362145  26.3582019
  -1.7376191  54.6451326  27.4790817  -7.7206290  61.2502873  24.0633897
  -7.4901545  62.0999554  23.5912374  -6.9075765  61.1250187  24.6017315
  -0.4859586  78.2375893  21.3026993  -0.8427832  78.9824941  20.7541751
  -0.1774946  78.8089876  22.0482307  18.5879947  68.6681158  29.5203256
  18.7228080  68.8484884  30.4466429  19.3889771  69.1171035  29.1457683
  14.6892179  67.5650737  27.7862544  15.1611408  67.0659936  27.0536149
  13.9378995  66.9838312  27.9558372  13.2187013  82.3978659  37.2958047
  13.4686991  83.3222488  37.0003137  14.0822631  82.0103459  37.2937650
   5.9821064  65.7752516  41.3379200   6.6827863  66.4455121  41.5004430
   5.3694769  66.0119982  42.0556880   6.8436847  62.4040772  30.1208132
   6.0549185  62.6359686  29.6649793   7.3657089  63.2916937  30.0993032
  -0.6697852  38.2153283  14.7384303  -0.4131961  37.3939603  14.2568012
  -1.6357014  38.2480540  14.6204589   3.9255880  37.7742697  30.5999610
   3.3581453  36.9768777  30.3688995   3.1761028  38.4278586  30.6749915
   7.3064271  35.6867314  12.7938601   7.7427834  35.3256431  13.6258708
   7.2378956  36.6517531  13.1090531  12.3732804  44.8442477  11.6036198
  12.8136825  44.5547028  12.4734487  11.9052246  45.6041765  11.9615097
  -3.3614286  38.5504902   8.3068432  -2.9745073  37.9773100   7.6376305
  -3.8916113  37.9361275   8.8568557  16.7302590  53.5079647   9.0962032
  16.4885136  53.0032010   8.2698043  15.9122590  53.5702232   9.5644739
  13.7477371  39.8922491  12.7993059  13.0164800  40.4942806  12.9776185
  13.8827200  39.5173235  13.6790010  -6.8668406  45.2236707  21.9643089
  -6.0944588  45.6538770  21.5761640  -6.5775512  45.2610762  22.9193565
   6.2451215  45.5748910  18.0418737   6.0386163  46.0753317  17.2008670
   5.4696618  45.8999689  18.5836600   6.3074191  31.8857184   5.1464278
   6.9396205  32.1831834   5.8476960   6.9061437  31.2409520   4.7135807
  -0.4243991  27.5676515   9.6628284  -1.1527944  28.1977138   9.6362034
  -0.6168801  27.0391270   8.8672820   2.4653946  37.4661533   6.7977149
   2.6217964  37.1115596   7.7127805   3.3559769  37.8184827   6.5936727
   0.5131830  49.8841002  15.0807262  -0.0043929  49.2561587  14.4620410
   0.0208617  49.6605083  15.8727584  -3.7130204  36.5597029  24.1401969
  -3.8178575  36.5634346  23.1739486  -3.3741870  35.6488516  24.2682295
   0.1734665  40.4566860  34.6592263   0.3461150  39.8654792  33.9457891
   0.6429529  40.0645307  35.3895256  10.8823163  37.7723369  10.5798036
  10.4085437  38.6253085  10.3624478  10.8976770  37.3742461   9.6580503
   1.5628660  29.1506309   9.1146873   2.4476414  28.7024139   9.1394222
   1.0106400  28.3471624   9.3112424   2.6580715  32.7504543  20.7256045
   2.9957782  31.8272326  20.6564413   2.9950626  33.0140822  21.5557060
   0.5923398  39.6145047  27.1959877  -0.2221719  39.3595149  27.6557475
   0.2419562  39.8284960  26.3349640   2.0216493  19.9188998  19.5623270
   2.5609991  19.7373816  20.3324699   1.4420256  20.6691969  20.0161222
   0.1733127  37.1229265  17.5445652  -0.3041332  37.7827888  16.9985110
   0.6095557  36.5931513  16.8547633  -0.5476560  34.1672500  18.4533676
  -0.6841324  33.8966534  17.5546396   0.4212987  34.2439951  18.4951640
  -0.4586041  49.1247556   7.3739428  -1.4232351  49.1011554   7.2955711
  -0.3412765  49.5166379   8.2370343  12.2868809  30.3148786  13.4374213
  12.1187013  29.5351627  12.9076353  13.1813827  30.5703459  13.1349565
  -2.3852689  39.4900393  19.5996101  -2.9278482  38.6766808  19.5012450
  -1.8967662  39.5329059  18.7000231   6.4981896  36.9187037   9.4104593
   7.2542145  36.2499639   9.5664210   6.8521868  37.3201942   8.5550398
  14.3926223  57.8496330  10.1923837  13.5263071  58.2240161  10.5104752
  14.9901269  58.5804143  10.4372791  11.5104063  44.9483574  26.5131733
  11.0258059  45.7797691  26.4591321  12.2561024  45.2442939  27.1485721
   8.6975534  53.5558637  24.5039111   8.4544728  53.7309241  25.4306755
   9.1842706  54.4278437  24.2849059   5.9975518  56.6308286   6.1857309
   5.8222544  55.6634697   6.2631127   5.5688710  56.8193557   5.3376080
   1.2062980  56.0833573  20.6396704   2.0944382  55.8527099  20.2940691
   1.4269699  56.4449633  21.5315598  10.6374860  55.6645899   4.6755796
  10.0329226  55.7840489   3.8765538  10.9051643  56.6165215   4.7554646
  10.4329804  56.6792309  23.8067577  10.1747940  56.1219146  23.1193099
  11.3001674  56.9228907  23.5527724  13.6083596  44.6183768  20.0597659
  13.8416184  45.4678495  19.6229134  13.2867549  44.9870736  20.9027930
   6.7258402  58.5001434  19.8625444   6.9658281  58.3020918  20.7785747
   7.6010249  58.4679364  19.3961471   5.7984262  50.0074990  11.5814962
   5.7498021  49.5647411  10.6941893   4.8730477  49.9342943  11.8684299
   2.3731124  51.5082578  34.9320983   2.7022072  52.4223701  35.0305298
   1.4659686  51.5528119  35.2318580  15.8745211  57.1984453  26.6635078
  16.2902766  56.4936414  27.1035953  16.3402028  57.9746118  27.0499586
  23.1809757  56.2019864  13.3073738  23.1146758  56.6261769  12.4369977
  23.3225965  57.0067464  13.8655122   1.2818632  56.3377776  13.5603293
   1.9208093  56.6463881  14.2351516   1.2344936  57.0908687  12.9651763
   7.8837751  48.7511747  25.4822102   8.3199277  49.4346529  24.8839579
   7.3749419  49.4375182  26.0077268  14.6096236  49.8962346  20.1266966
  13.8851652  50.1167275  19.5358040  15.0458134  50.7704772  20.1894868
  22.1188169  59.8165591  20.1598035  21.1988373  59.4738110  20.0434286
  22.2253330  59.5397560  21.1049043  14.9790331  60.2209639  17.7148154
  14.4621737  59.4728134  18.1415699  15.5896053  59.7299225  17.1714329
   9.4934069  50.9345839  24.6029072   9.5365388  50.6792313  23.6479301
   9.2096242  51.8500074  24.5055475  16.1798655  56.9427769  19.8452056
  15.2158898  56.9780377  19.5488888  16.5108506  56.5787049  18.9978678
  13.8164151  42.1650673   7.6637684  13.6219334  43.1369709   7.9400860
  14.6654889  42.3924967   7.2849478  -1.3452762  55.8983966  23.3611987
  -0.4713939  56.1734635  23.6145802  -1.4206333  56.2381151  22.4387133
   7.7424564  64.5008879  20.3047398   7.3516026  64.0524848  19.4759003
   8.6514370  64.2397288  20.1933135  -2.7399124  59.5067558  23.8493261
  -2.8193697  59.7720500  24.7891468  -1.7171600  59.4900509  23.7932729
  17.2554164  49.1151122  11.1097113  17.5711929  49.8688782  11.5987486
  16.2883361  49.1505415  11.1571636   6.9064920  40.1166947  12.6512410
   7.2168974  39.2548645  13.0067124   7.0811600  40.7409902  13.3975272
   7.8524197  56.8327283  35.8260841   8.1067384  56.0231794  35.3144387
   7.0729380  56.4974220  36.3671500   7.1304011  72.3971882  15.6665219
   7.4249554  71.6684899  15.0981067   6.4011261  71.8887666  16.1364980
   7.0796177  56.4589064  42.1546222   6.5459390  56.2250036  41.3379170
   7.4343794  57.3024623  41.8771427  -6.1442264  68.7988417  21.5494268
  -6.3898662  69.6327863  22.0834366  -6.5677461  69.0903632  20.6990902
  14.4270240  47.6072929   8.5021126  14.5138440  47.6151786   9.4591606
  13.5168700  47.9120945   8.3700817   5.2558323  38.3189557  11.3868511
   5.8871401  37.9288669  10.7128381   5.8358109  38.9186610  11.8991930
   8.5345734  48.8952234  12.6447298   8.5266604  47.9253983  12.6186554
   7.6520066  49.1342828  12.2678540   8.7209394  44.9694717   8.1708138
   7.8746373  45.1063079   7.7303398   8.9628161  44.0551820   7.8537007
   6.5779142  57.1007296  -3.7377513   6.0829389  57.3488254  -4.5538378
   5.8981983  56.8537755  -3.0800442  -0.3398060  46.4238661  10.5474340
  -0.4785253  47.2941814  10.1263472   0.4583676  46.6304910  11.1254097
   3.1788888  57.5742076  15.7054439   4.0584947  57.0566414  15.7654166
   2.9413780  57.6070205  16.6153886  10.1456073  52.2312768  12.9163002
   9.6666772  52.8062472  13.5441995  10.2417998  51.4082933  13.4202238
  14.6133531  47.1545154  11.1462880  15.0311728  46.4126368  11.6879980
  14.4697738  47.8138387  11.8763817   0.4519807  47.2309463  16.1930044
  -0.4261416  47.5620517  16.3792607   0.2426652  46.3821508  15.6347807
   0.7429733  59.4496502   8.6712908   0.1513424  60.1573698   8.9056519
   0.2982223  59.0472374   7.9228532  10.7371477  56.0736020  16.1290847
  10.6181081  56.7469398  15.4184232  10.8631756  56.6891814  16.8955817
  11.2896540  59.5227890  24.1047392  11.4371552  59.3996764  25.1053016
  10.2913246  59.6867412  24.1619959  18.0425388  51.0913869  12.8111514
  17.5952663  51.9600807  13.0311094  18.2808031  50.8843367  13.7696954
  -3.8722368  49.1805089  14.7191917  -3.1207870  48.5837984  14.9359202
  -4.6077882  48.5501773  14.7539691  14.1875449  51.0507735  10.9113618
  14.2887926  52.0371512  10.7610375  14.0442480  51.0707242  11.8940894
   5.4007935  51.6301571  14.7191228   4.5324382  51.8957450  14.8609756
   5.5655935  51.9044449  13.8179314  15.5270622  58.1503336   5.9495518
  15.3959944  57.6435057   5.1065097  16.4512776  58.4378214   5.7720329
   3.2875587  49.6498377  17.3395983   4.0804014  49.3879443  17.8358182
   2.6758632  49.8766104  18.0617969  10.3072670  56.5343355   9.4690184
  10.2689495  55.6791563   9.9212306   9.5034414  56.4754970   8.8562875
  14.4136760  70.6170931  22.9286290  13.6078023  71.1544745  22.9557445
  14.1105817  69.9085845  22.2991521  29.9856276  60.2482396  18.9510284
  30.8421067  59.9701664  18.5295545  30.3191605  60.7671901  19.6718961
   4.4717945  42.0960401  23.7586729   5.4497186  42.2751214  23.7298353
   4.2759592  42.3500586  24.6862794  13.6417256  56.7556377  25.1937028
  14.0936279  56.6953230  24.3565758  14.4108268  56.8812598  25.7698168
  16.8261897  58.9342689  22.3841859  16.3619853  58.3489681  21.7947130
  17.7256223  58.5249348  22.5364696  17.1228379  56.1867175  17.4859359
  17.4594233  56.2592790  16.5573841  16.1186369  56.1524486  17.2727270
   2.8430866  61.6064782  14.7724803   2.8574367  62.5398003  14.9274918
   3.7958994  61.3237947  14.9338561   1.9255408  56.5874978  23.2342109
   1.4958237  56.1049347  23.9240218   2.7723053  56.0515010  23.1460473
  17.0480931  71.1323549  23.2755859  16.1104250  71.1257807  23.0130564
  17.5049291  71.4695768  22.5100177   6.7818958  56.5822449  23.6051215
   6.8294768  57.0212493  24.4503221   7.3403129  57.2414600  23.0675126
   1.3365096  59.6224106  14.0064615   1.8643361  60.3684066  14.3733821
   2.1044821  59.0538930  13.7458858   9.6486890  50.9193556  10.4061209
  10.6174488  50.7639726  10.4233079   9.4230470  50.2908314  11.1370441
  19.1158164  60.1223944  17.7179236  19.2940194  60.8180537  18.4068458
  19.3179397  59.3145670  18.2516660  -3.7144284  57.6713655  21.7890643
  -3.9610526  56.9337600  22.4047889  -3.1400491  58.2185517  22.4226082
   4.1014225  56.0620973  18.9832900   3.5020294  55.6548018  18.3725857
   4.6096464  55.3101607  19.3473353  -0.3396982  59.0918644  23.0044238
   0.5550929  59.2423228  23.2740021  -0.2645791  59.0251880  22.0494737
   9.9820864  54.9650432  21.7844755  10.0079586  55.7159498  21.0966676
   9.3637346  54.4259792  21.3172935  11.1978846  74.0667286  25.4529381
  11.9104693  74.4844113  25.9490746  10.9504638  73.2809584  25.8951413
  11.9425437  49.6369938  10.3318350  11.9602800  49.2421893   9.4325783
  12.8013805  50.1033315  10.3290100   4.4701208  49.8029813  25.4865378
   5.2250900  50.3329401  25.7592845   3.8124304  50.5038790  25.3116087
   7.9240395  58.5689242  22.2583209   8.8191996  58.6079953  21.9019087
   8.0700408  59.2293309  23.0049257   9.7265149  61.8412726  20.7624657
   9.2016974  61.9310989  21.5350035  10.4137692  61.1963484  21.0306629
  26.7560301  65.3825554  32.3063213  27.1495170  65.8479225  33.0975397
  26.0964985  66.0621305  32.0320005  10.3463025  64.0834687  14.7805300
   9.5062042  64.4316493  15.1667636  10.3154689  63.1693406  15.0278676
  10.8335829  57.6274867  28.5014808  11.3647692  58.0649963  29.2554927
  11.2535388  58.1921061  27.7952538   3.8776226  39.0668955  28.1917257
   2.9325411  39.3374802  28.0045368   3.7627732  38.0973857  28.3412122
   7.6158347  65.7645612  22.5639935   7.1867326  65.1825131  23.2789794
   7.6184191  65.0896732  21.8227503  10.7373097  47.5579747  16.4992416
  10.7866936  47.0366449  17.3301002  10.9164324  48.4167760  16.8715067
  19.7910542  58.3655917  19.8011735  19.2494766  58.0595647  20.5831652
  19.8105674  57.5430097  19.2764351   0.1869710  52.1593227  13.3057256
  -0.0061671  51.5559687  13.9952166  -0.2127248  51.7625378  12.5541604
  14.6854596  53.0555380  17.6059652  15.1233889  52.7866327  18.4421475
  14.6990525  54.0497114  17.7019748   8.5944451  46.2330155  12.9681022
   8.6711110  45.5621898  12.2347698   9.5636606  46.1253833  13.2603388
   8.6564174  52.5941915  20.1108585   8.2023061  52.1281657  20.8756830
   9.3239337  51.8164478  19.9788133   6.5778493  58.6036267  10.4180640
   7.4467693  58.5673292  10.0937235   6.6540067  59.4355573  11.0167014
   8.9214116  35.7817443   9.7098379   9.3441683  36.0327991   8.8593876
   9.3891340  36.3180327  10.3801049  11.8726984  57.9241592  -0.2288668
  12.2688715  58.7628129  -0.6740280  12.3673626  57.2526561  -0.7220281
   9.8701108  68.0488755   1.1123117   9.3061351  68.6912662   0.6313769
  10.7891242  68.3233735   0.8528897  -5.1949100  67.4846866  23.9974603
  -6.0527872  67.0772999  24.2466156  -5.3604155  67.9244425  23.1387642
   5.5655523  45.1182014  30.4327710   5.7652261  44.6422217  31.3083780
   6.1854141  44.6560049  29.8592280  19.6709887  55.7913332  18.5730751
  19.6694784  55.0015041  19.1441077  18.7597698  55.7019982  18.2199035
  15.3621737  59.6774039  24.6888091  15.8287463  59.6766025  23.8705484
  15.9279168  59.2620434  25.3330511   6.7506482  51.2209925  26.0322582
   6.4933531  51.4753175  26.9373423   6.6491337  52.0250631  25.5484760
   8.8539547  50.1458134  15.2895991   7.8460404  50.1538161  15.2684493
   9.0164493  49.6882274  14.4434535  13.2182130  64.5457010  13.9027003
  13.9211468  63.9527412  14.2526137  12.4443072  64.1434846  14.2682897
  14.2999716  55.2258927  22.5156590  15.1688420  55.3459489  22.0740763
  13.8539411  56.0758001  22.4040920  12.7837745  51.1995486  18.6101816
  13.4346363  51.8772748  18.3174257  12.1429162  51.2608843  17.8896910
   7.5223695  40.4723103  20.5321019   8.1052438  40.5032140  21.3259598
   6.7662418  39.9438532  20.9269541   8.7491122  42.1258888  17.8789754
   9.3066268  42.2901777  18.7005225   9.2741328  42.4161580  17.1550721
  19.1868228  53.7031225  16.2601403  18.6548878  54.5189196  16.3793263
  19.7111251  53.9620166  15.4670673   6.4712110  43.2432664  16.8209439
   6.3291985  44.1746216  17.0766563   6.7968657  42.9055253  17.6871118
  18.6662970  52.0991540  18.5317713  19.1684455  52.6686849  17.8489450
  18.9774053  52.5920038  19.3411241   8.3080959  49.1631489  19.5487162
   8.3268715  48.3072360  19.1084825   7.5198432  49.5726513  19.2001556
   4.0242373  50.1579476  29.1484836   3.5985466  49.4071599  28.7143179
   4.2003223  49.7841270  30.0680479  21.1286905  47.2112008  13.4217960
  20.4545258  47.9599831  13.3053848  20.7885938  46.7099878  12.6391748
  10.2066721  47.3427528  23.0823924  10.1278651  48.2531724  22.6200013
   9.2280533  47.1142254  22.9472415   7.0764550  58.2235923  26.0094027
   6.2230575  58.7092845  26.2124552   7.4762348  58.2485361  26.8963133
 -10.0992001  48.7641804   7.1533142 -10.3089189  47.9519361   7.6135389
 -10.6267596  48.6722804   6.3367257  -0.8601090  36.9502009   8.7283276
  -1.7027634  36.5360625   8.4007349  -1.0897598  37.1076938   9.6422820
  -4.9581373  56.9096236  33.1557149  -5.2607598  55.9806288  33.1210538
  -5.7761370  57.4085444  33.1973443  13.6553476  54.7290268   3.5300599
  13.3982156  54.0209935   4.0769841  12.9122628  54.7990538   2.8916362
   5.2176375  46.8528061  15.5454578   5.5827079  47.7351471  15.7173242
   4.2733661  47.0112659  15.3702200   2.0935547  59.3910898  24.2241035
   2.3106573  58.4310119  23.9992317   2.8653144  59.8459256  23.7948088
  17.9668207  44.9185283   8.0542424  18.1261552  45.7431499   8.6139795
  17.3695579  44.4594376   8.6645718   6.4783365  61.0279093  11.9015291
   6.9532214  60.8075567  12.7415370   6.6412159  61.9938505  11.8917097
  17.9981983  56.2988941  15.0064708  18.9202840  56.5880452  14.6838187
  17.7326862  55.8608871  14.1928815  13.9649775  53.6878493  10.3111477
  13.2674788  53.9069965   9.6466878  13.7639357  54.2530823  11.0687566
  11.0889972  46.2383136  18.8498940  11.4081385  45.4208791  19.1532715
  10.2430377  46.4027338  19.2219495  22.7692678  64.4604069  21.1878636
  23.2860155  63.8291906  20.6349699  22.1866277  63.7530804  21.6133971
   4.3706478  56.1422293  26.9050226   5.1901074  55.9272693  27.3487270
   3.8929260  56.6919138  27.5452921   2.6823095  51.6162156  15.6183580
   1.9218258  51.0433931  15.6100576   3.1712404  51.2500187  16.4116155
  19.7888643  73.9538948  17.8480774  19.7908216  73.5526837  16.9829463
  19.0594104  74.5845924  17.8388638  14.9584752  66.5769335  14.2504566
  14.3815910  65.7944596  14.0852433  14.3137212  67.1126316  14.7846143
  19.6277507  74.0925301  20.9312297  19.6748165  73.6980411  20.0449158
  18.6264095  74.1046569  21.0112206   9.5607167  61.9959505  17.9247865
   9.8340424  61.5679127  18.7660644  10.2367137  61.4798539  17.3447475
  31.1338559  74.2293226  22.9271165  30.1728044  74.5417997  23.0226071
  31.5585659  75.0042104  22.5981876  29.3215252  72.0413335  13.6982299
  29.0595213  72.6892544  14.4073760  28.4935288  72.0650372  13.2337321
  11.9927062  60.1302530  20.7713250  12.4957186  59.5509975  20.1386040
  12.4191979  60.9849470  20.5243575  17.4957291  83.5934560  19.6140871
  17.6533861  84.4229686  20.0125986  18.2474321  83.4116523  19.0752728
  33.4960456  68.6492499  16.5241577  32.6391623  68.9721120  16.8552087
  33.5456351  67.7892204  17.0956082   7.6773493  65.4014415   4.7121147
   8.2041424  66.2441679   4.5133730   7.6571157  65.0882262   3.7851072
  17.3432306  71.7574217  19.7179115  17.3852177  71.7119903  18.7692304
  16.6928506  71.0018837  19.8838644  23.7582682  61.9725364  -2.8265832
  24.4869931  62.2146952  -3.4414762  24.1459152  62.3438644  -1.9962036
   8.3373566  69.6036563  37.7171508   7.8513234  69.3664250  36.8645618
   8.7358530  70.4501087  37.4009914   8.8769262  78.5911509  27.1588899
   8.7362118  77.7450620  27.6290632   9.4694308  78.2283575  26.4279976
  14.8474137  75.6509725  21.1780991  14.6943561  76.5323291  20.7782077
  14.2294164  75.7369177  21.9381097  12.9391776  79.2518404  10.9424586
  12.7735720  79.7214827  10.0959984  12.1026638  79.4072295  11.3932356
   9.4750143  64.6081593  18.0771189   8.8157546  64.7656778  17.3498402
   9.5095154  63.6434114  18.1483657   8.7662779  74.6218820  24.2966021
   9.0634869  75.4983168  23.8620948   9.6266422  74.4262056  24.7478209
  30.1066704  66.1540883  29.4323435  30.4284992  66.8682667  28.8677919
  30.8988759  65.7745192  29.8438122  17.2506675  63.7097972  12.4463650
  16.6971777  63.7147444  11.6168676  18.1215070  63.4527136  12.0363929
   9.4349929  53.8150716  15.4849980   9.8548516  54.6674772  15.8307332
   8.4869025  54.1151250  15.5424310  14.6106215  74.8774442  17.0420520
  14.9858976  75.1373699  16.2069064  13.8360550  75.4560200  17.0439016
   8.7507316  80.0993015  17.4278637   8.4863893  80.2680320  18.3935143
   7.9165531  79.9255157  17.0459926  49.5460451  62.6326853  11.7961975
  50.1384416  62.7476043  12.5490168  48.7270565  63.0103268  12.1476260
   5.1432628  68.4933777  40.2047470   5.5879960  69.2761253  39.7988592
   5.9685053  67.9855637  40.4526166  18.1118970  66.2656117  34.2669685
  18.2930930  67.2090182  34.2188399  17.1990871  66.2144683  33.9928987
   0.2217873  59.4001788  20.2081013  -0.6872623  59.1083751  19.9923431
   0.5855376  59.4588761  19.2840386   4.8519680  60.6985623  16.3096868
   5.7802127  60.9300865  16.3687481   4.8400499  59.9003417  16.9186441
  28.1127871  71.3425650  17.4701679  27.5852489  71.2385567  16.5626509
  27.5856115  70.6120486  17.9155596  11.5786964  58.6168201  10.7043200
  10.9371717  57.9440331  10.4403807  11.3643233  58.7805915  11.6511096
   8.5815638  67.9461179  21.2357745   8.3378379  67.2736645  21.8847319
   9.2169570  67.3918032  20.6544296  20.4237284  57.4507767  14.5457234
  20.5408942  58.3853874  14.8502958  21.2843722  57.0565403  14.9190968
  14.9034266  68.3115170   7.8694240  14.9594184  67.5978633   7.2763517
  15.5849109  68.9677664   7.4682814  29.2839633  69.1259352   4.1752174
  30.2164735  68.9330722   3.9048037  28.8169829  68.7666195   3.3782877
  18.6924939  67.0617533  19.1755029  19.5385184  66.4784263  19.0844167
  18.6658073  67.1270909  20.1311543  -2.4809323  58.9347214  19.5863923
  -3.0915322  59.5043072  20.1035707  -2.8685150  58.0688211  19.8042361
  24.4631666  63.7670327  23.9542121  24.0211318  64.6548450  23.9610393
  25.1537598  63.9321824  23.2924049   6.0734838  61.0534836   7.7297318
   5.7273555  61.9341612   7.9470004   6.7065584  60.8891414   8.4130272
  16.7322667  60.9738056   8.0976893  17.0874884  60.1468711   8.4660350
  17.2734106  61.6500119   8.5754155   3.0797342  73.7437682  -0.0690291
   3.6463081  73.2419925  -0.6814025   3.0688903  74.5871935  -0.5138864
  22.3666887  72.6725203  22.8465192  22.3018617  73.5800421  23.1761192
  21.9693537  72.2269744  23.6644577  26.3539901  69.5730922  18.8445626
  26.5591076  68.7835724  19.3771353  25.7736616  69.2488500  18.1664486
  23.6096165  62.2329631  11.9061016  23.9959799  61.8067821  11.1254346
  23.3483167  61.3820712  12.4023139   8.1872259  70.5006630  21.7895238
   8.2918856  69.5184523  21.5627115   8.1750646  70.3741158  22.8079443
  26.7142968  61.0016270  22.4739978  27.0457210  61.9214276  22.4433121
  27.6027142  60.5323652  22.4612201  27.9960817  67.1434659   9.7177750
  28.7908398  66.7718275   9.2788914  28.5178266  67.9459381  10.1178488
   1.9842747  64.5974522  16.2865597   1.7761765  63.7314790  16.6066944
   2.3311734  65.0890049  17.0838227  17.5228089  75.6117744  17.5188547
  17.6927788  75.1292917  16.7273970  16.5449551  75.5995528  17.6210151
  16.3631817  71.9656367  28.4832084  17.2329032  72.2596648  28.8573014
  16.6163871  71.0985140  28.1383659  13.0574380  70.7576516  10.0012141
  13.6194748  71.3952849   9.4439303  12.3511739  71.3561157  10.2309139
  12.7799732  66.6204195  25.1491627  13.4897701  66.0639907  24.7387454
  12.0909038  66.4688915  24.4625605  22.1878314  74.8297448  32.2314058
  22.5245122  75.7532097  32.3292442  22.9507377  74.3863172  31.8813423
  22.4194834  70.4436376  31.4148341  22.8203454  70.4437543  30.5558548
  23.0241379  70.9878098  31.9409563  16.4590556  67.2813638   9.8678356
  16.0658852  67.8294010   9.1636459  16.2763712  67.6995099  10.6905730
  15.2325632  71.8824552  25.6845529  14.5682093  71.7930781  24.9660221
  15.8365697  72.5212904  25.2153828   2.1963044  67.6391382  22.6174484
   1.5960488  68.3802191  22.9287390   2.4994783  68.0186976  21.7804227
  28.2112551  75.4742199  22.9366362  27.5449293  76.1218142  22.5572881
  27.5983474  74.8327400  23.3348004   0.8216329  55.0271640  25.2423612
   0.0318579  54.8390930  25.7711578   1.4847074  54.5111753  25.6791756
  14.4280774  71.2335843  17.9253454  15.3482193  71.1199118  17.8958047
  14.2950692  71.8857493  18.6373946  15.4068695  62.5726302  19.0780408
  15.1721839  61.6712980  18.8528429  15.9064809  62.3866900  19.9458670
  13.4799034  57.1147026  14.7763338  12.6254981  57.5036962  14.5836773
  14.0853045  57.7970746  14.4663537  18.0045363  76.1937380  23.1038585
  18.8880458  75.8570756  22.9360841  17.5108235  75.5264269  22.5833661
  18.6508318  72.1893346   4.0067997  19.2396128  72.7348423   3.4852089
  19.2329982  71.7182300   4.5818743  16.6780439  64.0104266  22.3672941
  16.8958802  63.1598639  21.9469851  17.6067559  64.3200976  22.5311683
  26.0302557  80.3824780  15.5746049  26.9231462  79.9377988  15.6150397
  25.8098676  80.4237544  16.5201240  14.2897675  65.1443347  -0.4137420
  14.2262641  65.8078596  -1.1797908  14.4553428  64.3600788  -0.9336170
  13.7591005  61.2816981  15.5420428  14.5217114  61.8218998  15.2311472
  14.1304802  60.9603447  16.4243682  16.0451911  64.5416280  43.8862941
  16.4048698  64.4302594  42.9849074  16.4938982  63.8719517  44.4328596
   5.1869806  61.9595200  25.1668943   4.6097292  62.6702467  25.4737285
   4.8840577  61.1915027  25.6439344  14.5191957  72.0071258  32.3218385
  14.4267329  72.3240322  31.3788596  14.0905752  71.1281994  32.1576809
   8.8781016  61.3919746  13.7400963   9.2544327  61.7845820  12.9160936
   9.2835729  60.5048072  13.6556684   4.3059960  61.7439767  28.7867700
   4.0579045  61.3624652  29.6770518   3.5952007  62.3837636  28.7022145
   2.7892061  57.7741925  28.8981088   2.4197955  56.8737186  29.2684611
   3.1394184  58.1044226  29.7456823  13.3092744  55.1319352  12.9291213
  13.8642572  54.4897378  13.3324501  13.1768805  55.7705000  13.7040745
  23.1674305  70.8456152  12.8672374  23.0627562  69.9616460  13.3083776
  24.1333100  70.8111509  12.6591953   7.9258457  67.6509244  10.8179523
   7.5046295  67.0588896  10.1683824   8.8807540  67.5458930  10.5706927
  25.6756839  61.2735580   5.8333393  25.6865594  62.0577847   5.2646937
  24.9147361  60.7822006   5.4830895  12.7593496  69.4266979  20.9699672
  12.0588931  68.9355308  21.4052903  12.3659187  70.2758932  20.8580219
   8.9916229  61.9373677   8.6063910   8.7153569  62.3609058   7.7916802
   9.3044039  61.0584919   8.3749948  14.6282975  59.7949118  13.4295075
  13.8568882  60.1260680  12.8526214  14.3675633  60.2326550  14.2845238
  24.7756126  69.0958463   6.7529868  25.6913084  68.7906191   6.7415448
  24.7612118  69.7741710   7.4552254   4.9121302  59.5518597  27.0207678
   4.0605172  59.2050276  27.2197853   4.9558459  60.3715064  27.5549129
  19.9728263  75.0232567  10.8363695  20.2723649  75.0525056   9.9277721
  20.2424692  75.8591800  11.2294849  17.7878398  71.6145494  14.8578513
  17.4826931  72.4954345  14.6795175  16.9900150  71.0943631  14.8854546
  15.4460314  62.8456528  27.6207055  14.9306942  62.8149101  26.8243438
  16.3400911  62.4527392  27.3250783  14.0121145  68.5065010  15.7473800
  13.0227803  68.4181297  15.8126878  14.2205400  68.3094529  16.6747577
  28.7431929  69.0589394  11.8091420  29.6761749  69.2914407  11.6348725
  28.3340776  69.9559140  11.8064100   8.2702726  58.3278901  28.3871506
   8.2182925  59.0006451  29.1167924   9.2249935  58.0335196  28.4784197
  22.8418099  66.3147785  14.9294072  22.8011873  65.6037252  14.3063771
  23.2976411  67.0095433  14.3805393  32.2828104  78.7057822  28.1049957
  33.2499381  78.4801863  28.1694882  32.3094273  79.4512655  27.4988393
  35.7298736  69.7743694  17.6348709  35.5918564  70.7701610  17.7868044
  34.8258677  69.5432275  17.2632095  19.9046894  58.8484277  23.6573533
  20.7252776  58.6235012  23.1491843  19.5104374  57.9628212  23.7206566
  12.9074208  58.0058829  22.6193804  12.3366284  58.6143051  23.1805005
  13.0891573  58.5601014  21.9000684  27.0450866  60.6957694  13.6416293
  28.0210121  60.5622686  13.8633435  27.0515991  60.5046406  12.6651173
   9.0405934  58.8734981  18.5510119   8.9674100  58.5332156  17.6160237
   8.9802489  59.8323468  18.2569172  22.1536119  68.2120638  21.7115761
  21.4178465  68.5099229  22.3584202  22.1915753  69.1870001  21.3092522
  23.2504868  66.5182977  17.7528923  23.0426041  66.4042696  16.8104940
  24.0806705  66.0051024  17.7781305  24.7142379  60.4180039   9.6923491
  23.9100404  59.9380444   9.5113652  24.7786664  61.0839539   8.9797062
  28.9714534  75.6575210  11.7478044  28.3867375  74.9750010  11.3935999
  28.8215493  75.6182335  12.7067986  21.9873649  70.4753137  15.8844180
  21.0435235  70.1139803  15.7713687  22.0196867  71.1657722  15.2162014
  16.7842704  74.0291485  14.3831639  15.9107232  74.4484809  14.3824111
  16.9359962  73.9916190  13.4111852   6.9402457  67.1537069  -4.0334487
   6.4802194  67.4015180  -4.8661468   7.5245092  67.9779339  -3.9582689
   7.3226194  71.8298761  19.2403481   7.7883699  71.6048716  20.0391042
   6.9427117  71.0127335  18.9172538  19.5574011  61.6894169  19.9159664
  19.8562096  62.1931166  20.7178486  19.9543948  62.3257702  19.2683252
  -0.7247878  70.5661206  42.4148717  -0.2003602  71.3152189  42.2134995
  -1.6639637  70.8946743  42.4800274  31.0938553  66.9617871   5.9104731
  30.8884840  66.7231184   5.0034764  30.2248759  66.8388895   6.3042453
  20.9162385  61.4634810   8.2692187  20.0577165  61.5344421   8.7189108
  20.9563889  62.3490566   7.8577170  18.9195909  70.2146881  12.8702286
  18.6564349  70.8884572  13.5406064  19.4168560  69.6021568  13.4887722
   6.6948481  55.9559444  28.3549832   6.3865850  55.7280322  29.2345591
   7.3594006  56.6472065  28.4716686  32.6151269  70.9184724   8.3277093
  32.9739276  71.7209858   8.6833439  32.8447217  70.2750542   9.0198852
  32.2714003  69.9225984  20.0146349  32.2833556  69.4463430  19.1504448
  31.5095513  70.4988978  19.8717237  23.9646017  57.9048556  11.2153876
  24.2429998  58.5570638  11.8968795  23.3934229  58.4400262  10.6653352
  38.8237070  70.4908307  17.6792937  38.6051927  70.3007012  18.6271326
  37.9351511  70.7574421  17.3985962  32.0045448  61.5427568  12.8859873
  32.9307631  61.8653411  12.8856245  32.0848135  60.7375970  12.3047327
  44.5000449  62.1194983  16.9527796  45.1969682  61.4669752  16.8820415
  44.7743304  62.5774008  17.7877243  11.8777052  72.1704049  20.5439740
  12.4522188  72.8795223  20.2261124  11.4782541  72.5698805  21.3163137
  23.2051422  62.6513874  27.9543979  23.3739822  62.8670165  28.8666020
  22.5257326  61.9565875  28.0212455  17.2532854  54.2436736  21.3567326
  17.2822599  54.3384530  22.3654667  18.2337000  54.2301538  21.2400976
   6.0559194  67.8680350  24.0291526   6.5144414  67.3852552  23.3437292
   6.6959721  68.5905258  24.2059044  22.3669950  70.7808295  20.9183468
  22.3879512  71.5289455  21.5699279  23.1008498  71.0984156  20.3381721
  26.6396079  79.6086281  21.4430516  26.8685645  79.3057847  22.3535781
  26.9677656  78.8917708  20.9069532   5.3651749  71.1292008  25.3890731
   5.1581705  71.5567133  24.5245554   6.2217471  70.7366207  25.1491992
  27.4963838  81.3195066  31.7986058  28.2154543  80.5932246  32.0448869
  27.0914829  80.8165670  31.0087523  22.2641703  80.2860200  18.0926338
  22.0230045  79.4477099  18.5418626  23.2249959  80.1176275  17.9188296
  31.0394880  87.4250364  27.1246957  30.9929345  88.1900574  26.4483104
  30.0617812  87.3991668  27.3148612  21.0828855  81.5419438  20.1567099
  21.8204095  82.0129651  20.6061102  21.5663014  81.0920919  19.4614357
  45.3076247  72.0257003  19.0643984  45.3022395  72.8972525  18.5595962
  44.3799304  72.0748558  19.4420528  25.6961487  85.8125881  22.9087319
  26.2994407  85.4313046  23.5608259  26.3324032  86.2451614  22.3041198
  28.1354062  83.9797350  16.6424058  27.5852728  84.1285647  15.8185672
  27.4074083  83.6061918  17.2255800  29.2521229  87.1439564  16.2996183
  29.7047303  86.3793883  16.7320481  29.1822996  86.8110705  15.3595291
  30.9086082  82.2042334  14.4404796  30.7706095  81.4339114  13.8059050
  30.9574189  82.9022814  13.7008892  13.3132796  85.5520263  11.1920240
  14.0839174  85.0094742  11.4456389  12.6052933  84.9286339  11.5249551
  15.7386321  95.0963565  14.9098902  16.1531498  94.8469455  15.7441595
  16.2046239  94.5691409  14.2686004  26.1587760  71.3494455  21.8212876
  25.8154940  71.3401428  20.8972935  25.7667746  72.2222588  22.0537282
  28.3929065  92.4568849  19.8666702  28.1633189  91.6241955  20.3905293
  27.8717523  93.1149434  20.3563222  43.9457715  82.4667563  24.0337408
  43.2267435  82.5900561  23.4415489  44.6760259  82.1681758  23.4223939
  33.7598440  74.2537638  26.2766929  33.4822693  73.4830921  26.8428743
  34.3222386  73.8430358  25.6089668  34.8424404  77.0098191  13.0052495
  34.3684921  76.3799928  12.3793829  35.5856882  77.2894341  12.4400673
  26.2860772  82.9086966  18.2783423  26.4199412  82.4758428  19.1678820
  25.3575764  83.2629013  18.4409671  35.1102193  72.8065982  11.6765688
  34.8640007  71.9823365  12.1790314  35.5561648  72.3199005  10.9311214
  35.4589766  88.5682257  11.5055248  35.8495170  87.7339103  11.8153900
  36.2314123  89.1279333  11.6267755  40.1117960  75.6339200   8.4098116
  39.6891076  76.3944240   7.9031784  39.9788676  74.9209908   7.8130634
  32.6379764  82.2137468  20.1794202  32.2105042  81.8658448  20.9718586
  31.8921086  82.7350379  19.7582776  40.8825794  83.7489368  17.5560320
  41.5041672  83.0016801  17.8367476  40.4607042  83.9131187  18.4113489
  32.2665601  75.9797959  21.2307259  32.0557257  75.2135093  20.6315488
  33.1838892  76.1577618  20.8888228   6.4704868  37.2033393  -6.0550102
   7.4024466  37.6052903  -6.2276131   6.7751756  36.3251796  -5.7457498
  10.8634959  50.6035388   6.2900141  10.7757861  51.5331421   6.0392384
  11.1783077  50.2370921   5.4543853   7.2014087  45.4000148  -0.1819080
   6.9320007  45.3347561   0.7683546   6.7889986  44.5758931  -0.5097102
   3.2093530  32.8437987  12.0235973   4.0117235  33.2124155  11.5670396
   3.0667329  31.9977839  11.7262003   4.8369027  44.4773654  10.7397463
   5.3775536  44.0507017  11.5278309   3.9468027  44.3700001  11.0867880
  10.9551327  43.0581145  10.3817312  10.1760833  43.6459313  10.4368464
  11.6298620  43.6815836  10.7668425   8.0653029  42.4114606   0.6327845
   7.5540244  41.7663950   1.1159512   7.3866364  42.5854563  -0.0657943
  -0.8683721  54.7489053  13.9575414  -0.1450761  55.3327866  13.6314954
  -0.4510878  53.8681618  13.6782218   3.3274228  46.8979281   9.4537898
   3.2549150  46.5842577  10.3635639   2.9646562  47.7977640   9.5475160
  21.3481175  54.5074546  14.2499149  21.8735886  55.1364965  13.7471607
  21.9580060  54.2041584  14.9375202   7.3642613  35.7870746   4.1159693
   6.7380361  35.0985491   4.3819276   7.1525866  35.8802882   3.2070096
   2.9788292  35.8612662   4.1830847   2.6173626  36.5298664   4.8517331
   3.2427085  36.5627213   3.5266068  -0.3082009  41.6152116  -5.4174647
  -0.5571015  42.3812024  -4.8672746   0.6244277  41.4666183  -5.0945521
   9.7689306  37.2082842   2.1644185   9.9398433  36.6969371   1.3757035
  10.1848175  36.6808595   2.8356838  10.9522320  51.5575805  16.5347559
  10.0886586  51.0865143  16.2584391  10.6882272  52.4692777  16.6309597
  10.3661431  44.3167245   1.0895492  10.5719947  44.3040835   0.1151043
   9.6174279  43.6651503   1.0541754   5.8977354  42.8580001  12.4677876
   5.3784500  42.3512936  13.1407444   6.3152260  43.4642873  13.1687181
   0.3279303  24.0858324   5.9452415   0.4579834  23.9021142   4.9477153
   1.1191289  23.6081597   6.2639127  -2.8990136  34.1684971  11.7916462
  -2.0390408  33.7910681  11.4519764  -3.3283184  33.4018667  12.1098920
  22.3199101  47.6385358  -4.3634015  22.0134261  46.8146325  -4.0511007
  22.5881398  47.4838783  -5.3131153   0.7641452  39.1254402  -1.8014515
   1.1798477  39.1249938  -2.6898620  -0.1679925  38.8951823  -2.1123511
  19.3064457  45.9379234  -0.4230916  18.4759965  45.6578053  -0.1054972
  19.0918896  46.7426917  -0.9135224  10.5196072  43.2002845  15.9213194
  11.1102651  43.8300654  15.3898489  10.0290172  43.8860750  16.4176923
  10.7350075  26.8398422  -1.3189224  10.8035244  26.5513463  -2.1949847
  11.1098886  27.7941021  -1.4063073   1.1355218  40.3731319  15.9001531
   0.6971353  39.5516459  15.5779584   2.0566890  40.1761704  15.6347447
   4.2697268  27.7533492   8.6605408   4.4975131  28.0527489   7.7846848
   5.2126528  27.5485814   8.9488770  25.6138484  46.1786962  -1.0321354
  25.7177464  46.0478905  -0.0484203  25.4550110  47.1554024  -1.0701264
   7.2093931  42.0193312  10.3825820   6.4718066  42.0295542   9.7556475
   6.7015118  42.1100866  11.2242848  19.0592842  48.1405192  -2.4933384
  19.7850535  47.7103141  -3.0007704  19.3679808  49.0420755  -2.5602428
  16.5419921  44.5438426  10.3363590  15.9628418  43.7454459  10.4148445
  16.2444523  45.0199284  11.1620958  18.2758624  47.4646028  13.1657264
  17.6416673  46.7168888  13.0753796  17.9431804  48.0403295  12.4371015
  21.6170649  43.0357553   6.4799427  21.3846728  42.2527022   5.9013607
  20.8756807  43.5893569   6.2778897  27.1594867  47.6512857   9.1288364
  27.4411373  46.6844590   9.0865509  27.5030346  47.9145166   8.2226847
  13.4862908  38.5641148  10.6003194  12.5678695  38.4392881  10.8844286
  13.8060668  39.1353989  11.3543946  20.5615480  61.7473833  -6.0784554
  21.3895353  61.6525720  -6.5515419  20.1992449  60.8248958  -6.0330575
  21.5135729  54.1702071  -0.6260283  21.2672660  54.0863885   0.3004305
  22.4370411  53.9237596  -0.6244309  15.4781154  51.7500988   7.1657767
  14.9039891  51.2022989   6.5455657  15.4282340  52.6069242   6.7353648
  32.9852959  40.4155733   2.3626217  33.8928776  40.3020655   2.7047576
  33.1226250  41.1427861   1.7174087   7.3155230  41.4313223  14.9375851
   7.0183016  42.1793087  15.4732118   8.1551585  41.2227041  15.3623137
  11.9638695  48.5619458   7.7354598  11.6169417  47.8402199   7.1634367
  11.6217264  49.3540537   7.2156328  -3.2634680  51.4785604  13.2712676
  -2.8595401  51.5836830  14.2058780  -3.6190425  50.5519876  13.4814674
  20.7572648  47.2058478  10.0449395  20.5157463  46.2848833  10.3375886
  19.8358952  47.4241372   9.6412932  18.2074828  67.0330135  -1.3072640
  17.4725837  67.5319649  -1.8167785  17.8091647  66.1276536  -1.4531727
  11.0745075  46.5481579  13.9258140  11.6809580  45.7443753  14.0058316
  11.0379024  46.7718858  14.9091166  19.4573357  59.1947545  -5.9818112
  20.4126926  58.9556215  -5.9232331  19.1643557  58.7712317  -5.1484819
  22.3296668  54.6382075   8.5488982  22.0285000  54.1678753   7.7160065
  21.6907318  55.3530410   8.6047861  14.6277901  42.6694499  11.1973407
  13.9372193  42.0808338  10.9581176  14.4405430  42.9656270  12.0845875
  26.3907944  54.2484903   2.3223872  26.9233042  55.1030989   2.3099956
  27.0616040  53.5717270   2.2142353  13.9295239  50.8431860   5.2907657
  14.3429510  50.9101879   4.4259054  13.0744299  50.4336740   5.1410700
  41.2687313  49.7160425   1.4775641  41.1679747  50.2745134   0.6418130
  41.6121279  50.3654636   2.0990124  11.5039365  33.0553362  19.4287899
  12.0836263  33.6225667  20.0293537  12.0685779  33.2092044  18.5980165
  16.2484589  45.4936362  12.8616306  15.5948315  44.7491554  13.0312521
  17.0774145  45.0297783  13.0757936  10.3113806  66.6068361  10.1684104
  10.5034842  65.7010341   9.8342681  11.1366206  67.0407109   9.8597326
  22.9936959  53.6047590  16.2300688  23.0035129  52.8663064  16.8836229
  23.8354463  54.0472837  16.4433835  21.9568964  64.2092190  12.9790718
  21.5320958  63.5766482  13.6338346  22.5988085  63.5785366  12.5422523
  23.1074766  48.0672933   9.1106031  22.1735290  47.7208875   9.3561597
  22.8970169  48.4063615   8.2222587  10.2141085  41.1902982   8.5616168
  10.7673557  41.8467227   9.0195506  10.9209620  40.6965045   8.0564448
  15.4762674  36.2763119  11.2928311  15.1027117  35.5270632  10.7035636
  15.0214587  37.0079598  10.9057090   5.1329970  46.4340762  -3.1579106
   5.0088476  45.4774328  -2.9696232   4.6698955  46.8270128  -2.3744723
  23.5720949  48.2825397  -7.4061330  24.1819243  47.9678713  -8.0855570
  24.1318888  48.9470178  -6.9701852  23.0673962  56.2684725   2.2033598
  22.2305070  55.8100410   2.4021785  23.4682605  55.5857786   1.6158841
  22.2037397  39.0347150   5.0935703  21.9637928  38.0669059   5.0150438
  23.1893278  38.8733414   5.1686412   9.4880255  58.7974407  -5.7654250
   9.3944514  59.7559527  -5.3968367   9.5571270  58.3297717  -4.9037428
  16.1562543  54.4338916  -0.9541463  16.9687218  54.1455561  -1.4134240
  15.7498629  53.5677639  -0.7566577  13.7537736  46.7378333  -0.6689239
  14.5679304  46.2227640  -0.9994497  13.5517884  46.0775427   0.0348890
  15.2552115  38.2695799   5.2223197  15.4138284  38.2890595   6.1453296
  15.0975648  39.2358479   5.0266115   9.6657824  46.1934272  -1.3517130
   8.8246299  45.8069757  -1.0570442  10.2322111  45.3705764  -1.4686247
   9.8728536  46.5827839   6.2461146   9.7153082  45.9690555   6.9470025
  10.6559742  46.1589065   5.7693155  12.9372020  39.7909367  -3.0562949
  13.4894144  39.0299541  -3.4373792  12.0119075  39.4991282  -3.2964235
   5.8719097  42.3657666   3.5016205   6.3380543  42.1564285   4.3310495
   5.1866703  41.6778318   3.4580045  23.1578745  45.1870376   6.7169141
  22.9406135  44.2991931   6.4309844  22.4918668  45.7034248   6.1383924
  10.4748050  61.4180022  -4.9784066  10.3073264  61.5180858  -4.0618011
  11.3932214  61.1356398  -4.9853215   8.6832209  44.3318902  10.7843943
   8.5330616  44.7391341   9.9191182   8.0259936  43.5502111  10.6635685
  26.5248648  36.1687116  -1.7496347  26.2855748  35.2567124  -1.9970966
  27.1922045  36.0212811  -1.0443673  16.4626741  42.9111743   6.5598749
  17.2422868  42.6730665   6.0188779  16.8725131  43.5102399   7.1736440
  17.2631771  53.4722229  13.2496030  16.4499930  53.5764183  13.8412771
  17.1520590  54.2944244  12.7528355  17.5592415  58.7446330  10.0921678
  17.3116437  58.5851969  11.0175604  17.5978186  57.8765521   9.7428867
  11.9564030  58.0718102   7.4010752  12.1332865  58.0109916   8.3587414
  12.5499259  57.4097947   7.0185618  21.2120702  59.0327221  -2.5916375
  21.7874883  58.5432539  -1.9989904  21.4645097  59.9901565  -2.4397763
  14.4674073  53.1410210  14.6628163  14.5633301  53.3604584  15.6214899
  14.2555752  52.1894975  14.7012808  13.2705841  50.6817789  14.9695105
  12.6730789  50.4086729  14.2326635  12.6252895  50.8477778  15.6346573
  24.8567579  41.8426614   8.6582182  25.7179942  41.4893197   8.9366304
  24.2867010  41.0283349   8.8078218  14.7635621  49.0362561  16.9207577
  15.4403906  48.5646264  16.3507818  14.5400643  49.8085993  16.3586546
  11.4665899  62.7838454   6.1925679  11.9999015  63.5776157   6.3626213
  10.5865551  63.1289055   6.3445676   8.2685727  53.8042182   8.7335460
   7.8763416  53.4415295   9.5353793   9.0287469  53.3117366   8.5573204
  14.2196665  44.4079022   4.8064389  15.1828685  44.5035170   4.8749057
  14.0560472  43.7005527   4.2046133  30.2339865  56.6480655   3.8630224
  30.9968875  56.5126851   3.2507533  30.4248050  57.5704114   4.1863002
  17.9009047  62.3171359  -4.8382670  18.6386660  62.0521580  -5.3803488
  18.2033178  62.0167097  -3.9270231  20.8375862  41.6730305  -3.6253507
  21.3295507  40.9589854  -4.1131892  21.5342921  42.2842671  -3.3821323
  16.4290455  45.2370118   2.6376217  17.0239045  45.7861610   3.1622355
  15.6699377  45.7750119   2.4878669  12.0890014  54.8981500   1.1025286
  11.4118130  54.2681715   0.9153891  12.8391468  54.6956273   0.5872238
  16.6055512  48.7468679  15.0804628  17.3692804  48.3137005  14.5772930
  17.1642432  49.5370427  15.3808133  11.7193359  46.4462525  -4.8479821
  11.3273464  47.1344418  -4.2646880  12.6404853  46.4461313  -4.4624653
  25.1746877  48.7521658   2.2669263  24.6280198  49.1965141   3.0214187
  25.9631068  49.2482734   2.4262822  12.2957123  44.9024475   6.4160902
  12.7598371  44.5184069   7.1856471  12.9872352  44.8016196   5.7740950
  19.7438426  66.6391262   3.0519503  20.7017985  66.3692267   3.2557549
  19.3347223  65.8315389   3.4106387  10.5803405  47.7919718   0.7616396
  10.3222588  47.2667753  -0.0268403  10.8094733  48.5911880   0.2408543
   3.3972745  46.9741208   2.1053203   3.8106697  46.9917100   2.9936780
   3.6182548  46.0784470   1.8286338  23.1808622  51.7836621   5.6617761
  23.1480596  52.4597650   4.9950302  22.3138161  51.9058967   6.0688326
  19.3154476  49.6113557   5.9291554  19.3691339  49.2810526   5.0165177
  18.4082608  49.2935623   6.1780885   9.4296727  48.1519925  -6.6419018
  10.2177855  47.5874654  -6.5394814   9.6556493  48.8565519  -5.9710649
  27.9966021  65.3311122  13.2030136  28.6918734  64.9099845  12.6988206
  27.5265684  64.6171186  13.6239526  16.9117832  55.8881695  11.9701405
  16.5394760  56.7646436  12.1516131  16.9777943  55.9165565  11.0327778
  22.3489736  63.5181041   7.2430103  23.0376039  63.8819923   6.6659665
  22.9195565  63.0610039   7.9244943  11.3841200  34.3613959   1.8654663
  10.7353741  33.6790258   1.8454690  12.2249695  33.8299877   1.8021712
  20.8372255  54.5568479  -3.3118779  21.4167786  53.8248233  -3.6562526
  20.9870569  54.4051102  -2.3399679  13.8575321  37.7534618   7.9948762
  13.8499835  36.7687910   7.8569962  13.7654062  37.7735429   8.9416891
  16.1703079  42.6782549  -2.6018530  16.2466262  41.8923966  -1.9918729
  16.8272590  42.4368268  -3.2713170   7.8710200  48.1413100   5.7416377
   8.6477510  47.6045387   5.8853830   7.7976052  48.6978459   6.5167732
  19.3573001  63.1003216   0.2260246  18.7459928  63.8615645   0.4242428
  19.3985949  62.6818879   1.0570064   2.7023904  43.8089069  17.0423061
   2.9453809  44.5070814  17.6613344   3.2350889  43.0441085  17.3700542
  18.1807819  53.8216479  -2.7935127  19.1213839  54.1377724  -2.8041467
  18.1739532  53.1943074  -3.5032887  24.1317749  54.3818095   0.5470797
  24.8630313  54.3431531   1.1733438  24.5654377  54.7174993  -0.2695811
   5.0624875  34.4374223   4.5707718   4.4171792  35.1575657   4.5177518
   5.3556738  34.5453329   5.5095777  30.0990636  47.9355476   4.4129221
  30.9758416  47.6152100   4.1214970  30.2351941  48.8776351   4.3462327
   5.7543186  42.5475328   6.4051256   5.2776462  42.4489396   7.2414845
   4.9327485  42.7261234   5.8484688  18.3550474  63.0806324   9.1170168
  18.3665532  64.0656005   9.0535221  18.7023794  62.9524741  10.0493430
  16.5137582  48.8815158   7.0839938  15.7484524  48.3888853   7.4961405
  16.2760416  49.7857140   7.4311067  19.7151039  53.0840909   8.6115056
  18.7478702  53.1193957   8.5946018  19.8968713  52.8300168   9.5681569
   6.9000188  45.0985914   5.7792740   6.9958462  44.1155132   6.0281694
   6.1247874  45.2393255   6.4550838  19.4017887  42.7815540   2.3425745
  19.6746606  41.9292879   1.8584122  20.2608939  43.1879752   2.3702744
  26.4465629  54.6862667  -4.2940838  26.4268071  55.4694747  -4.9266408
  27.3964265  54.7255119  -4.0409895  29.1786810  48.1825809   7.2273968
  29.3193855  47.9870602   6.3067868  29.4562057  47.3373452   7.6780001
   3.8489872  49.8597578   8.0483314   3.2544749  49.6842189   8.7655038
   4.6237630  49.2948670   8.3450878   1.8603954  46.5603567  12.3548012
   2.7475766  46.3494527  12.8185482   1.2850423  46.1129416  13.0211600
  21.6256962  46.3817854   4.7398909  21.3148477  46.4807495   3.7685131
  20.9522079  45.7341372   5.0491005  16.1193920  52.3876801  19.7394574
  17.0773612  52.1615428  19.4274031  16.3789210  53.1492247  20.3258463
   0.7433997  52.7378628   5.5043597  -0.0347806  52.9277787   6.0565462
   1.4566689  52.8779153   6.1223729  31.5637096  40.3979483   7.2330122
  32.2712859  40.2803023   7.8742106  31.6492916  41.3361475   6.9589067
  25.6221161  42.4643349   6.1986505  24.7670179  42.7077951   5.8772431
  25.3059472  42.1965890   7.1091593  19.6889357  36.6794166   0.1115439
  19.7040006  36.7294353  -0.8527048  18.6724847  36.6073374   0.2269104
  17.3954548  43.5876124   0.8798057  18.1063829  43.3344348   1.5464269
  17.0227652  44.3125910   1.4174240  25.4346193  51.5710400   0.6170339
  25.4159314  52.0154455  -0.2292977  24.4870146  51.5541824   0.8356393
   0.8223933  45.2805532   8.2501672   0.6683538  45.5878459   9.1828797
  -0.0059676  45.5549883   7.8492717  10.8989585  54.5370190  11.4700482
  11.7437577  54.4869570  12.0104572  10.5104289  53.6358203  11.7002716
   8.9197646  45.1785965  17.0205739   8.5087201  44.5378968  16.4743510
   8.4031636  45.9912899  16.9206708  22.2372345  69.0989947   3.3830354
  23.1815085  68.9139587   3.7521768  21.7966294  68.8136344   4.2245182
  28.1565424  59.0098174   9.0448720  28.3060311  58.0383569   9.2143375
  28.0497501  59.0255944   8.0578965  24.1977325  68.4735212  13.8498283
  24.5192343  68.4473707  14.7343054  25.0454953  68.4222070  13.3309512
  40.4918972  69.6904544  15.4061311  39.7863865  70.0799348  15.9803251
  39.9846465  69.6989250  14.5604227  26.2434192  65.6786696   7.4071045
  26.8747793  65.6033076   8.1481779  26.8253302  65.9438964   6.6947354
  25.6252766  53.1327233  -8.1117067  25.8311191  52.1964595  -8.3087316
  26.4443703  53.3384122  -7.5809775  36.8186892  68.8479580  -3.6399911
  35.8973794  69.0729910  -3.3377637  37.1262045  69.7030149  -3.9728952
  28.4797419  66.3011670   6.0060415  28.8766797  66.6883575   5.1628077
  28.0480293  67.0609993   6.4356152  35.8978144  72.8373351   5.3589026
  34.9402141  72.5684663   5.4835988  36.0735910  72.2702031   4.5289329
  30.5688813  66.7076121   9.1358927  30.7568200  66.2299167   9.9642316
  31.0606929  66.1489660   8.4716870  26.4894328  60.0936932  -0.1897190
  27.3171904  60.6010405  -0.2468091  26.2200067  60.0459446  -1.0908621
  33.5653456  78.1401648   6.3198968  33.4740018  78.2593226   7.3256451
  34.0087987  79.0080082   6.1293625  20.5267179  56.6952210   8.9040084
  20.5139233  56.7409471   9.8950398  19.5850796  56.4593614   8.7296275
  20.5613276  77.2130895  12.1798213  20.1852269  76.9272700  13.0642437
  20.1633095  78.1430142  12.1340347  20.6700841  73.5723013   8.4645358
  19.9696480  72.9639800   8.2958979  21.0550963  73.2009879   9.3173550
  27.6787781  49.6246452   3.1211175  27.9062888  48.7322052   2.8045218
  27.5112134  49.4650090   4.0745718   8.6953908  49.6076598   8.0543308
   9.4801201  49.7651169   7.4943491   8.9747668  50.0662079   8.8760469
  34.6736014  76.5947757  20.3589612  34.7900107  75.7229941  19.9272853
  35.1999927  77.1058752  19.6266299  26.1071026  58.2026575   3.8516057
  25.1184114  58.0824864   3.8099322  26.1965559  59.0767866   3.4448402
  18.4064410  50.6642146  15.3925125  19.3235346  50.9656333  15.6679300
  17.9329775  51.4051251  15.8555676  20.7771435  59.8806030  15.4896667
  20.0952664  59.9534066  16.2040431  21.5307461  60.0840115  16.0265569
  19.2053084  54.1078742   4.3072908  18.5399456  53.4380360   4.0633994
  19.8471482  53.4875830   4.7854959  28.4389109  70.2293108  24.7438048
  28.6279845  69.2573774  24.6395403  29.3476872  70.5491251  24.7811990
  40.1939787  74.0013437   1.3666270  40.9482755  74.3047123   1.8936936
  40.5193987  73.0912206   1.1805810  27.3397127  57.8714042  -2.3505238
  28.2321026  58.2420742  -2.1156324  26.8712050  58.7147052  -2.5126594
  27.6060645  65.1004984  16.6600752  26.7271987  64.9685966  16.9470759
  27.6482126  64.3655395  15.9522534  26.7207387  59.8280963  11.1439683
  25.9024844  59.8643871  10.6433228  27.3486249  59.6639154  10.4097323
  27.8374514  51.8702298   1.7676530  27.1005958  51.7977678   1.1142583
  27.7472524  51.0559568   2.2701036  27.1888923  50.9184234  -2.2660379
  26.6987133  50.1340942  -1.9528349  27.8120939  50.4439277  -2.9119711
  33.1770430  54.7440469  -6.0255100  33.3757167  53.8460837  -5.8023198
  33.8753473  54.9838971  -6.6562048  28.3362435  74.5707445  14.9251382
  28.0896785  75.4904767  14.6910518  27.4582953  74.1612163  14.9877205
  14.4585570  56.0348285  17.0585653  14.0979704  56.6242795  16.3485319
  13.8029301  56.2828264  17.7790940  47.9424905  57.9458863   5.2877637
  47.6432185  57.0337362   5.1044867  47.9756212  58.2608273   4.3331497
  22.6917074  51.9823504   1.4758821  22.2758794  52.7973761   1.8732972
  22.3156116  51.3264761   2.1091055  28.6454000  54.7443742   4.9524652
  29.3426562  55.3315125   4.6242509  27.9368477  55.3874424   5.1689894
  33.7149548  62.6207712  -9.7214079  33.2353805  62.6263214  -8.8489211
  33.1876610  61.9381129 -10.1827821  26.7528927  60.3640446  -3.0570515
  27.6534848  60.3557633  -3.4463299  26.3992856  61.2003277  -3.4728954
  22.0223317  56.1248236  -5.1748127  21.6548041  55.6732511  -4.3697415
  22.3528016  55.4125540  -5.7263061  26.8452060  72.6550416  -0.8345951
  27.8231566  72.7205479  -0.7686259  26.6960365  71.7003024  -0.5651409
  29.9145175  53.5948517   2.1465346  29.1755741  52.9623101   2.1065418
  29.3864583  54.3777930   2.3500356  24.5948992  58.4595137  18.2194876
  25.3682999  58.8530817  18.5763347  24.0465073  58.2900435  19.0062968
  27.0908858  68.6963540  -2.6897261  27.5733232  69.1238324  -3.4262940
  26.5574901  68.0162155  -3.2309874  33.8682060  69.2179260  10.2863068
  33.9634032  69.0167554  11.2127815  33.8197476  68.2917308   9.9092435
  20.6018421  52.0841258   6.1455225  19.9401436  51.3516454   6.0993183
  20.2711072  52.5755076   6.9575520  34.7175235  64.3234174   8.0353278
  34.3141371  64.5432641   7.1919363  34.8878713  63.3747779   8.0038657
  21.0697943  54.5783433   2.5588858  20.1846647  54.8048498   2.9787547
  21.6299806  54.4629913   3.3512234  37.2056939  67.8925676   6.4187515
  37.4977588  67.1776654   6.9175092  37.8084763  67.8200626   5.6623863
  32.2617481  56.1286160   2.1634735  32.4690785  55.1795051   2.1869640
  32.5244956  56.3289530   1.2023459  20.0654696  80.0556167   4.7986753
  20.5329308  79.7345326   5.6199402  20.6153990  80.8713549   4.6228063
  33.1380170  68.1534655   0.1177760  34.0021951  67.7435578   0.3614468
  32.7843471  67.3814746  -0.4205624  25.2218703  70.9483280   9.5649635
  25.5475511  70.9901603  10.4977676  25.1111887  70.0084166   9.4916113
  17.0366859  59.1558330  15.9200739  17.1934418  58.2793868  15.6082468
  17.8472262  59.3889637  16.3976156  42.1019245  64.7241113  20.6752034
  41.7345463  63.8943053  21.0275240  42.8737214  64.8524845  21.2241238
  15.4516217  63.2657607  14.6389159  16.2177395  63.1927702  14.0075801
  15.9288609  63.5678016  15.4562570  24.3185429  65.5286653   5.6881017
  24.8347249  65.3990826   6.5497095  23.9476574  66.3727143   5.8492151
  14.1660292  60.3384584   6.9013045  14.9497301  60.6219852   7.3932123
  14.5292471  59.4914766   6.4966013  34.6567039  62.5216608   0.0269534
  35.4119231  62.0180863  -0.3423118  33.9226536  61.8902118  -0.2671998
  43.0493479  71.7641010  26.9213732  42.8289071  71.0188974  26.3006093
  42.3409429  71.7012039  27.5589653  24.2783839  66.6463963  21.3293772
  23.7390328  65.7555036  21.2966951  23.4681245  67.2012829  21.4609293
  19.9177829  59.9814472  10.6946603  20.0268625  59.5062381  11.5204063
  19.0685688  59.7350196  10.3674999  38.1181125  68.1879684   3.3889929
  38.2090610  67.7004223   2.5479347  39.0485284  68.4190673   3.5291790
  25.3566146  81.2701671   5.8395565  26.3233845  81.2961694   5.5315051
  25.0480054  82.0715175   5.3502525  16.2720552  56.8836116   0.4845147
  16.3242391  55.9098777   0.2780953  15.6730328  57.0978216  -0.3150887
  31.8372154  64.2324508   2.9231832  31.2846413  64.9757878   3.0460471
  31.3642855  63.7008541   2.2571254  25.8222055  76.9763826  16.9779028
  25.5490112  76.8073229  16.0730539  25.1299587  76.3403117  17.4145307
  26.9955551  71.5366660   7.5658685  26.3936459  71.5778008   8.3416480
  27.8612949  71.4866645   8.0512979  25.0888581  62.5572226   8.1527713
  25.2379887  62.2356548   7.2108808  26.0178256  62.7437384   8.3741006
  22.5838826  60.1567126  17.3004835  22.2967838  60.2805426  18.2294885
  23.3556006  59.5540338  17.3777534  29.2097267  80.5963716  19.9978459
  29.1052310  81.3757640  20.5402214  29.6216187  79.9686865  20.5828913
  31.0561884  86.1198057   9.7063083  30.8186314  85.4353078  10.3361822
  31.1827377  85.6451074   8.8841499  18.9242529  55.2810947  -8.9182293
  19.9044320  55.3866079  -8.9557324  18.7620889  55.7246048  -8.0188837
  23.1243954  60.7810763   3.8177034  22.9079110  60.1618541   3.0699903
  22.1587490  60.8822022   4.0829989  20.1823057  44.6693365  10.4069888
  19.6208054  44.0301136  10.7927903  20.8696144  44.1355118   9.9328944
  30.7032030  60.7392903   7.3914285  31.1350837  61.0558197   6.6362223
  30.1251268  60.0726684   7.1265627  22.7327223  58.9196550   1.8719076
  23.3848843  59.2055345   1.2658458  22.8736643  57.9494482   1.8789744
  23.3193192  76.5993266   6.1032026  23.0745599  77.1194656   6.9154821
  24.3196157  76.6427936   6.1929562  29.1143045  64.5457164  -5.5613192
  29.2835363  63.5836794  -5.3617154  29.8119111  64.6715880  -6.2880387
  20.5554173  63.9286932   5.4187077  19.8633905  64.5374308   5.8512782
  21.0577416  63.7084043   6.2152232  25.0603200  63.5444443   4.0663585
  24.8882824  64.2961994   4.6351547  25.0583960  63.9758808   3.1850089
  20.4852062  61.5368882   3.9923837  20.3202861  62.5103990   4.1596419
  19.6401918  61.3718448   3.4633990  25.5726753  52.5693362   6.8538407
  24.7422980  52.2567347   6.4793486  25.9834121  52.9948958   6.0880699
  15.2286251  65.5059999   2.1463650  14.4063100  65.9020841   2.4885481
  15.0516928  65.6185781   1.1507271  31.5936619  64.0162016   7.5412326
  32.0763948  64.5303287   6.8748222  30.8035660  63.7535755   7.0867926
  24.8774285  64.0978286  17.0526468  25.1694061  63.3840317  17.6454326
  24.1024745  63.6713868  16.6221817  29.7805722  60.8391443  14.2846862
  30.5988021  61.2265723  13.9103314  29.6339637  61.4583402  15.0495145
  38.5021046  59.6485459   4.9002557  38.3700927  60.4970342   4.3960383
  37.8924751  59.7886680   5.6207244  23.8282436  58.1617791  15.5933946
  23.0827823  57.6579373  15.8832971  24.3830789  58.1870923  16.3919102
  43.4919658  67.3198868   3.4303050  42.9882348  67.9164030   3.9799536
  44.3492111  67.3416989   3.8626691  18.5616234  58.4730290   2.5345643
  19.1634102  58.9832635   1.8708279  18.0784680  57.8895450   1.9435354
  29.4702473  58.8984151  -1.0658663  29.0944289  59.7368122  -0.7101477
  29.5707133  58.3966831  -0.2503996  21.9859013  48.9103206   6.7375320
  21.1581913  49.1680792   6.2962661  22.0889310  47.9896000   6.5336291
  22.6109428  43.6797312  -3.1714247  22.6785424  44.4721800  -2.5947329
  23.3168592  43.8590686  -3.8254592  27.9695335  56.9844357  11.6524794
  27.5571297  57.8723499  11.4957337  27.1878275  56.4188087  11.4145461
  30.9585914  63.0658612   0.3436495  30.7142798  63.6475266  -0.4213255
  31.5130976  62.4144556  -0.1358036  29.1517406  54.2000340  -4.1826156
  29.8075007  54.9197677  -4.1062131  29.3464747  53.6720375  -3.3930436
  34.4147465  64.1149626   2.1256437  34.4667866  63.7095515   1.2740219
  33.5120843  63.8606710   2.3998546  49.6860515  63.5222457   5.5839335
  49.3155279  64.1853498   6.1314275  50.6592058  63.5483895   5.8961470
  29.2352064  61.2845803   9.5387366  29.7177012  61.3322766   8.6359656
  28.9686735  60.3435587   9.4835018  20.9998434  65.6671119  19.1839990
  21.5592939  65.5870295  19.9944120  21.5364370  66.3112609  18.6490372
  16.1889618  55.6037879  -4.1419619  15.7071032  54.7318716  -4.1850923
  16.9198364  55.3426560  -3.5526145  30.1343634  52.5849137  -1.9097615
  30.9873744  52.9905413  -1.5513031  29.7210878  52.2232483  -1.1234383
  14.3738120  62.0834567   9.5154590  15.2156723  61.7303282   9.1056098
  14.7787764  62.8513783   9.9643944  34.6489426  65.8258012  -4.8783150
  34.0728427  66.2839429  -4.2181622  34.9403758  66.5298561  -5.3976034
  34.0606117  51.2336749  -0.8672021  33.6555818  50.7083851  -1.5410776
  33.3626792  51.1885415  -0.1544500  40.5348562  69.8667330  21.9636613
  40.6367687  70.6464503  22.5626528  41.4732622  69.8582349  21.6361162
  11.5782056  71.1399783  17.7971602  12.5310391  71.3322109  17.6622334
  11.4477729  71.2911719  18.7493936  32.4952361  50.0866806  -2.6268417
  32.8673947  49.3250498  -3.1744894  31.6855814  50.2763485  -3.1921996
  20.1727179  59.5658638   0.7702995  20.2775054  60.5003376   0.4669351
  21.0360362  59.4212067   1.1121538  29.8372619  58.4781594   1.6780398
  30.4985112  57.8878213   2.0704531  30.0019815  59.3433892   2.0447766
  33.3112707  61.2263657  -4.6245653  33.7572049  61.9782562  -4.1544066
  33.8340676  60.4653549  -4.3500007  42.6816594  60.8654373   0.5292131
  43.3254315  61.5985209   0.3117448  42.2191375  60.7418039  -0.3027354
  11.3911471  59.7442767   4.5109722  10.4798028  59.5037621   4.5980680
  11.7057905  59.0821525   3.8628077  24.4116347  57.6758909  20.8660907
  25.4097614  57.6399668  20.8959205  24.2624362  56.9422514  20.1998384
  24.8246458  54.6428553   4.5124188  25.4806376  54.6913479   3.7483407
  25.3424469  55.0936033   5.1872519  25.0768336  54.2053765  12.7104320
  25.5347756  54.6793957  11.9545316  24.6024154  54.9151606  13.1507935
  31.8858122  64.5604441  10.8705804  31.0346894  64.1202512  11.0351903
  32.3960778  63.8080225  10.5420844  40.9504456  72.1024086  23.5244793
  40.5647921  72.1025308  24.4453788  40.0946751  72.4134878  23.0856252
  32.3969097  77.6908963  18.0870020  31.8980291  77.6105373  18.8802957
  32.9273103  76.8932302  18.0554371  28.1829076  73.2387133  27.7775030
  28.9523526  72.7213009  27.5085547  27.4337244  72.6433677  27.5103772
  47.3159359  63.9960096  13.3133081  47.8206606  64.7423379  13.7205769
  47.5391114  63.2962115  13.9717296  35.9499945  76.6324647   9.3866732
  35.3297094  76.1248441   9.9889993  36.2752837  75.9279709   8.8207222
  37.4472554  48.8670358   8.8912316  37.8301071  48.0427874   9.2414991
  37.2689568  49.2881716   9.7256912  30.7754185  69.2048698   9.9087651
  31.6050837  69.0544579  10.3988917  30.6781150  68.3553098   9.4390030
  33.4718783  75.5223031   7.1453280  34.1483239  75.9949348   6.6660676
  32.9120159  76.2200346   7.4471082  35.8868477  61.8200691   7.5510003
  35.4123639  61.1923900   6.9467549  36.7694884  61.3222428   7.5286924
  22.6972134  72.0191637   5.8979296  22.9024248  71.4345884   6.6940225
  21.8622046  71.6194100   5.6564562  37.5606733  73.8480802  13.4422441
  36.9694618  73.0649160  13.1545826  37.8214441  74.1899949  12.5915316
  49.7839358  70.6514969   8.1696782  49.6131475  71.1622979   8.9821038
  50.0000510  69.7549838   8.5357743  36.1845383  71.1578266   9.5432450
  35.3463486  71.3390193   9.0365237  36.2115886  70.1701202   9.3993515
  33.4452440  68.0423178   6.6300626  33.0673207  68.6512710   7.2938308
  32.6230532  67.5143863   6.4523801  36.6271828  61.6561061   3.9217770
  37.1399339  61.8948954   3.1345273  36.8380173  62.4496005   4.4649150
  29.1126680  76.5828131   7.5465089  29.2018546  76.9196283   8.4664360
  29.0900974  75.6116280   7.7395863  30.6148268  78.6877356  16.4616447
  29.8685026  78.3371911  16.9917364  31.3879806  78.2652611  16.8979870
  34.7004133  60.8024494  19.0954404  35.4770845  61.1982771  19.5721550
  34.6728514  61.4836480  18.3643061  35.8147155  75.6705908   5.2399008
  35.5890083  74.7345802   5.5389377  35.4086640  75.6560067   4.3490806
  39.3454177  64.8051807   0.7934328  38.7717227  63.9944321   0.7138355
  40.0883585  64.3987684   0.2123528  35.7414198  81.9416622   8.1495749
  36.5823637  82.3384915   8.5022550  35.0554800  82.3388831   8.7089498
  47.3325464  73.9883672  12.1638486  46.4843771  73.5911786  12.1538773
  47.8865593  73.2172559  11.9309550  55.5352403  78.5745295  10.7058738
  55.7449389  79.1197697   9.9269921  56.4026110  78.3903426  11.0905372
  27.2000601  79.8793550  18.4369099  27.8508252  79.1471660  18.1315900
  27.7954195  80.3793333  19.0202523  40.3889125  84.7653961  12.4843031
  40.8229788  83.8940313  12.4822693  39.9133227  84.6643278  13.2978833
  24.7767837  68.5979156   4.0654770  25.2350784  69.2180971   3.4679408
  24.7358492  69.1949796   4.8921619  13.7541865  44.7723447   8.5974113
  13.3796263  44.8528761   9.4697750  14.1690521  45.6038514   8.4720141
  18.8683980  45.9959250 -10.5975471  18.3569192  46.4956895 -11.2595311
  18.2808639  45.2245531 -10.4781371  30.6331122  50.5750218   4.1747788
  29.7363528  50.9412747   4.2533174  31.1322155  51.3142576   4.5932156
  25.6508113  46.1260503   1.7915064  25.2258950  45.6078378   2.4762053
  25.3065176  47.0220415   1.8860213  22.3077464  52.7372422  -4.5798956
  22.1582222  51.8306457  -5.0210774  23.2647138  52.7162299  -4.4931365
  20.0955340  40.4210295   1.7841774  20.9711535  40.3329451   1.2322809
  20.0980364  39.5443011   2.1590992  30.5981194  37.0912766 -10.1052303
  30.8031487  36.2749086  -9.6921136  29.6810789  37.1659751 -10.1453898
  36.9079458  42.9279842   0.7705880  36.9909864  43.8006964   1.1651634
  37.7049247  42.4761485   1.1894620  31.5811123  48.0351167  -1.1677831
  32.1189865  48.7183056  -1.5742818  31.4505807  48.3214613  -0.2462101
  34.2379617  32.3154673  -3.6860689  34.9990366  32.7535367  -4.1070947
  34.5012671  31.3827756  -3.7683560  17.1007070  48.3740331   2.5261452
  16.7809370  47.9291991   3.3208623  16.3568714  49.0210382   2.3385667
  26.1217208  42.2514941   2.6445000  26.5842666  42.9146454   3.1489248
  26.5493207  41.4208973   2.9055554  11.0813229  43.7153640  -1.3989288
  11.9334659  43.1978450  -1.3593132  10.5973652  43.1709945  -2.0490646
  31.8146846  40.1002410  -4.1148874  32.1690951  39.3955307  -3.5768239
  31.0878619  40.4608605  -3.5923350  14.0951924  46.8209434   3.2988500
  13.3185013  46.2512702   3.3905553  13.6196841  47.6397250   2.9885379
  17.0854852  52.7120778   3.6230951  16.7241737  52.9060664   4.5010215
  16.2956560  52.2036082   3.2344921  42.4034531  56.4274558  -0.6883710
  42.9057716  56.9724621  -1.3212323  41.6997624  56.1012407  -1.1943848
  24.0100326  49.2945569   4.7696386  23.4541502  48.9372878   5.5279591
  23.7574763  50.2706191   4.9775255  30.0589744  47.2214672  -5.7569658
  30.3903785  48.0175271  -5.4717514  29.5672690  47.5071812  -6.6072877
  36.1382053  35.7246669 -13.2713042  36.5340540  35.1148786 -12.5877813
  35.4606744  35.0779880 -13.6265553  36.7917227  26.0125480  -7.3248639
  36.7626730  25.3761099  -7.9966694  36.6023304  25.4568121  -6.4959536
  33.9376355  43.4107035 -11.9211099  33.8608909  42.5739236 -11.3858382
  34.4939861  42.9985714 -12.6445233  28.6062294  37.5729880   7.6641497
  27.8407270  37.3804342   8.2049582  28.7602035  38.5098614   7.9290017
  17.7672887  28.1380521  -0.7043601  16.8279856  28.1738180  -0.4642378
  17.7329034  27.3457048  -1.3223536  19.8488979  35.8013012   6.8734938
  19.8920992  35.0827854   7.5306986  19.0225592  35.5655366   6.4218282
  17.4069539  47.8233096  -5.6446640  16.5550642  48.3419721  -5.5686225
  18.0582804  48.5511225  -5.6451563  38.3373934  45.0746175  -4.6338942
  37.8332567  45.8118112  -4.2196242  37.8235784  44.9479986  -5.4533066
  37.8535959  62.6069006 -11.6485971  38.1688840  63.3103054 -11.0265277
  36.9087940  62.9550600 -11.7800265  40.5847256  43.7922224   4.8522455
  39.7044649  44.1308592   4.5507486  41.1508433  44.0213890   4.0390120
  45.6184085  40.6448790   6.4027641  44.7930185  40.6364756   6.8973414
  45.4012673  41.2628216   5.6484616  35.0482229  37.9703086   2.1989676
  35.2942867  38.1935390   1.2760009  35.2140278  38.9631779   2.5109315
  38.7577725  58.8007212  -9.0083922  38.3963301  58.9800560  -9.9139913
  39.2582845  59.6497513  -8.9239028  42.4465582  53.3297713  -5.0128887
  42.8514093  54.0654372  -4.5155822  41.8179186  53.7884491  -5.6068891
  29.2222895  40.6837356  -3.0545868  28.5715767  41.0437191  -3.6572247
  29.0230515  39.7162468  -3.0349764  49.2252396  46.4383089  -4.1743301
  48.5818598  46.1357257  -4.8549839  49.9474297  46.7860140  -4.8185580
  38.9490448  48.6368113   1.6614265  38.8991068  48.1956871   2.5091492
  39.7586279  49.1703072   1.7573125  19.7999237  26.4164511 -16.0693462
  19.0643120  25.8100935 -15.7304596  19.4970695  26.6952905 -16.9044036
  44.4967660  58.0467603   5.1758228  44.4427037  58.9150659   4.7294951
  45.1761833  58.2546168   5.8302956  33.8327652  43.9635932  -1.8050875
  33.8507561  44.8666708  -1.4102121  32.8776090  43.7914981  -1.7161709
  26.9676493  38.7705744  -8.8512084  27.3135819  37.9909305  -9.1928453
  26.9154539  38.6002810  -7.8710487  32.7003899  53.4685124   2.4698666
  31.7416561  53.5354288   2.2942045  32.6661701  53.0988419   3.4148129
  28.6055195  43.0801872  -1.0493831  27.9037352  43.3257943  -1.6788737
  28.2368872  42.1990683  -0.7490890  32.8678945  41.1488354  -6.6327281
  32.5738500  40.8572727  -5.7066749  32.3514923  40.4082818  -7.1442486
  38.1347116  51.1576922  -9.1274027  38.3103682  51.1655847 -10.1027337
  38.5272962  52.0161902  -8.8681040  34.4504269  44.8665512   1.2925411
  33.6034771  44.6020834   1.7257908  34.1251357  45.1054615   0.3859317
  35.8890619  58.6321195  -1.1086914  36.2015312  59.6182229  -1.1772630
  36.2188304  58.4173793  -0.1938339  35.9947876  46.6778037  -4.0730761
  35.6207189  46.7794840  -4.9256173  35.5847202  45.8235316  -3.7528289
  27.0986023  67.8366537  13.7025708  27.7677357  68.1451626  13.0293034
  27.4139058  66.8982284  13.7298607  32.8397950  59.1580753  -7.4576810
  33.6721600  58.7952347  -7.0130536  32.7744009  58.4132591  -8.1441079
  40.9461398  58.4343632  -3.2025280  40.4091575  58.8228691  -3.9292526
  41.8072431  58.3258810  -3.7097577  18.2142796  55.8267821   6.2542580
  18.4011888  56.7839262   6.0749527  18.6079591  55.4472361   5.4649304
  36.5429439  61.1717132  -1.2272729  37.2148400  61.3282500  -0.4915088
  37.2127946  61.3520232  -1.9903915  37.1179612  54.1435464  -7.0112468
  37.7085101  54.8781490  -7.3563949  36.2777139  54.5555516  -7.3977357
   0.2437258  -0.0697056   0.2389093  -0.2283163  -0.7407075   0.0098904
  -1.8417528  -0.3892540   0.3493243  -0.7683711   0.3795867   0.0799304
  -0.2475559   0.3021570  -0.0074961  -1.4175499   0.0233182   0.1280587
  -0.2568237   0.3801829   0.0905302  -0.1484005   0.5657726  -0.0919312
   0.5067205  -0.7558436  -0.3184199  -0.2865906  -0.1558483   0.4106955
   0.0218930   0.2859713   0.5236568  -0.3075804   0.0478781   0.2824415
  -0.2083078  -0.3060988   0.1414117  -0.0807357   0.0469105  -0.1582662
  -0.3013735   0.2231754  -0.3645123   1.2980118   0.6404901   0.1900762
  -0.3591241   0.0699811   0.0511474  -0.0505330   0.1576407  -0.8217739
   0.1426755  -0.0822097   0.0550073  -0.3368810   1.3536894   0.3855416
   0.8259061  -1.6785602  -0.3591538   0.2926902  -0.1334843   0.1997275
   0.1895500   0.1843055   0.1243809   0.0418281   0.0952199   0.1357159
   0.0178678  -0.0723875  -0.1695569  -0.1602308   0.0636042  -0.0929590
  -0.1016641   0.0035951  -0.1643036   0.6146231   0.8843173   0.1012463
   0.0820585  -0.2425933  -0.1934123   0.3198001  -0.9254211  -0.0425651
  -0.0513292  -0.2778413  -0.7573867  -0.9669961  -0.0690993  -0.3257809
   0.2334737   0.1384288   0.2117173  -0.8174044   0.0003517   0.8511126
   0.6889384  -0.3159842   0.9952031   0.3146616  -0.0269048   0.4409261
   0.2195483  -0.0489843  -0.2954042   0.5855790   2.0848460  -0.7671498
   0.4296403   0.2095043  -0.3058338  -0.1159548  -0.0555443  -0.3079244
  -1.1885037   0.3190705  -0.6107995   1.0075573  -0.0275763  -1.0461649
   2.1679322   0.3826119   0.2177008  -0.2648541   0.1760519  -0.2744838
   0.0144201  -0.1183536  -0.3235767   0.1343976   0.1318592  -0.1386553
  -0.4164611   0.3873237  -0.5271567  -0.4312904   0.0797588  -0.2798307
  -0.4781085   1.0061278  -0.2371794   0.6540174   0.2514561  -0.1086379
   0.1316802  -0.5849223  -0.8551969   1.3756566   0.0060037   0.7056764
  -0.2019264  -0.2062854  -0.5407328   0.0173953   0.2263479  -0.1568077
   1.1336187  -0.7611173   0.7886510   0.2310709  -0.0984303  -0.3605679
   0.4663634   0.4407358  -0.1110426   0.1587551  -0.2545135  -0.0296057
  -0.1431247  -0.5051583   0.3721295  -0.3163070  -0.2042059   0.0306506
  -0.4187289   0.0583045   0.3349880   0.2680343   0.2575755   0.1780142
  -0.6384952   0.7404075   0.7433699   0.0419581  -0.3229249   0.0101674
   0.2223139   0.1451040   0.0214940   0.0031427  -0.1145382   0.0256156
  -2.0032099   0.3467901  -0.1136086   0.0028893   0.1484938   0.0107349
   1.2754511  -0.3095131   0.7301586  -0.1953099   0.1179716  -0.1069647
  -1.3066875  -0.1237365   0.6455698  -0.1958221   0.5916027   1.1190713
  -0.1969195   0.1544674   0.1337231  -0.7284787  -1.4558992   0.0699452
   1.0238517   0.6675617  -0.6310989   0.1330198  -0.1985895   0.2628745
   0.0419389   0.8987729  -0.1293022   0.4502899   0.5187170  -0.7576693
  -0.2271347  -0.1944906  -0.1000156  -0.1625021  -0.2340616  -0.2741510
   0.4614930  -0.0709002  -0.2426919  -0.0477723  -0.0529705  -0.1137182
  -1.3423348   0.5678974  -0.2190796  -0.1250670  -0.8442442  -0.0360326
   0.0905656  -0.1429276  -0.1971029  -0.8246501  -1.0732829   0.3571839
   0.3305604   0.8559044   0.4580012   0.0199913  -0.4288959  -0.1800394
  -0.1542114   0.0871004  -0.3810902   0.0226638  -0.0766355   0.1362116
  -0.1929807   0.3087730  -0.1279174  -0.0578695  -0.2299250   0.0529069
   0.1501121   0.9589785  -0.2863455   0.4038138   0.1828173  -0.1764563
   0.4662608  -0.7479286  -0.3136649   1.4639032  -0.1771577   0.1924047
  -0.2784717   0.0119546  -0.0923890  -0.0818817   0.9319207   0.8146342
   0.3466619   0.4274257  -1.4853325   0.2163535   0.1132135   0.0933173
  -1.0822751  -0.3229176  -1.3332968  -0.4356259   0.8360234   0.8594427
   0.1211609  -0.3074968  -0.1389546   0.8659067   1.4208017   0.9614417
   0.3433905   0.6766648   0.0388164  -0.1294848   0.1859384  -0.0756396
   0.0031701   1.1065994   0.9050077   0.7206104  -0.1878645  -0.2021935
   1.1183202  -0.3863357   1.1392143  -0.4805408  -0.1642809   0.0556752
   0.1793045  -0.1390737  -0.5858650   0.0796550   0.1690814  -0.1329372
   0.1614255   1.2415122   0.7050818   0.1788634  -0.0503905  -0.0863729
   0.0988990   0.3808003   0.2527433  -0.2690527  -0.0840648  -0.0457160
   0.8122549  -0.2296997   0.0445177  -0.1898513  -0.0007975   0.7087071
  -0.0705545  -0.0193954  -0.0483070   0.7986903  -0.4810503   0.6878920
   0.2024772  -0.2353928  -0.6365952   0.2522765  -0.0572465   0.3458041
   0.9584731   0.2560811   0.4248826   0.8667007  -0.7876574  -1.1641361
  -0.1973641   0.3652061  -0.0118954   0.8882087   0.2527004  -0.0874043
  -0.0637420  -0.1628858   0.1135111  -0.0005686   0.0648004  -0.2809471
  -0.2475111   0.1526841  -0.1955435   0.5327513  -0.3205573  -0.9194374
   0.0889222   0.0554462   0.2493723   0.4200039  -0.4415873  -0.5226504
  -0.4493010   0.2100471  -0.1584425   0.0315513   0.2913914   0.1866854
  -0.3892420   0.0760565  -0.2588389   0.0275360  -0.3166924   0.3309635
   0.0598167   1.2738348  -0.4402195  -0.1595945   0.0248013  -0.5343275
  -0.2391353  -0.9686446   0.9178649  -0.0349856   0.1517309  -0.0907048
  -1.0203939   0.7605863  -0.6010337   0.8209956  -0.4688376   0.5544569
  -0.4122651   0.1964773  -0.2316024   0.4905466  -0.4168437   1.0556134
   0.3868889   0.3272292  -1.2066456  -0.2954343   0.1700869   0.1512148
   0.3615636   1.2794586   0.4131123  -0.2716661  -0.5557311  -0.0574723
  -0.2223518   0.1550434  -0.0203140  -0.4218587  -0.4808078   1.0544700
   0.1221949   0.2527938   0.1654699   0.0079370   0.2531260  -0.1007529
   0.2346007  -0.0818538  -0.3051055   0.7204765  -0.6922159  -0.5685660
   0.0655507   0.3069474   0.0751358   0.0555911   0.7587449  -0.9427182
  -0.5758334  -0.1787025  -0.4083281  -0.2081909   0.2661244   0.0383621
   0.0305345   0.1345638   0.0639617  -0.0187987  -0.1022426   0.0739399
   0.3071663   0.8184788   0.6088996   0.2484851  -0.1117967  -0.4264095
   1.1825425   0.6594334   0.7096567  -0.2395269  -0.1625568  -0.0861195
  -0.7508409  -0.3042198   0.1569526  -0.9118463   0.0930392  -0.9829550
  -0.3553387   0.0721279  -0.3261029   0.5208644   0.7162512  -1.0437938
   0.3300897   0.1149933   0.0364189   0.2282616   0.4756586   0.2052462
  -0.6217243  -0.4498577  -0.6367894   0.7187665  -0.8764841   0.3138253
  -0.0567918   0.3299574   0.1647521   1.3084976  -0.2793044  -0.3383951
  -1.1117637  -0.4050702   1.1028219  -0.4668796   0.2311157   1.4151810
   0.5237199  -0.0249747  -0.1208167  -0.0527105  -0.1494878   0.0969285
   0.0075823   0.0372031  -0.0229736  -1.2762071  -0.8447450   0.2569753
  -0.0204600  -0.1180379   0.1490871  -0.3397130  -1.3008651  -0.6496816
   0.1670438  -0.2554890  -0.1610667  -0.2038261   0.1079302  -0.4901189
  -0.0115027   0.3984287  -0.1766568   0.0411861  -1.1347561  -0.1429240
   0.3856017  -0.2677319  -0.4770065   0.2340158  -1.1108041   0.4733305
  -0.0567423  -0.1487688  -0.3296804   1.2705795   1.1033912   0.0254306
  -0.5057771  -0.0168721  -0.0520612  -0.0115966   0.0827501   0.4616179
   0.1464306   0.4106008   0.1577344   0.1423820  -1.5731372  -0.8452386
   0.4436657  -0.0888231   0.0335899  -0.2275089  -0.0311453  -1.1982542
   0.0738174  -0.2060414  -0.0588807  -0.0089642   0.2595649   0.0991853
  -0.0489548  -0.0599627  -0.1026974  -0.0968715  -0.4532073   0.2750228
  -0.1750951   0.5211000  -0.3346518  -0.3028812  -0.0196167   0.0996855
   0.2096261  -0.1739400   0.1377154  -0.2004411  -0.4313018   0.6765359
  -0.0448859   0.2710909   0.9123168  -0.1750397   0.0463140  -0.4954265
   1.2576288   0.2592624  -1.1395325  -0.7846536  -0.6274166  -0.6462416
  -0.2325627   0.1548210  -1.1772220  -0.2947441  -0.4855492   0.1057583
  -0.0100569   0.2203759  -0.2388878   0.3525143   0.0225336   0.3446648
   0.1009637   1.7179032   1.0570210   0.0571487   0.0144495  -0.1709846
   0.4327195   0.1423145   0.1436268   0.0883038   0.0969990   0.2309596
  -0.1065175   0.4021428  -0.8576561   0.4457468  -0.2700714  -0.9540861
   0.1967925   0.0484465  -0.3811662   0.8376048   0.1668789   1.2555702
  -0.3041897  -0.3295782  -0.4601501   0.0026567   0.0040110  -0.1403352
   0.3456257  -0.0129197  -0.1937088  -2.0707989   0.4239676  -0.6432339
   0.0529671  -1.1743630  -1.2692673  -0.4778400  -0.9644643  -0.3167337
  -0.4601128   0.1129346  -0.4814933  -0.1475391  -0.0399084  -0.1538090
  -0.0480619  -0.1561939  -0.0691046   0.8313072   0.2658875  -1.3101234
   0.2043337   0.1137357  -0.0296470  -1.7635466  -0.6328462  -0.6992620
  -0.1430522   0.1011969  -0.0907931  -0.8104891   0.3425300  -0.0593527
   1.0454186  -0.9037481  -0.4716968  -0.0474785  -0.2019044   0.0445162
   0.1725184   0.1189824  -0.3501680   0.0957403   0.2011111  -0.1093363
  -0.0658724   0.2126805  -0.0483340   0.2167043  -0.1044655   0.0326137
   0.0842607  -0.1854052   0.2189608  -0.8847224   0.2643374   1.0625588
  -0.4714329  -0.0598556  -0.0707368  -1.9952869  -0.3981097   0.5553211
   0.0669277  -0.2876176   0.0475988   0.3519291  -1.2312696  -0.8063770
   0.6538261   1.0588642   0.5567577  -0.1345408   0.1121127  -0.1486058
  -0.6237562  -0.2863059   0.2614688   0.1520678  -0.1049710  -0.4049699
   1.5265995  -0.7897166   1.1382251  -0.1807270  -1.0572454  -1.0180491
  -0.0526815   0.2030238   0.4099262   0.0141288  -0.0190595  -0.1942053
  -0.2810692  -1.7310434   0.7196209   0.2601494  -0.7948472  -0.6032569
  -0.6413859  -0.6854013  -0.3428366  -0.1047343   0.2650569  -0.1980593
  -0.2542738  -0.1110870  -0.0692660  -0.2082524   0.1135064  -0.0797223
  -1.1705158  -2.0397584  -1.2188176   0.3205659  -0.0693158  -0.6518347
   0.5798125  -0.2311688   1.4456415  -0.1775076  -0.1038105   0.1619213
  -0.6908436   1.5582045   0.2700258  -0.1572547  -0.2937594   0.4448630
  -0.2055674   0.1379909   0.2144083  -0.2338373   0.0047668  -0.1165883
  -0.2875429   0.0592645  -0.2647833   0.3556698   0.4407050   0.8358572
   0.1523164   0.1133146  -0.3518101  -0.1522840  -0.1572658  -0.2019786
  -0.3470440   0.0244367  -0.0811540  -1.4079670  -0.1262662   2.2299948
   0.0695281  -0.1414789   0.2402041  -0.1849757  -0.1340418   0.3352290
   0.1663590  -0.1154759  -0.2610204   0.2120502  -0.0672125   0.2323908
   0.4801319   0.6791497  -0.3409091  -0.0897379   0.1563898  -1.1528857
   0.0126027   0.1975564   0.1668836   0.9448178  -0.2992781  -0.3972322
   0.4727773   0.0007369   0.4052213   0.2167604   0.3145497  -0.2375843
  -0.2274342  -2.0884771  -0.0036741  -0.2721108  -0.9528623   1.3349536
   0.3775535  -0.1587868  -0.0886334   0.3252138  -0.0851305   0.4252650
  -0.0808613   0.2876584   0.2868802  -0.3930594  -0.0590851  -0.3208328
  -0.1554715   0.0181708   0.1555399  -0.5808556   0.4155507  -0.6145383
  -0.0785614   0.0743603   0.2253966  -0.7672240  -0.4206819  -0.2193915
   0.2506889   0.5462954  -0.6673807  -0.0938256  -0.4545525   0.1766785
   0.3329927  -0.0375259  -0.0201301  -0.0134552   0.1035655  -0.1517268
   0.9186439  -0.4489284   0.7046797  -0.2065921   0.3084260   0.3070257
  -0.9413116  -0.9798382   1.9032034  -0.2205969  -0.1061746  -0.0882079
   0.7171299  -1.1453067   1.3130647   0.2999931   0.4704668   1.4341350
   0.1068239  -0.4553864  -0.7715124  -0.0296601  -0.2274817   0.1103317
  -0.1459535  -0.0270663  -0.2575931  -0.1273326   0.0019214   0.0651401
  -0.3860986   0.3570883   0.5073959  -0.1093988   0.1043887  -0.1197982
   0.0592868  -1.0166587   1.4217288  -0.0865353   1.0081167   0.4492353
  -0.0147896   0.0075099  -0.0341859  -0.2179472  -0.0959044  -0.1857731
  -0.1799373   0.2814330   0.3583621   1.8140405  -0.2860350  -0.0191653
  -0.1842210   0.3800826   0.4849417  -0.5167450  -0.6359458  -0.5879024
  -0.2657417   0.5117609   0.2715526  -1.0191135  -0.8850244   0.4611992
   1.7700870   0.0430038   0.1090630   0.0272675  -0.1759907  -0.0228772
   0.5065518  -0.3510510  -1.8371922  -0.6283421  -0.3120758  -0.1125677
  -0.0492341  -0.0899111   0.1187692  -0.5140282   0.5969118  -0.0685276
  -1.7961785  -0.7903644   0.0845383   0.0081319   0.3972995   0.1637237
   0.1402382   0.6037119   0.4112962  -0.1555770   0.3339290   0.5162337
   0.0495042  -0.2167093   0.0804525   0.5975859   0.1344537   0.7388881
   0.4524055  -1.0934375   1.0500672   0.2428451   1.1027221  -0.9268238
  -0.0082102   0.0343123  -0.1326349   0.3115393   0.3096645  -0.1834336
  -0.0422756   0.0378596   0.1771454   1.4277900   1.2372203  -0.0811171
  -0.1664887   0.1145724  -0.2789699   0.0044060  -0.6071897  -0.1298724
  -0.1408213   0.0039286   0.3045941   0.9377899  -0.4462798  -0.7868625
  -0.1571874   0.1298363   0.2221695   1.6229972   0.4462724   0.1205411
  -1.3114973  -0.0960432   0.3103365  -0.1319116  -0.1559895   1.4305441
   0.3243684   0.0856937   0.0652452  -0.0158081  -0.6545500  -1.3238814
   0.0210652   0.6226941  -0.0219829  -0.0534414   0.1966758  -0.0725071
   0.2246834   0.0811686   0.0181718  -0.1347192   0.3262072  -0.6592187
  -0.1651888  -0.3913045  -0.0284122   0.3700770  -0.5426504  -0.4218026
   0.0066642   0.5542606  -0.4310358   0.1684463   0.5486969  -1.8364516
   1.1893260   1.2287697  -1.0644889  -0.0677048   0.3951404   0.2714117
   0.0075457   0.1407092   1.8831935   0.5970374   0.4950935  -0.0188790
  -0.3552637  -0.1901112   0.3166933   0.6191504   0.5855277   1.2345161
  -1.0334536  -1.1749943  -0.6727003   0.0569697   0.0521608   0.1927642
  -0.3357427   1.2812472   0.6803540   0.9740532   0.4842961  -0.8180066
  -0.0605874  -0.2174272   0.1805368   0.0567256   0.6742914   1.1492576
  -1.0769152  -2.4337766   0.5027103  -0.1119023   0.2381528   0.3769655
  -0.0285981   0.2275257  -0.1372359   0.1665343   0.2487998  -0.1960174
  -0.1364310   0.1207173   0.3076140   0.1617758   0.0259803  -1.0263276
   0.2261845   0.0486688  -0.2218804   1.0618043  -0.4925665  -0.6392899
   0.0598355   0.2644040   0.1123456  -0.0907288   0.7078198   1.4537704
   0.3345695  -0.2548820   0.1409213  -0.0986108   0.4641446  -0.0313198
  -0.7100198  -0.4696876  -1.0792521  -0.4650783  -0.1536243   0.8777743
   0.2829243  -0.2391709  -0.1349689   0.8764539   0.6180985   0.2410125
   0.3890545   0.8099629   0.3743651  -0.1523994   0.0996694  -0.4916630
   0.1317281   0.8008672   0.2075161   0.0982461  -0.1529206  -0.1489874
   0.0825908   0.0358109  -0.1129990   0.2878004   0.6242037  -0.6185482
  -0.5009379  -0.6282423  -0.2790865  -0.0641294  -0.0358226  -0.1518467
   0.4274013  -0.1443108  -1.4361294   0.0832237  -0.2134267  -0.6089288
  -0.2877933   0.0638038   0.2195983  -0.1391710   0.1618699   0.1397291
  -0.1373400  -0.1951551  -0.2098346  -1.6024169  -0.7254282  -0.9170115
   0.1895150   0.1595832  -0.0872736  -0.1554051   0.2838418   1.0641741
   0.0795968   0.0105869  -0.1928857  -0.6543960   0.2286181   0.9987198
   0.6542238  -0.9043709   1.2452364   0.2118418  -0.0341533   0.4073428
  -0.1832479   0.3227652   0.1397879  -0.3423694  -0.6798841   0.0273321
   0.0185175  -0.2066571   0.0805102  -0.0584025   0.0485764   0.1874987
   0.0782142   0.1578430  -0.4305300  -0.3160968   0.0298926   0.3020356
   1.0102131  -0.7624244  -2.2015800   0.0983401   0.1323158  -0.0789719
  -1.1252777  -0.5500196   0.2080901  -0.2829602  -0.5798602  -0.0760162
   0.0906393   0.4704030   0.7823068   0.1886237   0.0662653  -0.1129554
  -0.3361056  -0.2188978  -0.1950090  -0.2247841  -0.1790371  -0.0500081
   1.7113314   1.0401487  -0.5519793  -0.1026707   0.1228153  -0.1741282
   0.0865369  -1.3879601  -0.1315331  -0.0904455   0.0144521   0.1209764
   1.8927622  -0.1752505  -1.1637241   0.3461740   0.8886428   0.2011844
   0.0002467  -0.2527923   0.1865518   0.2268218   0.1120804   1.3103699
   0.2122182  -0.2858195  -0.0286861  -0.4745317  -0.9704375  -0.4480406
  -1.2908868   0.3181721  -0.6663621  -1.0605345  -1.8628963   1.6247359
  -0.1729887  -0.0584263   0.3035260   0.8228172  -0.8646209  -0.2758214
  -0.9485999   0.6613313  -0.4151948  -1.0767242  -0.4199000  -0.2834053
  -0.1166865  -0.2967358  -0.1540107  -0.0164384   0.2222169  -0.0640183
   0.0887962   0.1986289   0.0381947  -0.0237239  -0.4310772  -0.1407896
   1.0667041  -1.7579363  -0.9647306   0.7225290  -0.5103623  -0.0660671
  -0.4031238  -0.1213417  -0.0478486   0.2881892  -0.2964321  -0.1424111
   0.1672640  -0.9775651   0.2078166   0.0193482  -0.2941586   0.0957438
   0.0965425   0.5619791  -0.1605115  -1.1428219   0.5182926   0.1697668
  -0.0222692   0.2485903   0.5053086  -1.8185143   0.1378421  -0.1329958
  -0.4761393   0.1527233  -0.3122536   0.2278436  -0.2298037   0.0414845
  -0.1437874   0.0463939  -0.2017259  -0.0872402   0.5158031   0.5368758
   0.0559870   0.0141285   0.0563821  -0.4470857  -0.6333950  -0.1226196
   0.0570990   0.0790612   0.1644960  -1.7960973   0.0858099   0.9859853
   0.1426437  -0.9747587   1.4778005   0.6565664  -0.1014453  -1.2378265
  -0.0234476  -0.1952098   0.6015294  -0.0299104   0.1783526  -0.3054147
   0.1330626   0.1388556   0.2181479   1.0436035  -0.1306994  -0.2135628
  -0.2386964  -0.1022917  -0.0196060   0.8440946  -0.5255077  -0.6335121
   0.0616439   0.2417052  -0.2737750   0.2249810   0.4411792   0.1001010
   0.0118006  -0.1359264  -0.1790282  -0.7355358   0.5099241  -0.1131876
  -0.7100268   1.2829618   0.9685883   0.6506710   0.7718538   1.4401855
  -0.0276741  -0.0434755   0.0844718   0.1249220  -1.0754845   1.6090318
   0.5039728   0.3859516   0.4061090   0.4445324  -0.3067222   0.3065005
   1.8402384   0.9119269  -0.5692142   0.1989107   2.2623750  -0.6346349
   1.2336806  -0.2514096  -0.4149313  -0.0498492  -0.0133696   0.2127154
   0.2296078  -0.1501758  -0.3045505   0.3724897  -0.3868432   0.1087126
   0.6460076  -1.0035484   0.5027697  -0.0959027   0.0038909  -0.1934554
   0.1573360  -0.7108369  -0.7277569  -0.0780705   0.0636301  -0.2608179
  -1.3568873  -0.0276839  -1.2256375   0.0198225  -0.6136971  -0.5346638
  -0.6908887   0.5289459  -1.1655140   0.1695599   0.6221818  -0.4542833
  -0.4890143  -0.4816192  -1.0915602  -0.1805411   0.1988218   0.3387348
   0.8751028   0.5318378  -0.2325121   0.4920057   0.7252922  -0.4176318
   0.3403855   0.5216784  -0.6545967  -0.1010691  -0.0223704   0.0474765
  -0.3650366  -0.3644940  -0.0555662  -0.2687670   0.1565091   0.2774897
  -0.4566728  -0.3416435  -1.1537817   0.0288049  -0.1491947  -0.1586570
  -0.0819055  -0.1431979  -1.1594641  -0.1219747  -0.0903660   0.1177847
  -0.2533162  -0.1393109  -0.5608804  -0.0463522  -0.8426564  -1.0667074
  -0.1130603   0.0460486   0.0790367   1.2371419  -1.1540063   2.1578543
  -0.5579902   0.9654651   0.8214548   0.1108604   0.1805575  -0.1446423
   1.0013680  -0.2582102   0.5386335  -0.3795551   1.1187239   1.0563899
   0.0342698   0.1389161  -0.1561059  -0.1979265  -0.2055844   1.0046914
  -0.0212679  -0.0772039  -0.2581062   0.0361537  -0.2101270  -0.1815951
  -1.4222514   0.6221426   0.5352424   0.3849004   0.4589500  -0.2070250
  -0.1942493  -0.3435216  -0.1223962  -1.0949321   0.8512132  -0.2292745
  -0.1964951  -1.0297922   0.0823309  -0.2894651   0.1172553  -0.2579470
   0.3123421   0.0230926   0.1947080   0.0764141  -0.0319312  -0.1245034
   1.0416345   0.8056168   0.5089505   0.2292262   0.0720969   0.1336590
  -0.5448935   0.7163218   0.1976289   0.0964806   0.3383843  -0.0859241
  -0.1777762  -1.0433286   0.7184705   0.0447451  -0.3436522   0.8820887
  -0.2464083  -0.1171423  -0.0445434   0.3691394   0.6367810   0.7276424
   0.0930928  -0.4460605   1.2882861  -0.1874953  -0.4074571   0.4194689
   0.2787037  -0.0373580   0.1302459  -0.0712906  -0.1104260   0.3665280
  -0.1882412  -0.1932837   0.2246678   0.0091236  -0.2344933   0.2923486
  -0.2711324  -0.0249009   0.0868741   0.9462511   0.2813789   0.6340023
  -0.0435450   0.1946253  -0.0162846   0.9406791   0.1556183  -0.4104940
   0.3441387   0.7091831   0.1194408   0.9676404  -0.2987721   0.8438449
   0.4803951  -0.7335248   0.2352323  -0.4639455  -0.0764947  -0.6552631
  -0.3042327   0.1168705   0.1773664   0.3552718  -0.1566104  -0.2104875
  -0.1486270  -0.3021566  -0.0160936   0.5417019  -0.4211967   0.1013982
   0.1350881   0.2528828   0.1698759  -0.8267037   0.0704877   0.5997559
   0.2352885   0.2910199   0.0629250   0.2451708  -0.5984505  -0.4520608
   0.1306047  -0.2890931  -0.0788733   0.0743253   0.5617800   1.2346211
  -0.1146867   0.5521615   0.0846473   0.5451697   0.0667463  -1.7909395
  -0.2029659  -0.1118333   0.0553814   0.0805567   0.0111592  -0.2408030
  -0.4377921  -0.1544126   1.1910062   0.2992233  -0.0393385  -0.4352717
  -0.5281282  -0.2288494  -0.5826239  -0.8858558  -1.3981240   1.9259072
   0.0364111   0.0884419   0.5088655  -0.1027814  -0.0129086  -0.3400368
  -0.3349492  -0.3003236  -0.1219134  -0.1665043   0.0807661   0.1067760
   0.1995048  -0.3442630  -1.4322498   0.0556216   0.3525680  -0.0189902
  -2.0745373   1.3663191   0.2820370  -0.1356666  -0.3912656   0.0053243
   0.8383271   0.5529468  -2.2503380  -0.4469990   0.4214072   1.0725130
   0.2157514  -0.0532636   0.0119838  -0.2900068   0.0890034  -0.0796327
   0.0407543  -0.1552714  -0.6801504  -0.4571007  -0.4304378   0.1217397
   0.8103758  -0.2185381  -0.2164976  -0.3013459  -0.9353978   1.4893458
   0.0673214  -0.2994158  -0.0380871  -0.1080853  -1.0568776   0.5296364
   0.2396964   0.9302816  -0.9300794  -0.1013453   0.1016412   0.0325941
  -0.9348557  -0.1830703  -1.4380374  -0.4456988   0.5209924  -1.4831127
  -0.9711872  -1.0950524  -0.8713919  -0.1978055  -0.1594861   0.0420712
   0.1348185   0.1596880  -0.1257525  -0.0943893  -0.0245162   0.1115504
   0.8478789  -0.7331514  -1.0625307   0.1615837  -0.0240654   0.0904830
   0.0629598  -0.4558372   0.7093532  -0.3359015   0.0694221   0.0084975
  -0.9843795  -1.1203325  -0.5186361  -0.2598574   0.6859863   0.6164641
   0.0965153  -0.2343636  -0.0791473   1.8077189   0.2683565   0.1750744
   0.0556676   1.1348624   0.0726123   0.1090162   0.0062024   0.0907842
  -0.8672392   0.6202735  -0.6049954   0.0155424  -0.0595253   0.2329674
  -0.3459027  -0.1728300  -0.2563971  -0.7676316  -0.1829948  -0.4641741
  -0.0462674   0.4383283  -0.0248185  -0.1403199   0.0827295  -0.2459086
   0.5476440   0.2996649  -0.2507472  -0.3357064  -0.1661063  -0.7050022
  -0.0379079   0.1436350  -0.3618784  -1.2749008   1.0018742  -0.5887979
  -0.8420044  -0.6938134  -0.7799944  -0.2791655   0.1104965   0.1123895
   0.1644311  -0.1150893   0.2316600  -0.0342985   0.1601375   0.0175955
  -0.2101006   0.7942921   0.0019168  -0.3368744   0.2721488   0.1248302
   0.2273734   0.5602242   0.5816014  -0.1167256   0.2625890  -0.2402053
   0.2163842  -0.0297888   0.0931079  -0.1334405   0.3966614   0.0414368
   0.0766856  -0.2075465  -0.4524028   1.9160994  -0.8544524   1.2127041
   0.0580888  -0.1888356   0.3151908  -0.3519572  -0.1290800   1.2783163
  -0.2802270  -0.1699464   0.1393458   0.9763594  -0.3469309   0.2622877
  -0.4305618   0.2208870  -0.7641540  -0.1426979  -0.0450385  -0.3340670
  -0.3364442  -0.2485484   0.4598544   0.0202450   0.0972570   0.0873007
   0.0572904  -0.0158932  -1.7672584   0.1910807  -0.0450596   1.5105255
   0.1248815  -0.3707074  -0.7463944   0.1780593  -0.0577094   0.3279693
   2.0963549  -0.5774771  -0.5217746  -0.5640017  -1.2530190   0.7925549
  -0.0201685   0.9641351  -0.3471030   0.0399185   0.2807862  -0.0415042
   0.0025339   0.2283254   0.1058802   0.0530772   0.1943426   0.0448691
  -0.3680037   1.0784587   1.0304331   0.1600139  -0.0896869   0.1365448
  -0.2272404  -2.0733700  -1.8897360   0.0633204   0.2179847   0.1724266
   0.1700364   1.0155489  -0.4028556   0.2063143   1.2506399  -1.0215072
   0.4842925   0.1561986  -0.4073934  -0.9456995  -0.8304293   1.3440528
  -0.1975147   0.2351494   0.4388815  -0.0182889   0.2644374   0.0960832
   1.6471882  -0.1823918  -0.2317257  -2.0521025   0.2128112  -0.3810679
  -0.0204529  -0.0130609  -0.1493837   0.6858840   1.3571958   0.3491783
  -0.2589328  -0.1750571  -0.0266485   0.1122497  -0.1315249   0.0483067
  -0.4076155  -0.6036473  -1.0306360  -0.6948871  -0.6590935   0.7210542
   0.2129997  -0.1474468   0.1165429  -0.0128425   0.0063300   0.9255745
   0.1091950  -0.0676325  -0.4471325  -0.0476226  -0.0138301   0.4273987
  -0.0397941   0.2047253   0.0905030  -0.3637822   0.0178019  -0.0826850
   0.0645796  -1.7990961  -0.4159835  -0.4162521  -0.1260879   0.0499815
   0.6595913   0.8396058   0.5428807  -0.0074000   0.1214105  -0.3797983
  -1.0417474   0.4009429  -0.4373150  -0.1697891   0.1064450   0.0118462
   1.0484696  -0.1554339  -0.1296045   0.0480216  -0.1918487  -0.3944271
   0.7137967   0.0068763   1.5732527  -0.1689636  -0.2677447   0.2468334
  -0.7392882   0.1200767   0.1461481  -0.1158883  -0.0358014  -0.2511080
   0.3747021   0.2473781  -0.0308835  -0.1692700   0.0450307  -0.2195305
   0.5849624  -1.2850966  -0.9926166  -0.2180970   0.2357502   0.2431291
   0.4729272   0.4558886   0.6507708   0.0538486  -0.4016116   0.2928273
   0.5891842   0.3560066  -0.1101810   0.9377265   0.4107314   0.0836866
   0.3081940  -0.0726553  -0.1598123   0.4075063  -0.6368996   0.2498250
  -0.2422313   0.2464606  -0.2007241   0.4260273   0.7740559  -0.4493573
   0.6075724   0.3179700  -0.5381904   1.2471649   0.6155699   0.7707455
  -0.1884122   0.0300504  -0.0505819  -1.6452366   0.1601022   0.5810748
  -0.0527448  -0.5732611  -0.1322677  -0.9173679  -1.4745398  -0.2606399
  -0.1038634  -0.0465396  -0.1013633  -0.2141365  -0.0039003  -0.0643964
   0.1898339  -0.3725489   0.1698086   0.9086596   0.3221723   1.0943727
   0.1156987  -0.0481137   0.1472101  -0.0633954  -0.8587564   0.3244669
  -0.0902219   0.1564706   0.3220988  -1.0548839   1.5578084   0.3340535
  -0.1112404   0.4499562  -0.3205441  -0.1855500   0.3582101  -0.2513612
   1.0929057   0.5258677   0.0061030   0.4939346  -1.6151397  -0.9599149
   0.3020303   0.1407345  -0.0724766   0.3861620   0.9595049  -1.1400290
   1.4001504  -0.6480977  -0.2764688   0.1041296   0.1380469   0.1238508
  -0.0511964   1.5531835  -1.1756587   0.1653557  -0.0508633  -0.8847265
   2.0107663   0.3461648  -1.6313812   0.1059598  -0.3841227  -0.4591695
  -0.0301351   0.3326367   0.2000139   0.1195012  -0.0011005  -0.2865541
  -0.3725397  -0.2845113  -0.9127809   0.3596126  -0.0799414   0.2240990
   0.3815616  -0.1887013  -0.8248343  -0.1519699   0.1149776  -0.0905843
  -0.5728144  -2.1937376   0.0042238   0.6968166   1.8881515   0.7456241
  -0.2083349  -0.1890500   0.0090877  -0.9756110  -0.4938004   1.7438222
  -0.0471818  -0.2710093   0.0229397   0.9934310   1.0736775  -0.1541756
  -0.1738346   0.6647765  -0.6514984   0.8721345  -0.4934527   0.2603470
   0.3318649  -0.3681099  -0.0830342  -2.2109972   1.8242107  -0.4151687
   0.2049926   0.6365000   0.2125240  -0.3050927   0.9347221  -1.1933889
   0.3116059  -0.3404915   0.3069886  -0.1872025  -0.0151105  -0.1970133
  -0.1653434  -0.0259751  -0.0002162  -0.0427857  -1.4386566  -0.1767852
   0.4444593   0.0446699  -0.0436568  -0.0417200   0.5487703   0.8092438
   0.0553527  -0.1168887   0.0006765   0.3130731  -0.0862982  -0.8886073
   0.2185051   0.5082001  -0.9725166  -0.8313129   0.4446808  -0.3429732
   0.1605522   0.0782106   0.1120849  -0.2854336   0.2599886   0.1636484
  -0.0623366   0.0008245   0.1186095   0.3828667  -0.0826800  -0.2526097
   0.2982379   0.7261039  -0.5341052   0.0942197   0.1975842   0.1908554
   0.3005020  -0.5157877   0.0794539  -0.0596621   0.0037341  -0.6204074
  -1.0111788  -0.2204093  -0.5342619   0.0991635   0.0495013  -0.0035224
   0.5586729  -2.1083181   0.3081440  -0.7998335  -0.0602852   0.2178775
   0.1734824   0.1868900   0.2198082   0.5057579  -1.3677674  -1.3885113
   0.4419771  -0.1035207  -0.0564752  -0.1087490  -0.0863299   0.0800752
  -0.0739830   0.1418020   0.0492070   0.4720580  -0.7900964  -0.3498368
   0.0631912   0.4726116   0.2629193   0.5395687   0.6495449  -0.6477460
  -0.0568753  -0.0615652   0.1149329  -0.4780179   0.1729276  -0.0817819
   0.1850920  -0.0519734  -0.1057774   1.4668404  -1.0482245  -0.9269121
   0.6933023   0.5480965  -1.2877003  -0.5037251   0.3038403  -0.5017277
  -0.1967252  -0.4172651  -0.0670841   0.4535228  -0.2584759  -0.0422795
   0.0646376   0.0522974   0.3646116   0.1143188   0.0864457   0.1388588
   0.0060158  -0.0059318  -0.2989088   0.3197716  -0.0967689   0.0644964
   0.1391551   0.0241771  -0.5656812  -0.8670533  -0.2603782  -0.0605636
  -0.4212715  -0.0585042   0.1377307   0.9809483  -0.1016200   1.1628600
   0.9200533   0.3068911  -0.3174719  -0.0819180   0.0713737   0.3133128
  -0.5180292  -0.4108701  -0.7059937  -1.0897233   0.8330785   1.3849920
   0.2502997   0.1973708  -0.2841398  -1.3434483   0.8853422   1.6490051
   0.7617113   0.1768401   0.4439372  -0.3820428  -0.0663393  -0.4392993
  -1.6205301  -0.7390510  -0.4556765  -0.2038300   0.1053819  -0.4095247
  -0.1445147   0.1960678   0.1633374  -0.2992514   0.4968902   0.3687928
  -1.6347057   0.5041937  -1.5423317  -0.1437325   0.2345060  -0.1275741
   0.2530415   1.1764448  -0.2313338  -0.6111836  -0.5988362   0.1261506
   0.3561185  -0.0622048   0.0336045   0.4103512   0.0358360  -0.0921334
   0.0042783   0.1934362   0.2112686   0.2024526  -0.1268683  -0.4016037
  -0.1449323  -0.2878271  -0.0465131   0.9048403  -0.7757974  -1.2031445
  -0.2825164  -0.1893506   0.0919683  -0.6045926   0.1137228  -0.4343747
   0.0899089   0.5936661  -0.0492981  -1.2614570  -0.7794951   0.2193469
  -0.9025825   0.4048607   0.2739108   0.2576700  -0.2978109   0.3451226
  -0.0034420  -0.1941310  -0.0415090   0.3548209   0.8051721  -1.2649895
  -0.9556099  -0.8895758  -1.1458789   0.1375379   1.4711295  -0.6373534
  -0.1200181  -0.0370215   0.0037865   0.3413745  -0.0008590  -0.0460675
   0.1869685   0.2195217  -0.0148384  -0.4546750  -0.7368061   0.5568763
   0.2314735   0.2506190  -0.0887538   0.9832437   0.0738657   1.4779409
  -0.3422983   0.3254804   0.1003907   0.9635856   0.6170823  -0.2427442
  -0.1045158   0.2412879  -0.0826210   1.3358915   0.2702654  -0.1748856
  -0.4268233  -0.1370692   1.1022853   0.3532181   1.1651587   1.0122673
  -0.1995979  -0.0027008   0.0992967   1.2577930   0.7079197   0.3251176
   0.8948428  -1.1953138  -0.6905373   0.0871464   0.6117770   0.0534232
  -0.4066500   0.4610468   0.0792323   0.0156540  -0.0752899   0.1541941
   0.2082809  -0.1255872   0.1927428   1.0233819  -0.9811298   0.5828678
  -0.2250490   0.2373454   0.1298137   0.1066762   0.2392973  -0.3827163
   0.3793355  -0.0135199  -0.4447628  -0.7139209  -0.8177802   1.3255413
   0.1078123   1.9498790  -0.2233984   1.2507017  -0.2038944   0.0433782
  -0.0577144  -0.0329076  -0.0190157  -0.2406424   0.1161783  -0.0910763
  -0.0353243   0.0426155   0.3219032  -0.7079361   0.1301749  -1.0045050
   0.0795087   0.0789761   0.0673153  -0.4172079  -0.8096655   0.0044869
   0.3175005  -0.0427589   0.1040289  -1.6124210   0.0431519  -0.7215897
   0.4554050  -0.8736516  -0.1879423  -0.9555177   1.3418800  -0.2923987
   0.2833615  -0.3070037   0.1350191  -0.4630098   0.1426357   0.0655384
  -0.0205215   0.0555053   0.1478383   0.9826605   1.4748585  -0.8444785
  -0.5045324  -0.0387079   0.5462184  -0.5349473   0.6723871   0.0476410
   0.2810351  -0.2146364   0.3276074   1.1091723  -0.4960074  -1.5110963
  -0.8345484   0.6448684  -0.4947811  -0.1392564  -0.1172499  -0.2110517
   0.3892176   0.4166994  -0.8902197   0.3155457   1.0520876   0.9359719
  -0.1974655  -0.4565527  -0.1140626  -0.0256332   0.1609213  -0.0594321
   0.1229312   0.0550675  -0.0140100   0.0950181  -0.0038291  -0.1108176
   0.2270733  -0.2400752  -0.0963945   0.1479980  -0.1364117   0.0264516
  -0.3422634   0.8563793   0.6685080  -0.3932576   0.1574300  -0.0849671
   1.3430331   0.6842615  -1.0826080   0.0990325   0.3602202   0.1425143
  -0.5081019  -0.9713603   0.0562624  -0.5700120  -0.1489778   0.4111885
  -0.1913611  -0.1945560  -0.3575359  -0.6545689   0.7824598  -0.1232035
   0.4048830  -1.0643799   0.3222230  -0.1600419   0.0501850  -0.0778533
   0.1033232   0.0702452  -0.0342667  -0.2086014   1.4022748  -0.2355151
  -0.4047295   0.7719100   1.7170367   1.1379068  -0.5974003   0.8504941
   0.1284125   0.3271378   0.3027131   0.1464004   0.1691359  -0.1067093
  -0.0126476   0.1843631   0.0792260   0.2107445   0.5232902  -0.3819914
   0.4633236   0.3074784  -0.1088327  -0.1147624   0.8512442   0.6355251
  -0.3438051   0.1419829  -0.3599848  -0.6586286   0.2077255  -0.2582945
  -0.5451559   0.4737686   0.0612182   0.0246655   0.0274791  -0.3129912
  -0.4758636  -0.0778786   1.4191289  -1.6652765   0.3923837   1.8918258
   0.2141932  -0.2281986   0.0140887  -0.1718041   0.1287604  -0.2701391
   0.0066968   0.3177528   0.0677229  -0.0211671   0.0996746  -0.0471770
  -0.4172896   0.1565193   0.0355547  -0.2283527   0.2279220  -0.3697891
   0.8141377  -1.3510588  -0.8093707   0.5453701   0.2216103   0.2195760
   0.3911049   0.2073142  -1.7735402  -0.0090220   0.4518779  -0.1479717
   0.0595276  -0.6885405  -0.1444420  -0.1698638   0.9370411  -1.5892384
   0.1513149  -0.2082564  -0.3652471   0.0232402  -0.0542171   0.9928668
  -1.4851553  -0.5418739  -0.5056265  -0.0332140  -0.3725713   0.0130518
  -0.0942951   0.0326067   0.1888602  -0.1169092  -0.2321488   0.1917507
   0.0503365  -0.1635514  -0.0023434  -0.3026038   0.1549245   0.2153373
   0.0380927  -0.0496521   0.0430237  -0.7443016   0.0833115   1.4501271
   0.1400582   0.3984544   0.3366783  -1.8972522   0.2976221  -1.0535337
  -0.1143053   0.0142712  -0.0734892   0.0609013   0.3422862  -0.0849203
   1.2475114  -0.4230823   0.2918048   0.5855329   1.1891863   0.6272979
  -0.1455244   0.1968395  -0.1395718   0.3647778   0.0029768  -0.4250138
   0.1463639   0.0138244   0.1213699  -0.5774092  -0.8723804   0.0290932
   0.1879920   0.0589971   0.1664309  -0.4279312   0.1554498  -2.3491053
   0.1857730   0.0857100  -0.1551738  -0.2617447  -0.6607721   0.1794419
  -0.8139188   0.1287875   0.1940905   0.0265270   0.1835095   0.1334830
  -0.2190463   0.3418144   1.4650026   0.0220401   0.0662324   0.0640587
   0.4196432  -0.0943726  -0.3368758   0.0230882   0.2165134   0.2329688
  -1.0635164   0.8553555   0.0121672  -0.1490773   0.2643293   0.5482324
   0.8658959   0.0513715   0.0124032   0.0355178   0.2030783  -0.1434657
   0.5645615   0.0141671  -1.0285397  -0.2027941   0.0789403   0.0478726
   0.1602235   0.1495498   0.0355595  -0.1557304  -0.3005815   0.1391173
  -0.3983395  -1.7114734  -0.8708996   0.3066168  -0.0337362  -0.3352505
  -1.4509361   0.3689211  -1.3170188   0.1388330   0.0303811   0.4133446
  -0.3832388   0.2960146   0.1644644   0.4591397  -0.5019843   0.0566130
  -0.0680504   0.0616587  -0.2933574   0.8386617  -0.2417615   0.0578685
   0.5656508  -0.0551203  -0.4046231  -0.1435690   0.1206669  -0.0233097
  -0.2145820  -0.0068222   0.0738290   0.1988752   0.0723980   1.0214025
   0.4662611  -0.0426936   0.0910054  -0.2915453  -0.1189029  -0.3709205
  -0.3340781  -0.0104191  -0.1065018   0.0106921  -0.0334133   0.0278508
   1.6299873   0.0462338   0.6218229   0.0757379  -0.7440615   0.5767531
  -0.0196908   0.1658165  -0.1237649   0.5731557  -0.0874631  -0.7781286
   0.8029366  -1.1993001  -0.1505770   0.5718819   0.0985774  -0.1901320
  -0.1674142  -0.0891603   0.3220890   0.1919274  -0.0799417   0.3077146
  -0.2162738  -0.9333752   0.7507383  -0.1270719  -0.2466132   0.2057078
  -0.5305112  -0.0248158   0.0562267   0.9057502  -0.2429010  -0.4568792
   0.4721071  -0.0127838   0.1866790  -0.1032348   0.1853303  -0.2214933
  -0.3601727   0.3272390  -0.1243856  -0.1366001   0.1944960   0.5456935
  -0.0934479   0.1534215  -0.0326808  -0.8506048  -0.6578139   0.9587562
  -0.0803621  -0.0617005   0.0163026   0.9639223  -0.5395982  -0.9334094
  -0.8109809   0.6369646   1.2147184  -0.1304954   0.4173492   0.0246310
   0.4704187   0.4975457   1.3430488   0.3954789   0.1031826   0.0539779
   1.6850501  -0.2804605   0.6140437   0.5586479   0.1716965   0.6556634
  -0.7613310  -0.3806933  -0.7506984   0.0401277   0.0710568   0.1720577
  -0.2698080   0.6643693   0.2217660  -0.1636392  -0.3140583  -1.4472407
   0.8202456  -0.6152702   0.4622786  -0.3402647   0.0411318  -0.1386047
  -0.1025416  -0.0891829  -0.2653568  -0.0217022  -0.0271392   0.2462126
   0.1401414  -0.0008200   0.6694186   0.4376377  -0.1232498   0.1461055
   0.3572692   1.1794797  -0.2515451  -0.0054766   0.1953365  -0.0850389
   0.0209866  -0.0606963   0.2953784   0.5409556   1.0663628   0.9421052
  -0.4878482  -0.0241657   0.1812739  -0.4332299  -1.2298413  -0.9895729
   0.8741217  -0.2634727  -0.4054676  -0.0975798   0.2530871  -0.1708449
  -0.8079779   0.1510802  -0.1093225   0.3726875  -0.4094289  -0.0587315
  -0.2131139  -0.1489674   0.1279717   0.3741039   0.2558734  -0.0053486
  -0.6833550  -0.5000592   0.2131834  -0.1519261   0.0121073  -0.1786208
  -0.8076028   0.6488275  -0.1719069  -0.2015999  -0.1344960  -0.0273006
   1.9927601   0.0489644  -1.2106291   0.0398040   0.0087384   0.1433309
  -0.4193883  -0.4714362   0.1066644   0.2889677   0.9992887   0.6802887
  -0.8228402  -0.0605305   0.2075294  -0.4971873  -0.0414618   0.1846436
   0.2283127   0.8012303   0.4936226   0.3934246   0.2166581   0.1477890
  -0.2008350  -0.2540233  -0.0145196  -0.0320941  -0.8495786  -0.5698224
  -0.2697481  -1.2561208  -0.2550074  -0.4965620   0.7516360  -0.9021784
  -0.1400384  -0.0753448  -0.2514688  -0.1509290  -0.1905438  -0.0932514
  -0.2419743  -0.1363801   0.0572096   1.6351015  -0.3007116   0.1149009
   0.0174241   0.0461266   0.0615700  -0.3934285   1.5593382  -0.7139751
   0.1026052   0.2906231   0.0118182  -0.9724740  -0.5679567   0.1079313
  -0.5050902  -0.9083847  -0.6049307   0.2918538   0.1140540   0.2500851
  -0.3352016   0.9581160  -0.3512105   1.0048721  -0.4223465  -0.6213588
   0.0473273   0.1038877   0.1408196  -0.6404506   0.5085236   1.5084760
   0.1201438   0.0970585   0.2247292   0.0446643  -0.1099005   0.1490244
   0.8479259   0.8531499  -1.3320367   0.1518523   0.1586649  -0.4140468
   0.2020323  -0.3028145  -0.2001060  -0.1990462  -0.9840961  -1.2246968
  -0.3253501   0.7542294  -1.4997218  -0.0162109   0.0709253   0.0289618
   1.0759180   0.4728309   0.4531357  -0.2880582  -0.2580150   0.1318845
  -0.0502070   0.2314556   0.3143652   0.1722903   0.0269368  -0.1846024
   0.3856229  -0.0539646   0.2038206  -0.7708533   0.7720639   0.1066118
   0.0117810   0.1156720   0.0856032   0.4988535  -0.2607075  -0.9213386
  -0.0281532   0.1758898   0.0737247  -0.1203904  -0.6413701  -1.5394570
   0.3335388   1.0174704  -0.4271683  -0.0845353   0.0376636   0.0997657
   0.4416355   0.2603181  -0.1869088  -0.1728775   0.6267401   1.3055945
  -0.3030483  -0.0313452  -0.2092313  -0.0803902  -0.6578935  -0.6284900
   0.4325760   0.2372305  -0.4704895  -0.2599154  -0.0924225   0.2262827
  -0.1583928   0.9567056   0.7170316  -0.0641844  -0.0236022   0.0530013
  -0.2844588   0.5539938   0.2742516  -0.1217919  -0.2449415  -0.1995252
   0.0952940  -0.0851816   0.8299542  -0.0602675   0.4249532   0.4253611
   0.0503189  -0.1806516  -0.0492471   0.3552243   0.3590567   0.3727373
   0.2462653  -0.9119058   0.3316765   0.1214042  -0.0702343   0.2784983
  -1.3172629  -0.2080665   0.6783786   0.2949799   0.0372599  -0.1328233
   0.7668133  -0.7131712   0.6958718   0.7170588  -1.4715874  -0.8958018
   0.0308078   0.4727574   0.0838633  -0.7401599   0.1041883   0.2622865
   0.0843781   0.4384113  -0.0754049   0.2687435  -0.0185468  -0.0563378
   0.0978122  -0.0192185   0.2141919   0.3504802   0.1437817   0.3515908
  -0.1394869   1.0024668   1.0679029  -0.9627373   0.6005813  -0.3942027
  -0.0984955   0.0719363  -0.2519779   0.0732436  -0.0195525   0.0506624
   0.1690752  -0.3104756  -0.0354773  -1.0512831   1.1041990  -0.8185806
  -0.1132564  -0.2305531   0.2074696  -0.3094624   0.5269011  -0.0983980
   0.1780106  -0.0809930   0.3080774  -0.5890460  -0.8243829  -0.1409297
   0.3514672  -0.2553049   0.2812074   1.4309474   0.2798531   0.1930114
   0.2992647  -0.2001102  -0.0688255   0.1357842   0.2289637   0.6042300
  -0.1274127  -0.1054960  -0.1213905   0.1926974   1.8185491  -0.6747157
   0.0529982  -0.0672588  -0.4680858   0.0499870   0.0259649  -0.0864961
   0.1942206   0.0633709   0.2535421   0.3722534   0.1705204   0.3577897
  -0.6200816  -0.7440926  -0.6319794  -0.7543024  -0.5758024   0.4711415
   0.3555751  -0.1323077   0.0815864   0.5344008   0.6628674   0.2880931
   0.0536906   0.1746943  -0.5882532  -0.0967111  -0.0093436   0.1981670
   0.8553742  -0.5918550  -1.4277626   0.9738729  -0.7839354  -0.6695045
   0.1564076   0.2126895   0.3420832   0.5191968   0.3443808   0.2902337
  -0.3964365  -0.3762600  -0.3454873   0.4535147  -0.0076779  -0.1492355
  -0.2042137   0.1416441  -0.0047418  -0.4078146  -0.5949402   0.7174361
  -0.2835478   0.2650631   0.2720189   0.9539065   0.0820317   0.8646327
  -0.1170720   0.0440203   0.0630666   1.1704982   0.1887079  -0.2171574
  -0.9659394  -0.2810106  -1.4782011  -0.3718187  -0.6674570   0.6906805
   0.5362444  -0.2824824   0.0064294  -0.0028600   0.1466317   0.0190692
  -0.2624845  -0.0650396  -0.2176250  -0.2081422  -0.7260779   0.6853938
   0.1314167   0.3435499  -0.1439592  -0.7165904  -0.1455033   0.1584921
  -0.3607169   0.1159465  -0.2439730   0.8488757   0.6235792   0.4359461
   0.0938460   0.1333933  -0.0297941   1.7181529  -0.6672256  -0.5466535
   1.1522261   0.7992377  -0.6646477  -0.3860017   0.1276654   0.0758314
  -0.1180116   0.2818173   0.2233318  -0.1634041   0.5486192   1.0562508
   0.9375864   0.1209513   0.5286161   0.0712972   0.0982663   0.3159220
   0.2042924   1.0607597   0.2514579  -0.6821124  -0.3158706   0.9956903
  -0.0522182  -1.2701098   0.1539567  -0.1368469   0.1058279   0.1194134
   0.0501618  -0.0474865  -0.3753182  -0.0226095  -0.0214051  -0.1184866
  -0.6484554  -0.0141455  -0.2191807  -0.1789976  -0.4542662  -0.3161498
  -0.7287182  -1.0539188  -0.4891440  -0.1155625  -0.2943885  -0.0812563
   0.1428427   0.4612246  -0.5077770   0.3438326  -1.5130007   0.1491562
   0.0398522   0.1138200  -0.3438090   1.8738525  -0.3511677   0.2741917
  -0.1964612  -1.1361734   0.1385776  -0.1963427  -0.0395840   0.0491395
   1.3213976  -1.4660979   0.4921672   0.1370222  -0.2670215  -0.5032320
   0.1803672  -0.0693023   0.0415228  -0.4066065   0.0930876   0.2200575
   0.0926471  -0.0435812   0.5717050   0.1401171   0.1509629   0.0350791
  -0.6276089   0.3615822  -0.3267197   0.5613119   0.4441288  -0.2689187
  -0.0363134   0.1914614  -0.3875357  -0.2300271   0.1644394   0.2653592
  -1.5342518  -0.6040560  -0.6490366   0.2399470  -0.2151408   0.0175065
  -0.1471353  -0.4242617   0.0282756  -0.3905196   0.4207590  -0.0006986
  -0.5310366  -0.8384576   1.2514246  -0.0269595  -0.0165188  -0.0141815
   0.4704204  -0.9806880  -0.4770937  -0.0146146  -0.0579755  -0.0349777
   1.0705282  -0.7458081   0.5552065  -0.4014827  -1.0877262  -0.9815313
   0.6764458   0.4111397   0.3599655  -0.1313056   0.0023773  -0.0160512
  -0.1871586   0.2120155   0.0023951   0.2494663   0.0956840  -0.1944945
  -0.1801735   0.7247844   0.7302367   0.1213512   0.3015964  -0.1176871
  -1.3688483  -0.8287409  -0.4767375  -0.1020166  -0.0851387   0.3249453
  -0.2470402  -0.3736738  -0.4595758   0.4160064   0.0809461   0.2334466
  -0.0470791  -0.2234960   0.1834926  -0.6566258   0.9816389  -1.0102015
  -0.2507022   0.9983993   0.3169539   0.0026275  -0.2956942   0.2290684
   0.0603121   0.0067136  -0.0725684  -0.2464503  -0.1213777  -0.0814582
   0.0340798   0.2215308  -0.0520616  -0.2100893   0.0895242   0.0232073
  -0.0409113   0.3671462   0.1290455   0.9087813   0.3178876  -1.6235917
  -0.1758922   0.0587309  -0.1681114  -0.5109416  -1.0430620  -0.6606919
   0.3392541   0.1602955   0.1492580  -0.3606724   0.2844070   0.1119368
  -1.0634439   0.1352191  -0.6100377   0.2489528   0.5011568   0.2041615
   0.2069633  -0.1099199   0.3003381   0.2982116   0.1557724  -0.1882275
  -1.5399166  -1.4886515   0.6745474   0.4163530   0.2801576  -0.0992246
   0.1858869   1.2164978   0.8885626  -0.1115154   0.1640937   0.3776066
   0.8137742   0.5518258   0.4836290  -0.4359270  -0.1056887   0.0454921
  -0.1171564   0.0481838  -0.0486726  -0.2344971   0.0811028   0.1394385
  -0.0616257  -0.6941794  -0.7276608  -0.3115378   0.4713482   0.0016374
  -0.9375841  -0.3406870   1.1519676   0.1707950  -0.1601717   0.0127875
  -0.5704183  -0.5350216  -0.0117008   0.1735951  -0.1431965  -0.0768383
  -0.3272230   0.5513007  -0.1626414  -0.7855683   0.1400252   0.8361892
   0.7903458   0.7155888  -0.0526321   0.1837333   0.1652325   0.1925489
   0.5359257  -0.0026139   0.7420693   0.2624519  -0.2251082  -0.0674661
  -0.1245320  -0.1026154  -0.0589579   0.0400511   0.0863451   0.0962722
  -0.1153224  -0.7395360  -0.5280551  -0.1522604   0.0076885   0.2464709
  -0.5277726   0.1025501   0.3488925   0.4035027  -0.2894469  -0.5022071
   0.2407928   0.1346867  -0.1879828   0.2385582  -0.1040237  -0.0462901
  -0.3358904   0.1093073  -0.2880412   0.0934241   0.5360278  -0.8434228
  -0.1711407  -0.0245841   0.1725479  -0.4244882  -0.0948950  -0.3974624
   0.1941041   0.0262917   0.0832103  -0.9561451   0.9409320  -0.0002848
  -1.3335566  -0.0389087   0.0280746  -0.2014108   0.0213360   0.0805840
  -0.0005754   0.6232003  -1.2624620   1.5326306   1.2507972  -0.0373692
   0.2460786  -0.2170886  -0.1099717   1.5541065   1.5385532  -0.3800600
  -1.2856969   1.3112393  -0.7363147   0.0058052  -0.0515736  -0.0390655
  -0.7986621  -1.2170111  -0.5543879  -0.1116063  -0.2494925   0.0831616
   0.3082127   0.2351010  -0.6631873   0.2339009   0.4742693   1.4547475
  -0.8467984  -0.5919136  -1.2617427   0.3389380  -0.2890161  -0.4687021
   0.6419604   0.5394860   0.6001995  -0.1345616   1.0128569   0.8388804
   0.1027005   0.0980914   0.2018623  -0.2986953   0.0202060   0.1148602
  -0.1008318  -0.2816795  -0.1388437   0.6382181   0.0299914  -0.4594393
  -0.1280973  -0.3626646  -0.4607067   1.7980777   0.8155293   1.2052527
  -0.3308197  -0.1551293  -0.0794903  -1.2544470   1.5005883   0.1005839
   0.1145828   0.4333532   1.3655362   0.3344202   0.0434349  -0.1822179
   1.2518086  -1.6398861  -0.2038135   0.7148717   1.1711500  -0.9708170
   0.0838372  -0.1033010  -0.1026657  -0.0715849  -0.2872229   0.0060577
  -0.3833437  -0.1325334   0.1408152   0.6252643  -0.0592878   0.0428324
  -0.3109851  -0.2005684   0.2360809   0.4957915  -0.2282958  -0.0993938
   0.2055460  -1.3279677  -0.4995472   0.1970436  -0.0708367  -0.0726504
  -1.4337343  -0.3413740   0.5358149   0.3485888  -0.0464205  -0.2093386
  -0.6526843   0.5282814  -0.6797127   0.0571642  -0.1353862  -0.2080670
   0.3407984   1.8148073   1.1482163  -0.9822276   0.8398481  -0.0281059
   0.2734768   0.9021794   0.2255149   0.2510818  -0.1717868  -0.0607865
   0.9074567   1.2532818  -0.1943044  -0.3356567   1.3452896  -0.1257746
  -0.3176032   0.0655184  -0.3458476   0.9962698   1.0292577  -0.0205005
   0.1433116   0.0965720   0.0193154  -0.1249907   0.8337225   0.4402026
   0.1700931   0.0902639   0.1888410   0.0775152  -0.1446150   0.2876703
  -0.3171086  -0.5150603  -0.0867421   1.0921442  -1.5227461  -0.3172493
   0.1078922   0.0138173   0.0053298  -0.9173846  -0.7401037   0.6146338
   0.0832374   0.0201287   0.3034550   0.2207620  -0.4233857  -0.1144051
  -0.3201916   0.0906719  -0.2402532   0.3018285  -0.3716561  -0.5167520
   0.3371682  -0.6115283  -0.2218500   0.0825945   0.1006295  -0.7990014
   0.0163426   0.1298821   0.1431224  -1.8525364  -1.0702192   0.8252307
   0.1941217  -0.3261500   0.8564633   0.3033451  -0.2658556  -0.6263855
   0.0645987  -0.3869972  -0.0569759   0.1420042  -0.1060531  -0.3281263
   0.0872983   0.0634776  -0.0480988  -0.3977901  -0.2059558  -0.1371654
   0.0945631   0.0260026  -0.0339139  -0.3347513  -1.7624471  -0.5534453
  -0.0064958  -0.2356993   0.3851268   0.9948259  -0.8426258   0.1674181
   0.0826499  -0.3395846  -0.8750005   0.1874381   0.2005101   0.0608826
   0.4090438  -0.0710156  -0.3847193  -0.4989227   0.2664399  -0.0514669
   0.1681476  -0.0635863   0.0852493   0.3605769   0.1772279   0.0331244
  -0.2889195   0.3600798   0.0498739  -1.0521866  -0.8865257   0.6464448
  -0.0431054   0.2977711   0.3091230  -0.1354934  -1.3346195   0.1144248
  -0.1246192  -0.1917066  -0.6467679   1.5556369  -0.2411551   0.7052821
  -2.0032961  -0.2470675   0.0381351   0.0010965  -0.3094137   0.1587617
  -1.4338166   1.4636596  -0.0445917  -0.2381909   0.2910458  -0.1785378
  -0.5838440   0.9304664  -1.5794667   0.3113308  -1.5066537   0.6137782
  -0.2240005   0.3547246   1.1696989   0.1642423  -0.0146805   0.3021810
  -0.5821361  -0.4033369   0.2493666  -0.7188677   0.9744259   0.1955566
  -0.0333701  -1.3193337   0.2522105  -0.0973817  -0.1888738  -0.0009058
  -0.2977346  -0.1954283  -0.1506736  -0.1879561   0.0364343   0.2068543
  -1.2390902   1.1557078   0.5107921   0.3562233  -0.1046919   0.1928443
  -1.1687861   1.5262639  -0.0233857   0.2922114   0.1872122  -0.3967141
   0.3845568   0.5442699   1.0346840   1.0523162  -0.5041177   0.6838919
  -0.1458962  -0.3186982   0.0892619   0.0308448   1.0948180  -1.6673894
   0.1888667  -0.9869589  -0.6486802   0.0477148   0.1494836  -0.0003438
  -0.2717041  -0.2505986  -0.1654923  -0.5478360   1.1813378  -0.6228824
  -0.8845570   0.8031776   0.2603963   0.2412900  -0.5136341   1.2247482
   0.1296616  -0.1340028  -0.0391931   0.2735724  -0.0795552   0.1720082
  -0.0380515   0.0098261   0.2207471  -0.4183871   0.8723723  -0.4149953
   0.0904587   0.0988764   0.2433690  -0.9485988  -0.4336521   0.0331360
   0.1543639  -0.2520653  -0.1620472   0.4047123   0.9699921   1.1433413
   0.2363489   1.6370248  -0.6126456   0.1848143  -0.0466801  -0.0740706
  -0.2285418  -0.3682032   0.2128765  -0.2703645  -0.0357145   0.1975247
  -0.1122875   0.0323583   0.0903626  -0.0393081   0.0169277  -0.3673511
   0.0235769   0.6456861   0.3058825  -0.1465866   0.1645835   0.2248136
   0.2520653   0.7876028  -1.5698344  -0.1427368   0.0117224   0.2532872
   0.7338411   0.4909513  -1.2372085   0.6664194   0.6961342   0.2810505
  -0.1253396   0.1800893  -0.0725325  -0.2457141   0.1293919  -0.0753927
  -0.0910729   0.2587959   0.1467870   1.0113398   0.1969152   1.8742845
  -0.1141090  -0.1960738   0.2032596  -0.6831317  -1.3846062  -0.2448599
   0.2728161  -0.2160956   0.0423244   1.1689405  -0.0003352  -0.5459647
  -0.4487468  -0.0938626   0.0380379  -0.0398652   0.1040479   0.4056118
  -0.1847034  -0.1050094  -0.2840463   0.3707703  -1.8651265  -1.1413508
   0.0421186   0.4337518   0.1888770   0.3274365   0.4605549  -0.5298629
  -0.0760720   0.1947437   0.0131602  -0.4025260   0.1281009   0.3693527
   0.1901058   1.0463347  -0.8708428   0.9846854  -0.4487520  -0.4847714
   0.4728908  -0.0288059  -0.3442814   0.0794327   0.0018452   0.2536840
   0.2250233   0.1684152  -0.0702134   0.4318729  -0.0278176  -0.7784580
   0.2324983   0.1279507  -0.0157588  -0.2870600  -0.7393526  -0.0499551
  -0.1733728  -0.1692905   0.2232243   0.1381460  -0.3920071   0.5448302
   0.1477394  -0.0042875  -0.1967661  -0.7570856   0.5481486   0.2226194
   0.1820430  -0.3699072  -0.7580889   0.2599186  -0.0310035   1.2165559
  -0.0899863  -0.0845414   0.1801944   0.8674466  -0.3830116   1.8051904
   0.0854361   0.0752720  -0.2489183   0.0947403  -0.0208767   0.3086015
   0.1159259  -0.0193450  -0.1556279  -0.7078074   0.3592864   0.5252033
   0.0269566  -0.0299497  -0.1724669  -0.2271892  -0.3816205  -0.1160111
  -0.1123802   0.1083730  -0.0296634   0.8454677  -0.5124192   0.5554250
   0.1810976   1.1166748  -0.1427135   0.1785759   0.2408631   0.3200078
  -0.0733407   0.0405192  -0.2418448   0.1194714   1.0873456   0.3289537
  -0.0324033   0.1755045  -0.3365895  -0.2114843  -0.3765702   1.1186282
   0.1998354   0.2341029  -0.0998579  -0.0387671   0.4859467   0.4074384
  -0.0184911  -0.3239023  -0.2804261  -0.0809505   1.1792163  -1.0143957
  -0.1288633   0.3629107   0.1462676  -0.1544872  -0.3512415   0.0223376
   0.2911480  -0.0999613   0.0469857   0.0170643  -0.3515724  -0.1470576
  -0.4785570  -0.6564470  -0.1384356  -1.5934569   0.6006801   0.6656609
  -0.2249376   0.0728269  -0.0038413  -0.5501748  -1.5888178   0.1317385
   0.3377778   0.1596795   0.2330198   1.3209501  -0.7034743   1.0611600
  -0.0110605   0.0788544  -0.1274843   0.1245457   1.2621543   0.3566396
  -0.9244020  -0.4099701   0.5104640  -2.4825863   0.0111347  -0.3846209
   0.1389930   0.1517531   0.3693948   0.1701360  -0.3638851   0.3310815
  -0.0801036  -0.0629403  -0.0145933   0.0829205   0.4932402  -0.1417198
   0.1845785  -0.2627476   0.2550899   0.6810114  -0.6974411   0.2092837
   0.0195154  -0.0129101  -0.2584925  -0.1734198   1.0024386   0.6865605
  -0.1399914  -0.2010824   0.0893919  -0.4911141   0.7652700   1.1215519
   1.1466844  -0.4951911   0.1472074   0.4088278  -0.1165513   0.6386475
   1.2140746   0.9328486   0.5234533   0.2205518  -0.0235975   0.2993272
  -0.1037438  -0.0159327  -0.1126533   0.2907360   0.1609153   0.2278519
  -1.2034899   1.2235474   0.3823419  -0.9791016   0.3082335   0.7044023
  -1.0461133   1.0078326   0.9855373   0.0739671   0.1187155   0.2135555
  -0.1067483  -0.0698171   0.0793657  -0.0425936  -0.2127103   0.1889883
   0.2592227  -0.0847276   1.6664847   0.3432437   0.0652173   0.1882843
  -0.6009602   0.0084535   0.2209389   0.1646359   0.0109449  -0.1123278
  -0.3280580  -0.1105916   0.0725266  -0.5293554  -0.0418399   0.0978455
   0.1035454  -0.2839082  -0.1720803   0.1901301  -1.2617027  -0.0494001
   0.5679742   0.1375144  -1.1003149   0.0236876  -0.2343545   0.0750786
  -0.5372252   0.2277584  -0.1480701   0.8776736  -0.2755708   0.3623677
  -0.1999699  -0.0462762  -0.0457271   0.1765219  -0.1713471  -0.0159187
   0.2187302   0.3450480   0.5263946  -0.1830460  -0.1863259  -0.3163032
   1.6805286  -0.2656448   0.8819677  -0.2654112   1.2990271  -1.1533212
   0.1826355   0.0041206  -0.4445927  -0.6509795   0.3811893   0.8043311
   0.1756741   1.0072202  -1.1201784  -0.1273437   0.2346506  -0.3067374
  -0.1368255  -0.1007921   0.0986021  -0.2727086  -0.1418765   0.3167502
  -0.8389739  -0.6604787   0.6907250  -0.1323403  -0.2651513  -0.0595725
  -2.1604617   0.5497442   0.3761309  -0.2728125   0.1959446  -0.3110195
  -0.4019124  -1.5673254  -0.7644992   0.1410906  -0.9499804   0.7142471
   0.1165271  -0.1187552   0.3690768  -0.4020688  -0.4354289  -0.4609375
   0.2240484   0.1075962   0.0596706   0.8438330   0.6687258   0.8854097
   0.5764647   0.0952529   1.0499966  -0.5532964  -0.7010055  -0.6080282
  -0.0227604  -0.0620056  -0.2422798  -0.0869573   0.6447873  -0.1747219
   0.1429848  -0.1433961  -0.6645349  -0.6598802   0.4447775  -0.8508173
  -0.2600030   0.2460131   0.2342612   0.0864473   0.1749770   0.1953528
   0.0182549  -0.3840523  -0.0513120  -0.2899663  -0.0902604  -0.7242209
   0.0751881  -0.3017142  -0.0111791   0.9857705   0.3547854   0.9353704
  -0.0023337  -0.0762966   0.3147515  -1.4648960  -0.2385789  -1.3303228
   1.3584400   0.1994755  -0.8217023   0.2104365  -0.0810223   0.1727348
   0.8149110  -1.2761835   1.1672828   0.0340912   0.0555570   0.0721488
   0.7507947   0.8636713  -0.7138970   0.1829209  -0.8367632  -0.3558887
   1.5353152   0.3711907  -0.9950675   0.0527489   0.3735091   0.2017588
   1.5216247  -0.7667429   0.5628119  -1.2886542  -0.0113909  -0.4033521
  -0.4452479  -0.0704326   0.7985644   0.1254784   0.2623173  -0.3704075
   0.0404954  -0.2993215   0.0668749  -0.1111241  -0.0724401  -0.0263658
   0.8733987  -0.0133045  -0.3567668   0.3064227   0.0563268   0.0215554
   0.4736138  -0.7530534   0.9455100   0.0780779  -0.1784676   0.3813448
  -0.1903501  -1.4822259  -0.8072045   0.0960742  -0.4714216  -0.1104309
   0.1748086  -0.1562984  -0.3356319  -0.3297617   0.1362257   0.5125512
  -0.0541501  -0.0794424   0.2501494   0.1171848  -0.1768707   0.0472093
   0.1257580   0.0960889   0.1629512   0.0029558   0.1899816   0.1155569
   0.3383805   0.3699493   0.2121927   0.5668515  -1.5049487   0.1325668
   0.2142550   0.0609161   0.0057528  -0.9502150  -0.2275508   1.4803570
  -0.8296321  -0.0274115  -0.4416071  -0.0045775  -0.3233890   0.4559777
  -0.6015039   0.4888655  -0.7012546  -0.5190463   0.9086683   0.0389272
   0.0596392  -0.2219983   0.2167155  -0.1152120   1.8165934   1.1014303
   0.0727414  -0.2022590  -0.0938011  -0.0744852  -0.0001679   0.1201652
  -0.3606532  -0.3611684   0.0811607   0.0145343   0.5302157  -1.2143968
   0.2072607   0.3976367   0.0079564   0.4989748   0.8878926  -1.8743209
  -0.0626055  -0.2013149  -0.3348273  -0.6483200   0.4545103   1.5225914
  -0.2342095  -0.1915990   0.0770933  -0.0941606  -0.2597469  -0.4496061
  -0.8687892  -0.4585104   1.6216053  -0.3901463  -0.4638616  -1.1588987
   0.4573807   0.1165605   0.3238427  -0.3077041  -0.4983344  -0.0647515
  -0.1388808  -0.0371720   0.0382530   0.8140602   0.8762115   0.0126228
   0.2584959   0.3397212   0.2182329  -0.3292116   0.0363163  -0.1134194
   0.2487726  -0.0105124  -0.2311455  -0.8147144   0.4539071  -0.2377152
  -0.2843521  -0.2104192   0.1757527   0.1779232   0.8111149  -0.5331787
  -0.4391529   0.4770572   0.0589451  -0.3717286   0.9595496  -0.2263623
   0.5279620  -1.3104929   0.5419075   0.1311388  -0.1450956   0.0355742
  -1.2895603   0.6810157   0.4356480   0.3166927   0.4263000  -0.1064665
   0.0613813  -0.1808796   0.0761786   0.3907493   1.4894483  -0.0807375
   1.8702863  -0.3437751   0.8788320   0.0710988  -0.4452481  -0.1747544
  -0.4428231   0.7818988   0.3318522  -0.0644651  -0.0739450  -0.2968855
  -0.0179640   0.0002823  -0.1328878  -0.0460673   0.1730215   0.5268115
  -1.9735942  -0.0368360  -0.3096450   0.1072168   0.1818101   0.0949743
   0.6926967   0.4392104   0.1245148   0.5494573   0.5189830   0.0346399
  -0.0653019  -0.2466815   0.6965683   0.2211775   0.2632108  -0.0649824
  -0.3395384   0.0063243  -0.3286654   0.7176643  -0.0207927  -0.9385389
  -0.0725250  -0.0659628   0.3994381  -0.2375785   0.4318115   0.5018525
   0.1748935  -0.1458502   0.1593330  -0.2553536  -0.4706259   1.2117699
  -0.1528604   0.2052137   0.3919178   0.7760823   1.0688504  -0.2780998
  -0.2923199  -0.0323100   1.0878783   1.1513993   0.2681158  -0.2893062
   0.0970295  -0.1186126   0.1911573  -1.3157556  -1.0653956  -0.4549864
   0.9398699  -1.1016242  -0.1788881  -0.7896535   0.6689607   0.0275823
   0.1725313  -0.1025366   0.0213876  -0.2029183  -0.1401687   0.1500519
  -0.4740577   0.0278149  -0.0970835   0.4060685  -0.0857631  -0.1825286
   0.5749323   1.4149910  -0.4942392   0.3055866  -0.2497329  -2.3252470
   0.0074765  -0.2334800   0.1139170   0.1960434   0.8780270  -0.0525812
  -0.2120754   0.7360630   0.4811324  -0.4698845   0.2999962  -0.2007191
   0.3829583   0.6385587   0.0664168   0.4165916   0.3948055  -0.6545099
  -0.0123331  -0.0077374  -0.4711038   0.4156436   1.5537694  -0.1014467
   0.1891508  -0.1790704  -0.0207345  -0.2027574  -0.2314181  -0.0944736
   0.0739742   0.2942913   0.0271992   0.9500207   0.8252496  -0.5723027
  -0.1783769   0.1324668   0.1022323   0.3571401   0.2109182  -1.3995786
  -0.0271487  -0.0353432   0.2724568  -0.9926623  -0.4362533   0.4123697
  -0.2017886  -0.3392504   0.5385268  -0.2393723  -0.1860155   0.1306367
  -0.1720526   0.0944990   0.0284234   0.1978609   0.2456923  -0.0884990
   0.2312463   2.2440103  -0.4676420  -1.7659652  -0.7633946  -1.5633318
  -0.4274758  -0.1334071  -0.3242200  -0.3754634   0.2800125  -0.0756329
  -0.1945898  -0.4032600  -0.1327736   0.4840456  -0.6030832  -0.6835665
   0.2343871  -0.3065856   0.1045236  -0.3988100   0.4007136   0.1738163
  -0.0673826   0.0152049   0.0606090   0.6190811   0.7435124  -0.8433602
  -0.6093927  -0.0074823  -0.0165908   0.2732001   0.6284920   0.4936759
  -0.2730317  -0.2679415   0.0153324  -1.4759132  -0.4388917  -1.1088901
  -0.0017655   0.1787587  -0.1874942   0.3915730  -0.9090485   0.5004413
   0.3004042   0.0517749   0.2374649  -0.2466757  -0.2714140   0.0706549
  -1.1094605   0.5022981  -0.4302312   0.1515553   0.2855636  -0.4794503
  -1.0487848  -0.7149614  -1.4245648  -0.4101108  -0.0659788  -0.2940879
   1.0047709  -0.7770533  -0.3053132   0.0327642  -0.2364011  -0.1397642
   0.3038365   0.0055563  -0.2062219   0.2459881  -0.0242206  -0.1991970
  -0.6306241   1.8160825   1.6089931   0.1430086   0.1300139   0.0867700
  -2.0258705   0.7259659  -1.3637617  -0.0498287  -0.0520832  -0.1810933
  -1.3909233   1.1820572  -0.3405698   0.2044359   0.6233330  -1.2148458
   0.1502668   0.1498662  -0.0588119   0.1634553  -0.2321060  -0.1059390
  -0.1674428  -0.3602215   0.1898463   0.9613388   0.7537642   0.0627472
  -0.3542188  -0.2891374  -0.3801998   0.1515094   0.0671558  -0.1329919
  -0.0043234   0.0440467  -0.1507356  -0.0870776   0.3984150  -0.3265772
   0.7133074   0.0148625   0.7171143   0.0048672   0.0032733   0.0602730
  -0.3938127  -0.8397347  -0.2031557  -0.1574078  -0.0421304   0.4057952
   0.1226551   0.1504014   1.3173957  -0.2792558   1.2841749   0.4530332
   0.0776282   0.2133263  -0.0497187   0.6092419  -0.0754516   0.4244887
  -0.3338004  -0.2806632   0.4487372   0.6019339   0.8241272   0.9094045
  -0.0089013  -0.0200186  -0.3761696  -0.1740088  -1.4312348  -0.1399956
  -0.2530431   0.1622825  -0.2045822   0.4961096  -0.0544543  -0.6796985
   1.2802856   1.3311655  -0.0171553   0.6711423   1.4426341  -0.9742789
   0.5431121   0.1539624  -0.4580571  -0.0332920  -0.0191735   0.1880523
   0.0766625  -0.0553979   0.2144493  -0.0091545   0.2313068  -0.0870742
  -0.4904629  -0.1726668  -0.1029633  -1.0649295   0.9334935   1.3352743
  -0.0973556  -0.3587738   0.1294070  -0.3014882  -1.9428743   0.2457247
  -0.4546407   0.2685418   0.0923417   0.7172761  -0.1247482  -0.2748465
   0.7656582   0.1591047  -0.0314382  -0.2528827   0.3474896  -1.0002886
  -0.6442480   0.6030800   0.1905028  -0.5557624  -1.1574373  -0.1592254
   1.1927926   1.9429275  -0.6393510   0.0215618   0.2242027   0.1225697
   0.3968452   0.7459410  -0.7381387  -0.7216182   1.1269321  -0.6419443
  -0.1557640   1.4778686  -0.1270447   0.0244748  -0.3667677  -0.0177275
  -0.3786898  -0.0195999   0.1067627   0.2713149   0.0850088  -0.1196679
  -0.9806745  -0.2689244  -1.0775055  -0.0720900   0.0884695  -0.0612461
   0.6164585  -0.3434661  -0.3478916   0.0521024  -0.2102066  -0.0028126
   0.4135975  -0.6794745  -0.1596766  -0.3861028  -0.1996038   0.1640032
   0.5053792   2.0487090  -0.2204668  -0.0317772   0.4913163   0.5059488
   0.9844475   0.0240537   0.2310587   0.0384446  -0.0452796   0.0931678
  -0.2095134  -0.4970082   0.9071998  -1.4884691  -0.5242335   1.2074207
  -0.3389140  -0.1038354   0.0955600  -0.8829867   0.4319583   0.4102538
   0.8015445   1.5050807   0.7813303  -0.2624637  -0.4814430  -0.3949852
   0.0804268  -0.1065507   0.0060045   0.0221496  -0.1959792   0.2163815
   0.1594416  -0.1880869  -0.1415186  -0.8535032  -0.3954334  -0.2311893
   0.0252106   0.0140130   0.1256258   0.3099268   0.6591926   1.2874192
   0.5621862   0.2882513   0.1081798  -0.2361381   0.9323097   1.1291422
  -0.3418034   0.2956181  -0.4927362  -0.2403502  -0.0011291   0.3478168
  -1.1350968  -0.5876447   0.0155310  -0.0179535  -0.2796705   0.3193017
  -0.2904805   0.0104759   0.1327645  -0.0082593  -0.0165929  -0.0845309
   1.0679248   0.1996003   0.8086474  -0.6058695   1.8927756  -0.3475174
  -0.0388023  -0.5538363   2.1247191   0.3556582   0.3485967   0.0398314
  -0.2778595   0.1145204  -0.0398807   0.1133909   0.0482975  -0.1418238
   0.8417822  -0.8282720   1.6222453  -0.0217091  -0.0379085   0.0669817
   0.4829159  -0.1152876  -0.0648556  -0.1974212  -0.2145974   0.2085041
   0.8835140   1.0007901   0.6773688   0.2877246  -1.0291103  -1.5591917
  -0.0191607  -0.3992216   0.2225370  -0.4490501   0.0865562  -0.0433117
   0.2730610  -0.1277015  -0.1751069   0.0114168   0.0102662  -0.1734437
  -0.1512413   0.0887605  -0.1412381  -0.0594622  -0.2694191   0.0806714
   0.5364384   0.2718766   0.9626486   0.1402971   0.1298140  -0.1657128
  -0.4679843  -0.0760941  -0.2689504   0.2354175   0.3951116  -0.0824845
   0.4787208  -1.0668559  -1.1295920   0.6843801   0.4814334   0.0839903
   0.2281851  -0.2032129   0.0401371   0.7863524  -1.1505920   0.1116242
   0.3987757  -0.1911559   0.3618750   0.2068676   0.1016887  -0.3101229
  -0.0713768  -0.3503723   0.0628108   0.1437556   0.1683212   0.3299460
  -0.0536453   0.0668979  -0.1273289   0.0614889   0.0463666  -0.2332416
  -0.2549477   0.1673749   0.1179626  -0.6757852   0.8772818  -0.2977026
   0.1459480   0.3361066   0.5381276  -0.0461931  -0.1814178   0.2396334
   0.3230549  -0.0962762   0.2469105  -1.4360846   0.0394953   0.5402496
  -0.1282188  -1.1942386   1.3380396   0.9138724  -0.8348980  -0.7773192
  -0.1621440   0.0187907   0.0990764  -0.1696427  -0.2587516  -0.0390349
   0.1217460  -0.0577333   0.0403388  -0.5744920  -0.2291839  -0.7414931
  -0.0035411  -0.1987084  -0.4365863  -1.2288978   0.0787708  -0.2141314
  -0.0352417  -0.4926631   0.2596445   0.8170203  -1.5975995  -1.1316497
   0.9528070   1.0871072  -0.4276820   0.0880238   0.2775142   0.0232813
  -0.2292827   0.1225435  -0.1124335   0.5523682  -0.3290749   0.0655624
   0.3372938   0.6539824   0.2658554   0.2558210   0.0351602   0.1355492
  -1.7012626   1.4420785   0.4001569   0.2001649   0.2247846  -0.0914697
  -0.9239638  -0.1650574  -0.0638707   0.0499985  -0.4286321   0.0348030
   0.0967771  -0.0256532  -0.0490325  -0.2752146  -0.0653402  -0.3108129
  -0.1348078  -0.6143880   0.3764610  -0.1922557   0.1456531  -0.1741873
  -0.7765525   0.0416870   0.3752392   0.0711064   0.4202367  -0.4760261
  -0.2198536   0.9214931   0.4654843  -1.6430726  -1.0558702   0.5389913
  -0.1108846  -0.5036179  -0.1564550   0.3386731   0.4480597  -0.1481772
  -0.8047287  -0.4613692  -0.7475241   0.0558883   0.3585823   0.5046894
  -1.6193283   0.2975004   0.3685496   0.0642170  -0.7060123   0.0285039
  -0.3679078   1.0417673  -0.1868970  -0.2348661  -0.1726382   0.1206797
   0.0086800   0.2840505  -0.0534681   0.1017495   0.1378195  -0.1502929
   0.0049335   0.3689676   0.7579108  -0.7554741   0.0069150   0.2107804
   0.0100511   0.1073712  -0.1661202  -0.2055858  -0.1100209   0.1885874
   0.5616479   1.1397993   0.3581241  -0.2761129   0.1091035  -0.3376609
   0.1745698  -0.5499539  -0.7669741   0.0963786  -0.1484757   0.1340841
   0.0606862   1.0375891  -1.6624189  -0.0474952  -0.1389031   0.1851125
  -0.1063497  -0.3597885  -0.3118005  -1.3595175   2.2269278  -0.2570859
   0.9769094   0.4331328  -0.4235325   0.1018462  -0.1884294   0.1111041
   0.2068493   0.7061514  -0.5192024   0.0986437  -0.2495038   0.3761455
  -0.0474629  -0.1010592   0.0582250  -0.0782654   0.0189948  -0.2381664
   0.0808251   0.4496760  -0.0427044   0.4698989   0.5102640   0.3805535
  -0.2055211  -0.2885263  -0.4607659  -0.2395384  -0.0143785  -0.1889684
   0.6615483  -0.3513714  -0.5791714   0.6564873   0.5724581  -0.0667210
   0.0871175   0.3427594   0.5747294  -0.2181986   0.2856175   0.2009395
  -0.1780019   0.2203252  -0.2537641   0.1915004  -0.3060291   0.3928125
   0.3620759  -0.1471586   0.0636236  -0.0782804  -0.3530938  -0.0049667
  -0.3252782  -0.3011209  -0.3385048  -0.2264644  -1.5451908   0.0146563
  -1.4249819  -0.3625632   0.9505995  -0.0437246   0.0293873   0.3026879
  -1.6776300   1.1063119  -0.5984851  -0.2214805   0.7554911  -0.0958018
  -0.0835718   0.0111188  -0.0632063  -0.9111556  -0.2039395  -0.0192844
   0.7768319   0.2240546   0.2986659   0.0843579  -0.0430194   0.0712796
  -0.7963787   0.3929306  -1.3277038   0.1671174  -0.1711562  -0.2203959
  -0.1089655  -0.0467788   0.3086396   0.2186629  -0.6702448   0.3059060
   0.7052419  -0.2450625  -0.4789642  -0.1696162  -0.0842415   0.3783514
   0.2986765   0.4151850  -0.7172097   0.1886056   0.0723308  -0.2643150
  -1.1932858   0.3376095  -1.4656452   1.5222500  -0.1166061   1.1139430
  -0.2526856  -0.3310526   0.5520880   0.1505138  -0.1313593  -0.1467526
  -0.3893679   0.1091490   0.0501939  -0.1208149  -0.2814090   0.2637618
  -0.3508292   0.6467311  -0.7950403  -0.0322520   0.0577082   0.0758924
   0.5126888   0.2994528   0.8244712  -0.0180661  -0.1446649   0.1779482
  -0.2929825  -0.7287464   1.1039801  -0.3633582   0.4115874   0.2525049
   0.0698331  -0.1172329  -0.0809401   0.5501733  -1.2815156  -0.5256880
   0.4159326   0.0425432  -0.0218951   0.1187721   0.1795145   0.2197953
   0.4593576   0.2508601   0.0218284  -0.2472312  -0.5635543  -0.4119993
   0.2307006   0.2490016  -0.1832181  -1.1898979   1.2374252  -0.5067967
   0.1495565  -0.1986216   0.0752556  -1.4540032   1.3146013   0.6267204
  -0.2341410  -0.0775177   0.2039304  -0.4362459  -0.7518389   0.7334736
  -0.6923985   0.4243529  -0.4678883   1.3176235  -0.9592519  -0.0019822
   0.0258931  -0.0238083  -0.1767482  -0.8419098   0.2586561   0.9450588
   0.7891599   0.3879494  -0.9343196   0.0437061  -0.0045574  -0.2827205
  -0.0470898  -0.6330154   0.5053119  -0.2896098   0.8541244   0.3274846
  -1.0246813   0.3207793  -0.1066368   0.2114234  -0.1841980  -0.0011964
   0.0864864   0.0056245  -0.2792641   0.0137579   0.0436306  -0.1302191
  -0.9058408   0.3083414   0.4233042  -0.0555984   0.2509297   0.0078874
  -0.5694585   0.6161591   0.1474976   0.5066606   0.1663017  -0.5272410
  -0.8314402   0.7857437   0.6963655  -0.1079704  -0.2695583  -0.6334185
   1.0764190  -0.0770261   0.4117181  -0.0344463   0.3777896  -0.3072524
   0.0992285   0.3331085   0.0765810   0.1557230  -0.0451906  -0.1142778
  -0.1073004   0.0310618   0.2883109   0.0843912   0.1434111   0.1430850
   0.9505747   0.0330419  -0.1212119   0.0736561   0.0637559   0.1485782
   0.3863639   1.0902472  -0.4260671   0.4008461   1.1935117   0.9087890
  -1.2430576   0.6714921  -0.6997300  -0.4174933   0.6487274  -0.0666283
  -0.1462703   0.3121411  -0.0201222   0.1605790   0.3437086  -0.0095664
  -0.1587498   1.5006401   0.1660451  -0.0902799  -0.2897662   0.1301157
   0.8973929   0.3231833   1.1165994  -0.2066987   0.2439597   0.1732073
  -0.3562234   0.6896941  -0.4442344  -0.7533401   0.5803422  -1.2607453
  -0.0135120   0.2201046  -0.1640267   0.1135179  -0.4096658   0.5242876
  -0.1845319   0.2164450  -0.8511687   0.5763569   0.3462480   0.1240316
   0.7581246   0.1342115  -1.5484653  -0.4391179   0.9845328   0.6274420
  -0.0030548   0.0303004  -0.4252565   1.0556195  -0.4502953   0.1888965
   0.2133467  -0.0641812  -0.2666765   0.0264896   0.0563831  -0.3272164
   0.4029191  -0.7067474  -0.8300905   0.4252533  -0.8525209   0.3515214
  -0.2267715   0.0103378   0.1519098  -0.6709160  -0.1639013   0.0937018
   0.0323664  -1.4125642   0.7433157   0.0846174   0.5105340   0.0467334
  -0.0840610   0.2431033   0.1279937  -0.0240650   0.0530825   0.1405892
  -0.3417014   0.2691768   0.6778147  -0.3454357   0.2327634   0.0400158
   1.3871059  -0.6715724  -0.4318924   1.3491380   0.3995255  -0.0657588
   0.1468997   0.2433038  -0.0477398  -0.0804197  -0.2484897   0.1020747
  -0.0775478  -0.0435243   0.0642306   0.5842176  -0.9125591   0.3480982
  -0.2563367   0.0452043   0.3531010  -0.4687132   0.8320226  -0.4758625
   0.0947669   0.2408982   0.5186678  -1.3722561   1.2222391  -0.2510347
   0.6219345   0.5327380   0.6549400  -0.2685025  -0.1191637   0.2514720
  -0.1098817   0.1824045  -0.0277935  -0.0836261   0.9069512  -0.2295196
   0.1917246   0.1510216  -0.2048079   0.6201987  -1.3983612  -0.4848700
   0.1313989  -0.0424743  -0.0481913   0.2650878  -0.0733260   0.2805333
  -0.6428212   0.5543485  -1.5565221  -0.2100348   0.1211904  -0.0460176
   1.3260480   0.4454185   0.2233622   0.1062333   0.0441143  -0.1146513
  -0.6421502  -0.4862590  -0.3285150   0.0805812  -0.1581184  -0.0422092
   0.0658713   0.4904199  -0.1809418   0.1575615  -0.0693717  -0.1727837
   0.3960433   1.2882009  -0.5576831   0.0634032  -0.1375114  -0.2025717
   0.4563384   0.5526085   0.3038529   0.1909178  -0.1219471   0.0439229
   0.1422254   0.9971275   0.3995795   0.0122073  -0.0097477   0.2971676
  -1.2504630  -1.2207183  -0.1838706   0.4306427   0.4102272   0.3373544
  -1.0582285  -0.3475900  -1.1350959  -0.0520483   0.2250579   0.0828851
   0.2743630   0.5935438  -0.1568681  -0.6883263  -0.1296489   0.6281727
   0.2161343   0.0954728  -0.0851634  -0.3504787  -1.0647627  -0.5048945
   0.3702765  -0.4643713   0.6372223  -1.2595838  -0.7469080   0.1007570
   0.0533846   0.3365114  -0.2190763   0.0799199  -0.2550893   0.0532635
   0.0904520   0.4824679   0.0880488  -0.9129447   0.8643211  -0.0132754
  -0.0435724  -0.0518361  -0.0608264  -0.1833959   0.0013491   0.2795654
  -0.0116744  -0.3267227  -0.0537159  -0.4714651   0.7369390  -0.1643253
  -0.7166562  -0.1087618   0.0561471   0.1881395  -0.1875159  -0.2483826
  -0.5953147   1.7551388   0.5442115   0.1150438   0.1190282  -0.2047054
   0.1024605  -0.1456941   0.1692788   0.2226944   0.0316723   0.3540529
  -0.1591644   0.6502186   0.8622036  -0.3024763  -0.0146746  -0.0502643
  -0.8191981   0.2442134  -0.4032819   0.0781135   0.0116235   0.3054775
   0.4687001  -0.0835984   0.5662814   0.0870882  -0.1279146  -0.2043698
   1.5449534   0.3527034  -2.1751780  -0.7900005   0.5535872  -0.4986727
  -0.0449573   0.5645561  -0.8884754  -0.2129577   0.1922762  -0.3096189
  -0.4015592   0.9272100  -1.6347865   0.0793428   0.1796243   0.3049224
  -0.0563720   0.0093451  -0.1818142   0.0564147   0.1290429   0.3323201
  -0.0653058   0.1114128   0.7261849   0.1017902   0.0681643   0.1321331
   0.0682485  -0.2429243  -0.6764067   0.2673416   0.3395536   0.2280922
   0.1113658   0.1606413   0.2143723  -0.2923952   0.9306831  -0.7903449
  -0.2777787  -0.2287901   0.1089756   0.2109042  -0.8888904   0.1286369
  -0.1389347  -0.1105918  -0.9932305  -0.1244707   0.2087673  -0.0521279
  -0.2162338  -0.6789745  -0.3398693   0.5065650  -1.2262046   1.2898944
   0.2113195  -0.1105890  -0.0212849   0.5925135  -0.7907536   0.4191832
   0.4387081   0.3223669  -0.2379111  -0.2027308   0.1589478  -0.0401377
  -0.2355397   0.5126843   0.1351066   0.0924225  -0.1751860  -0.0624171
   0.0635389  -0.0219384   0.1857742  -0.6082105  -0.4072029  -1.4273283
   0.9325528  -0.9756848  -0.3151562   0.1215563   0.1421988   0.2418584
  -0.2013504   0.0448180  -0.0080745  -0.2393879   0.0847141  -0.2064860
   0.0126753  -0.0635679   0.3592149   0.0940322  -0.2628122   0.0026912
   0.7404954  -0.8498243  -0.8009959   0.1503599   0.2516908  -0.4346590
  -0.1216037   1.1608919   0.3110104   0.2368093  -0.0014990   0.3476725
   0.1824609  -0.1767683   1.9554753  -0.7439015   0.2636209  -1.4596355
  -0.5856520   0.3422579  -0.7470830  -0.1022704   0.1785120   0.2350413
  -0.7567845   2.0508687  -0.5258510  -1.1823911   0.0118002  -0.3948603
  -0.1882603   0.6693245   0.7622613  -0.1278370   0.1366453  -0.1806141
  -0.0398019   0.3583119  -0.1417958   0.2141539  -0.2502724   0.3014120
  -0.1966102  -1.3307325   0.3102233  -0.2807345   0.2745228   0.0262449
  -0.3097008  -0.1563742   0.2109375   0.1690908  -0.1346539  -0.1209044
  -0.2593390  -0.7678301  -1.3903764  -0.6941456  -1.7539179   0.1571804
  -0.1188041   0.3463388  -0.2888452  -0.0262192   1.5755690   1.2438764
   1.2689686  -0.2399141  -0.0003265  -0.0055953  -0.0032197  -0.0464666
   0.3149790  -0.1999349   0.0612549  -0.0699080  -0.2462320   0.0354835
   0.0660566  -0.2605583  -0.0827422  -0.1132818  -0.0534000  -0.2053446
  -0.1181584   0.0776572  -0.1041744   0.5465321   0.9236989  -0.4450086
   0.1994634   0.4199546  -0.0770705  -0.0579688   0.8195426  -0.2249835
   0.0064066   0.1192465  -0.0278609  -0.9907450   0.7679133  -0.0940759
   0.5838842  -0.6713937  -1.1290932   0.0313350  -0.3762686  -0.0558431
   0.7074861  -0.2515801   1.1656303  -1.2202674   0.2303509  -0.2221124
   0.1172046  -0.1023369   0.1100877  -0.2280663   0.0981689   0.2147478
  -1.0081246   0.1697452   0.0657076   0.2358836  -0.3591653  -0.3164984
   0.2673746   0.8464077   0.1690798  -0.4513666   0.1726734   0.1990260
   0.2329996   0.0145295  -0.0498041   0.1055791  -0.2141874  -0.4480704
  -0.8503533  -0.4882386   0.5037668  -0.1097311   0.0835376  -0.1203554
   0.4808715  -0.9746173  -1.4039549  -0.5618425  -1.1399800   0.4247642
  -0.4834167   0.5549190   0.3430442  -0.1177652   0.1587315  -0.1960751
   0.4449275   0.2180974  -0.0262601  -1.1679690  -1.8279883   0.4253946
   0.3953531  -0.2165658   0.4721562   2.0025876   0.0427545  -1.2252664
  -0.4266489  -0.2135633  -0.2400406   1.9924635  -0.2633920   0.8733715
   0.4704556   1.1925559  -0.3862965  -0.3442654   0.4507566  -0.0299110
   1.8420412  -0.0104265   1.1057291   0.4670439  -0.3095389  -1.1159525
  -0.0233458   0.1367744  -0.1564096  -0.1766360   0.2624916   0.2512430
   0.1034964   0.2331006  -0.2754684  -0.0689684  -0.1306403   0.0697843
  -0.2426718  -0.3587346   0.0898247  -0.0387377   0.3149275  -0.0026471
   0.5840727  -0.2329993   0.7841341   0.4670259  -0.1270831   0.0617240
   0.2078588  -0.5592148   0.6753444   0.1611309  -0.2866049   0.2132818
  -0.2183116  -1.6032961  -0.8192105  -1.6382207  -1.2188728  -0.8279171
  -0.1647348   1.4676567  -0.3460604   0.0125546  -0.0647735   0.0604095
   0.0737117  -0.0137398  -0.0959136  -0.1148058  -0.0875877  -0.1255113
   0.2904289   0.9454814   1.2411622  -0.2389817   0.2492001  -0.0934623
   0.1669032  -0.4195822   0.0372584  -0.5098273  -0.0000046   0.2969389
   0.8471173  -0.9299964   0.4821730   0.3547095   0.0637754   0.7044143
  -0.7621807  -0.7813572   0.1853236   0.0864127   0.1842682   0.2571511
   0.0941932  -0.1784871   0.2916619  -0.5558514   0.0782586  -0.0758957
   0.4740339   1.0026745  -0.8677497   0.2198028   0.1457822   0.0435232
   0.3087404  -0.5940175   0.1294218   0.8032951  -0.7406887  -0.4456973
  -0.2391427   0.2197659  -0.1451402  -0.1809949  -0.1512897   0.1683370
  -0.4086281   0.1496107   0.1284597   0.5393385   1.4429070   0.0787259
   0.2384434  -0.1509598  -0.5144221   2.0850954   0.3532376  -0.9700428
  -0.0656994  -0.3188075   0.0948396  -0.1458199  -0.7488168   0.5128217
  -0.3549393   0.4372295   0.0086980   0.2108317   0.1721387   1.5830189
  -0.4805642  -0.0137949   0.3629000   0.4420594   1.1722398   1.0011714
  -0.0074315   0.1123037  -0.0129978  -0.5452604  -0.3843761  -0.0350747
   0.4564252   0.6710784  -0.3824988  -0.3427056   0.0288514   0.1787295
  -0.1670664  -0.5451707   0.2788574   0.4491289  -1.2955995  -0.8129344
  -0.1756563   0.3901679   0.5653283  -0.3368717  -0.1043121   0.1007913
  -0.0775291   0.1412259  -0.0886645  -0.2142746  -0.1628705  -0.0675909
  -0.2064712   1.3060252   0.5508887   0.0805401  -0.1535113   0.2147608
  -0.6468461  -0.3391329   0.4321385   0.3011211  -0.1088719  -0.1100804
  -0.3757362  -0.7563627  -0.6141601   0.2749883   0.4025675   0.3369032
  -0.3813723   0.2022359   0.0323123  -0.0902900   0.2155946  -0.4856696
  -0.5748118  -1.0626568  -0.7977156   0.2965792  -0.1001627  -0.1858510
  -1.2589828  -0.4219327  -0.4137726   0.0588577   0.1666146   0.0205677
   0.0849501   0.0415092  -1.2881688  -0.1821429  -0.2779093  -0.2862238
  -0.9773744   0.8078613   0.4076655   0.1630741  -0.2330796  -0.0581166
   0.0484548   0.7266260   0.2085165   0.0399357   0.0747966   0.0600070
   0.3778822   0.1505421   0.2494201  -0.0474771   0.2825951   0.0478663
  -0.2013160  -0.7538935   1.0205450   0.0997558  -0.0260341  -0.2065436
   0.3814901  -0.4072509  -0.2037234   0.2127205   0.0347866   0.1446648
  -1.5570208  -0.3496214   1.0344205   0.1754539  -0.4157228   1.1938531
  -0.0302051   0.5731613  -0.1050557   0.6908988  -0.6604488  -0.5783685
   0.4926267  -0.4823736   0.6088727  -0.1483597   0.0854439  -0.1254051
   0.1617185   0.0362693   0.0272431   0.2144615   0.6968542  -1.3076502
  -1.0547239   0.7703611  -0.5501160   0.9101480  -1.2779787   0.3227641
   0.0782326   0.2242765  -0.0361247  -0.1603071  -0.1533501  -0.3650091
  -0.0533174  -0.0786293  -0.0937962  -0.5827919  -0.7070164  -0.0524126
   0.1084774  -0.3223754   0.3624393  -0.4130649   0.9967146  -0.8904910
   0.0266065  -0.1893652  -0.1363962   0.0235510   0.0042306  -1.5518084
   0.0090579  -0.0809023   0.0360558   0.1463324   0.7469707   0.1109257
  -0.3034068  -0.1078309   0.5429428   2.6013561   0.3320808   0.6272644
  -0.0013944  -0.2414881  -0.1961577  -0.9396155   0.5599736  -0.5558489
   0.1781440   0.2602855   0.4725128   0.2481974   0.0685175  -0.4302986
  -0.1019347   0.0446843  -0.0704653  -0.3314166   0.3879672   0.9881629
   0.0122101   0.0518653  -0.1839725   0.9773655  -0.8737917   0.2471130
   0.3050106   0.3166876   0.2039530  -0.3070239  -0.9031996   0.1928228
  -1.0456240   0.2037139   0.1887833  -0.1228520  -0.9929674  -0.9273335
  -0.3042563  -0.1473335   0.0157915  -0.1192627  -0.2364070   0.1135536
  -0.1074003   0.0759178   0.0249181   0.7820134  -0.4017187   0.1062189
  -0.0044939  -0.3519374   0.1225081  -1.4641196   0.2787157  -0.7643137
  -0.0249269  -0.1226063   0.1694230   0.4244396  -0.4266140   1.3938918
  -0.0693821  -0.4857969   0.1776810   0.2029970   0.8889343   0.2140152
  -0.1298987   0.9081405   0.1991390   1.4200316  -1.3640573   0.2020273
   0.0863481  -0.2724399  -0.2065619  -0.1061488   0.5966304  -1.0972639
   0.5960592   0.3026752   0.3140474  -0.0019780   0.0493922  -0.0725796
   0.4349162   0.1855196   0.0749873  -0.4332576   0.1634496   0.5508041
  -0.6245711  -0.6701444  -0.1317936  -0.8268374   0.8087133   0.4039383
  -0.4875963   0.2178841  -0.0470275   1.1243151   1.6654432  -0.8111550
  -0.1020924   0.9938258   1.7940672   0.0424183   0.4976602  -0.2828048
  -0.9387913  -0.0182584   0.6157726   0.7524755  -0.0020060  -1.0801520
   0.2139867  -0.0350991   0.2282993  -0.2855986  -0.9291149  -0.3622581
   0.0521681   0.3102656   0.3579761   0.0405931  -0.0849829  -0.0884369
   0.0672681  -0.1010146  -0.1655947  -0.1434446  -0.1741028  -0.0578516
   0.4800168   0.1333569   0.3463714   0.5907866   1.4115845  -0.3056310
   0.0260905  -0.1191016   0.1139604  -0.5823894   0.6484411   0.0132996
  -1.2894554   0.3561225  -0.6424250   0.0519330  -0.4367164   0.0661202
   0.0958624   0.1603981  -0.7743489  -0.2386556  -0.0484526  -0.6164275
   0.2335385  -0.0738875   0.1181106   0.3724230   0.4298244   1.2139210
   0.0904932  -0.0369501  -0.0587133  -0.0863673  -0.0562021  -0.4458004
   0.1565965   0.2194756   0.0212251  -0.6150399   0.9803959  -0.5380446
   0.0611324  -0.3753878   0.0485976   0.8517649  -1.1141961   0.3325768
  -0.0328635   0.5995550   0.4195526  -0.0404717  -0.1362582  -0.1941639
  -0.1914823  -0.0044503   0.1467856   0.3439176  -0.2159335   0.1448107
  -0.5911024  -1.2816081  -0.0327093  -0.2634127  -0.2245831  -0.2421843
   0.1895737  -0.4563464  -0.5405521   0.2402086   0.1061523  -0.2199569
   0.5811506  -0.4377828   0.6217268  -0.0246183   0.7145848   0.4540320
  -0.1360949  -0.1036996  -0.0539081  -0.1763560   0.5766498  -0.7716768
   0.0590462  -0.2807739   0.1011442  -0.1774658   0.2711791  -0.0664682
  -0.0240336  -0.3280778   0.1714512  -1.2491818  -0.6258260   0.6916435
  -0.2116773  -0.0176434   0.1696556  -0.8959588  -1.9619989   0.5574064
   0.1568914  -0.1515789   0.0900020   0.2480095  -0.4583634  -0.1773315
   0.5201153   0.8965103  -0.4708597   0.1903314   0.0837498   0.3364901
  -0.9116601   0.9708059  -0.2138956   1.1694987  -0.0957184  -0.3166483
   0.1216607  -0.1085213   0.0662377   1.6132929  -0.6347667  -0.3790865
   1.0887428   0.7859668   0.0631125   0.2520009  -0.2584776   0.2541812
  -0.0616875   1.1912356  -0.0081887   0.1497114  -0.0578604  -0.2130070
  -0.1969103  -0.0650177   0.5502045   0.5251616  -0.2478029  -0.7961338
   1.2480532   0.0859221   0.3251552   0.1436477   0.0924634  -0.4205878
   0.8052557  -1.0288851  -0.5076047   0.9337522  -0.4083369  -0.1905101
  -0.3206648  -0.0253187  -0.0232850   0.1246837   0.1088408  -0.3363001
  -0.0802816  -0.2305719  -0.0663439   0.4338394  -1.3412190   0.6737267
  -0.2262745  -0.1524020   0.0905900  -0.9121918  -0.5919575  -1.2211310
   0.5363213  -0.0369542  -0.0451762  -0.2774895   0.1424658   0.5842729
   0.1316050   0.5861000   0.6577735  -0.1200208  -0.3119851  -0.2865754
   0.0259773   0.0310973   0.1557101  -0.1591563  -0.4651226  -0.4864801
   0.2801954  -0.0025569  -0.0948972  -0.0532130  -0.1425423   0.3238348
  -0.0686129  -0.2920307   0.1033748   0.2183042  -0.1350255  -0.0347482
  -1.4650854  -0.1208339   0.0562077  -0.4323470  -1.2478458  -0.2599823
  -0.2090959  -0.1264946   0.4282473   1.2910415   0.0759550  -0.4686332
   0.7680951  -1.0115195  -0.7594634   0.1112516   0.0658593   0.2339922
   1.8424665   0.5341155   1.5488573  -0.7719394   0.7774605  -0.1693265
   0.1465028  -0.0942340   0.2217142   0.6258775  -0.4334348   0.5472089
  -0.1710769  -0.0769382   0.0754380   0.2987103  -0.2040872   0.1856633
  -0.0844752  -0.0438575  -0.1209928   0.9936333  -0.3305710  -0.3870109
   0.0485705   0.1906879  -0.2104923   0.1391357   0.9427036  -0.9379787
  -0.1350559   0.0315142   0.0569295  -0.4780803  -0.7983025  -1.0126990
   0.1301606   0.3931750  -0.1122105   0.0035445  -0.0277023  -0.0012961
  -0.0810649   0.3095784   0.2028807  -0.9539514   0.3579190  -0.1933524
   0.3391903   0.2333780  -0.0684962   0.4036002  -0.8622400  -0.5952168
   0.2766025   0.1457891   0.3825043   0.0911265  -0.0520722   0.1764685
  -0.1133836  -0.0193106   0.1221898  -1.8695330  -0.3576441  -0.6481983
  -0.1168572   0.1577843   0.1231834   0.4376805   0.9415805  -0.8215987
  -0.1557782  -0.0629820  -0.1842659  -0.1713905   0.1913333  -0.0132889
   0.0022515  -0.0923865   0.2293893  -0.0830962   0.1306415  -0.1717616
  -0.2928373   0.2577887  -1.1580051  -0.3269142   1.2154862   0.9209515
  -0.1152238   0.2242546   0.1840495   0.7944035   0.2238696  -0.7393602
   0.1131961  -0.1744750   0.8263934   0.2966740  -0.0735528  -0.1823481
   0.0973364   0.2242925  -0.0192053   0.8065349   0.7100293  -0.0179793
   0.3376828  -0.3166860   0.1199521  -0.0899503   0.4195446   0.6988301
   0.1262312   0.3887164  -0.1213822  -0.2318831   0.2400386   0.0161770
   0.1324087   0.0546283   0.1218104   1.1568416   0.0626045  -0.4344037
   0.1038589  -0.1507115  -0.2413368   0.8638535  -0.1510977   0.1023255
  -0.3242939   0.1015964   0.0798555  -1.6045377  -0.2179281  -0.4692640
  -0.4994787  -0.4278119  -0.2135978  -0.0477329   0.0773508  -0.0120912
  -0.5505052  -0.0077214  -1.4528662  -1.7776226   0.0886694  -0.3692995
  -0.3330207  -0.2274560   0.0177359  -0.1977319  -0.1803999  -0.0882965
  -0.2972755   0.1038845   0.2935454  -0.3645183  -0.8264828  -0.1786040
  -0.7416251   1.0505167   1.0763195  -0.1053249   0.1363121   0.0403973
   0.3692734  -0.3901761  -0.0089484   0.1403681   0.0232657   0.5740341
  -0.0966160   0.9602432  -0.1933828  -0.2792917   0.2279839   0.0767834
  -0.4369155   0.9984675   0.4009124  -0.0141637  -0.0527785  -0.1777301
  -0.6385969   0.0429467  -1.4962144   0.9329553   0.0370330  -0.0394692
   0.0570602   0.0435654  -0.1993543   0.1995277   1.0971256  -0.9287436
   0.2570183   0.4485451   0.0226282   0.4777436   0.1290275  -0.1039790
  -0.0182793   0.2255244   0.1488568   0.0000267   0.9184695  -0.6037594
   0.1753506  -0.0211000   0.6030402  -1.2127983   1.3469129   0.7036074
   0.4047070  -0.1127499   0.3335863   0.6174163   0.3436676   0.3765380
   0.4430628  -0.6648700  -0.8254320  -0.2086107  -0.1160142   0.1760631
   0.1778805   0.3461383  -0.1411656  -0.3986443  -0.0572200  -0.0466228
   1.1959571   0.0414394  -0.6462758  -0.2919786  -0.7104494  -0.8938443
  -0.0594233  -0.1198699   0.0074577  -0.1040570  -0.0074780  -0.1190963
   0.3024715  -0.3279119  -0.0670154  -0.3565169   0.5199434   1.4616291
  -0.2108299  -0.1302563  -0.1237096  -2.1534804  -1.9307728  -0.4182446
   0.3133638  -0.4776680  -0.1316684  -0.0766847   1.0111697  -0.1067572
  -0.0297202   0.4114100   2.2470993  -1.3370343   0.9135846   1.2941590
   0.0476061  -0.1191295  -0.1864913   0.3348211   0.0368736  -0.1258390
  -0.0331910  -0.1528080  -0.2926771   0.0901937   0.2133702  -0.1348126
   0.7016677  -0.3808464  -0.6060204  -0.7533211   0.2697106  -1.2243448
   0.1109680   0.1589092  -0.4522726   1.2764718  -0.5897212  -0.2245495
  -0.5843400  -0.0990972   0.0787412  -0.0606626   0.0794830  -0.1846364
   0.6124699  -0.1129701  -0.0667458  -0.5431825  -0.8427602  -1.3018252
   0.2027017   0.0193031   0.1429952  -0.2594999   1.0320727   0.3638888
  -0.1333361  -0.0398319   0.2701030  -0.2480412   0.1272892  -0.0145810
   0.1392114  -0.4007300  -0.1330107  -0.4268854  -0.2589739   0.6423241
   0.1601724  -0.2398246  -0.0098474  -0.7301788   2.4365916   0.5826809
   0.0424226   0.0626614   0.0403730  -0.3659619  -2.3916471   0.5858580
   0.5814373  -0.2172821  -0.0689635  -0.1473676  -0.3451719   0.0117320
  -0.0569049  -0.5795562  -0.3855123   0.3020690   0.9069986   0.3139064
  -0.0245651   0.1983194  -0.3720232  -1.6645965  -0.1439119  -1.0842038
  -0.9313078  -0.0778608  -1.0270353   0.0869314   0.2041667   0.0945926
   0.0093121  -0.0456996   0.0496436   0.7780475   0.5225951   0.2359858
   0.0423895   0.5007727   1.4640905   0.1354683   0.3394375  -0.2306321
  -0.1022946  -0.2212786  -0.0826143   0.0860977  -0.1229110  -0.3897505
  -0.2502251  -0.5868012  -0.1628919   0.0887672   0.1058798   0.0622712
  -1.5740562  -0.2257533  -0.4449053  -0.2312236   0.3595725   0.1814252
  -1.0619783   0.0767925   0.8763775   0.3467047   0.0798291   0.0453581
  -0.3590715   0.1776946  -0.5258573   0.5641914  -0.9879587  -0.4043241
   1.0362374  -0.6813072  -1.1021874   0.0887139  -0.2807114   0.0369169
  -0.6099824   1.8199646   0.6031962  -1.1131087   0.1280189   1.0391906
   0.3122885  -0.1137701  -0.0081331   1.6964535   0.2167181  -1.1910307
  -0.6350041   0.6281135   0.2190757   0.7392930   0.4808065  -0.1674848
   0.2011477   0.2859099  -0.2608940   0.1691425   0.2385755  -0.0802437
  -0.2174453   0.1770015  -0.4776486   0.6215524   0.5690777  -0.0647525
   0.0154009   0.0337139  -0.0736070   0.7434627   0.7891454   0.0903410
   0.2437841  -0.0406503  -0.1524813   0.2748318   0.0378121   0.9718062
  -0.8913118   1.4691678   0.1824373  -0.0437219   0.4521132   0.0822208
   0.1312028   0.1289011   0.1710878  -0.2642871   0.1047487  -0.1643910
   0.1811391  -0.0735985   0.0680201  -0.1503178  -0.3243761   0.3410955
   0.1735488   0.0532085  -0.0474974   1.1249080   0.8890072   0.1356917
  -0.1300505  -0.3638522  -0.2159316  -1.0488020   0.1918203  -2.1871777
   0.1069989   0.0230442   0.2802767  -1.4927442  -1.1910514  -0.3099302
   0.1485824  -1.0879429  -0.3481442  -0.1362362   0.0937126   0.1418324
  -0.7902460  -0.4393057  -0.6757029   0.3778190  -0.4847307  -0.2465599
   0.1874592   0.0171848  -0.0486938  -0.2187645   0.1372369   0.1374370
   0.0990377  -0.2215669   0.0810808  -0.4312140   0.4640429  -0.1480616
  -0.2029712  -0.1034601  -0.2359706  -0.0581069   0.2236451   0.0653849
  -1.3542227   1.2234675  -0.7476119  -0.2389082   0.2203639  -0.3074860
   0.4537655   0.2440179  -0.8439035  -0.1576924   0.0469030   0.4804427
  -0.9849772  -0.5078880  -1.0190810  -0.3170921  -0.6820191   0.3920070
  -0.1512760   0.0086054   0.1157551   0.2143441  -0.8430759  -0.0633061
   2.3172595   1.5083039   2.3299322  -0.1643051   0.1200248  -0.3023173
   0.4461335  -0.2701815   0.0401045  -0.0199787   0.1233638  -0.0935733
  -0.2475378   0.0520551   0.2756160  -0.1037990   0.1482018  -0.3986077
   0.1705048  -0.2243974   0.2006947  -0.0486705  -0.5615275  -0.7633412
   0.0425293  -0.3873911  -0.0874887   1.9418299   1.2181096   0.2662663
   0.1333348  -0.0897034   0.0832026   1.2744810  -0.0011075   0.8290850
  -0.2328536   0.4298462  -0.9229586  -0.1190080  -0.0602772   0.2703535
  -1.0847303  -0.3153256   0.2644720  -0.1096028   0.0356293   0.9695823
   0.0744524  -0.1498669   0.2036103  -0.6709194  -0.8007565   0.6237713
   0.3479647   0.6103820  -0.2129112  -0.1330740  -0.1761312  -0.3525466
  -0.7830644   0.0625330   0.4216290   0.3195658  -0.0326034   0.1354839
   0.2348578   0.0883718  -0.3114098  -0.1719567   0.4133997   1.5760249
  -0.8095210   0.0130862  -0.3034487   0.0942010   0.0194301  -0.0822774
  -0.0061317   0.6774330   0.6506744  -0.3435395   1.2731073   0.3293151
  -0.4487038   0.3462380   0.6826255  -0.0412362  -0.1575379   0.3632512
   0.3462711   0.0577935  -0.1957164  -0.3354465  -0.6473830   2.0938229
  -0.1447289  -0.1862954  -0.1168142   0.8189355  -0.4672010   0.5346163
  -0.1297301  -0.1494109   0.2448728  -0.1902560   0.9174380  -0.4278168
  -1.8027719   0.1760577  -0.4309650   0.3979817  -0.1927977   0.1634010
   0.0096177   0.3079101  -0.7930967  -0.9485499  -0.2549492  -0.0011154
   0.2162617  -0.0090034  -0.0572495  -0.0359348   0.0195039   0.1358706
  -0.1545720   0.3022103   0.1143309   0.1731206   0.3613678   0.0586105
  -0.3363243   0.1544011  -0.2059324   0.0589705  -0.1326810  -0.3512936
   0.5608703   0.6086861   1.2567008  -0.0245146   0.0664674   0.1938753
  -0.3033800   1.0916398   0.4843743  -0.1281009  -0.1398774   0.1875512
  -0.7262599  -0.1113961   0.7848205   0.0839389   0.2897210  -0.0099257
   0.8757280  -0.6010643   0.0152820   0.3418719   0.1931752  -0.0591691
  -0.4439178   0.2352169  -0.3335101   0.2321371   0.0078256  -0.0207872
  -0.1209837   0.4261100  -0.4015963  -0.3321540   0.4531081   0.3862525
  -0.2139829  -0.2731527  -0.3113382  -0.3097264   0.4032075   0.5209401
   1.5855377   0.6959584  -0.0322544   0.2436211   1.0635018   0.3030838
   0.0623568  -0.0596613  -0.0824938   0.3286950  -0.0758078  -0.2265955
  -0.3272157   0.0281753  -0.1593276  -0.2391559   0.0556192   0.1970408
   0.7861388   0.0582950  -0.3969404  -0.8998881  -2.2664092  -0.2949484
   0.1054890   0.3586039   0.0880905  -0.0999482   0.1395874   0.1766554
  -1.5976185   0.1506465   0.9005321  -0.0865083   0.0019319   0.3637462
   0.1588931   0.9754258   1.3016829   0.5675672  -0.2995775   0.2574725
   0.3271902  -0.0031386   0.0392299  -0.0677939   2.3629738   0.5620461
   0.1755739  -0.1887328  -0.2288742   0.2218949  -0.2775118   0.0333864
   0.2815164  -0.0014030   0.0582844  -0.2665537  -0.1076447  -0.4704853
  -0.2996365  -0.0061669  -0.4809223  -0.3150319  -0.6226148   0.7042960
  -0.2169300  -0.3983807  -0.0032556  -0.1018838   1.2717129   0.0155298
   0.4359123  -0.6930955  -0.8076889   0.1622822  -0.3797327   0.4089457
  -0.6085625   0.2361718  -0.6576779  -1.5289248   0.6685086  -0.6675196
  -0.2045432  -0.2158746   0.0528636   0.1022751   0.1020920   0.0377738
   0.1203911  -0.0501663   0.1042033  -0.0034384  -0.2006103  -0.2111317
  -0.0267202   0.0691279   0.1420723   0.2068485   0.2941190   0.0747658
  -1.5326694   0.0932169   1.0937178  -0.1523141   0.3467749   0.0396956
  -0.9638574   0.5186841   0.4143892   0.3187744   0.0866173  -0.3768503
   0.5060844   0.3165360  -0.2300043  -0.0060417  -0.0974192   0.7333228
   0.0909218   0.0836180  -0.3161136   0.9687788   0.4024016   0.4970683
  -1.3501000   0.0836103   0.9411827  -0.1972282   0.0744825   0.1176887
  -0.3274475  -0.0620315  -0.2529308  -0.6538283  -0.2157568  -0.1805460
  -0.2107997  -0.1223045   0.1819289   0.4991436   0.3705116   0.3765486
   0.1102976  -0.0030653  -0.0336605   0.0265856   0.5091431   0.3075458
  -1.4622286   0.6501263   1.0899467  -1.0865140   1.4072734   1.0156030
   0.3613480  -0.0787847   0.0918412   0.3246090   0.4893767   0.1288822
   1.5356722   0.7812114  -1.3068126  -0.2444500  -0.0272313   0.2156814
  -0.2056757   0.2207710   0.1686135   0.1817604  -0.3209211   0.2605112
   0.0572228  -0.2991071  -0.7416602  -0.2866820  -0.2106095  -0.1520569
  -0.8179417  -0.2667854  -1.2357958  -0.0014576  -0.1880524   0.2258963
  -0.1828364  -0.2691321   0.5893662  -1.1209037   0.4273324   0.4624740
  -0.2211325   0.0533756   0.0647099  -0.2105030   0.1189154   0.2005195
   0.3438655   0.5145158  -0.1934458  -0.3036937  -0.1437878   0.0409304
   0.0068567  -0.4182768   0.2199517   0.6000007   0.6596204   0.3217571
  -0.0110918   0.4668678  -0.1410772  -0.3356638  -1.4329631   0.5913359
  -0.0671745   0.1836806   0.1686006   0.1404878   0.0251216  -0.5663621
  -0.4283811  -1.3585831   0.1132443   0.1265257   0.0329257  -0.3016342
   0.5315933  -0.0610732   0.4708475   1.0697659   0.6469425  -0.3489894
   0.0204267  -0.1730543   0.0155220   0.1226519  -0.2003435   0.1639251
  -0.1372429   0.1039470  -0.2353190  -0.3445773   0.0907162   0.0085043
   1.0865431   0.4375208   0.3844144   0.0568280   0.3286921   0.1746723
   0.1331062  -1.4074714  -0.7707827   0.1236805  -0.0922745   0.4377012
   0.9910116  -0.6819524   0.2169347  -0.0765942  -0.0407417   0.1608939
  -0.6709552   0.6574991  -0.7170265  -0.0191680  -0.0736670  -0.0894071
   0.2426592   0.0235871   0.1909204   0.2630148   0.0311162  -0.0971257
  -0.1895349   0.0135334  -0.0870628  -0.1973426   0.2140458  -1.2004034
  -0.0753377   0.2325466  -0.3125511   0.0940942   0.7887352  -0.8897086
   0.2455630  -0.2725864  -0.1004485   0.3495219  -0.8178259   0.5135074
   0.6452748  -1.0557470   1.3756770   0.0305656   0.0366866   0.1001370
  -0.0664656  -0.0806615   0.0312244   0.1183512  -0.0102494  -0.4050725
  -0.0265455   0.4915628   0.5425219  -2.7852387  -0.7978372   0.2092947
  -0.3087635  -0.1220545   0.1937377  -0.3572655  -0.2334733   0.2128259
   0.1965974   0.2608668  -0.3831719   0.7358463  -1.3397470   1.8231092
   0.2673601   0.2295711   0.0742094   0.4433366  -1.3840660   0.5536929
   0.0527776  -0.0191247  -0.2496267   1.7730210  -0.4069665   1.1381125
  -1.0126868  -0.3965416  -0.7100559  -0.3584920  -0.0744042   0.1727551
   0.2677985   0.6694341   0.5814728  -0.4383930   0.0709817  -0.3047083
   0.0790966  -0.2941796   0.1557439  -0.0055906   0.1561665   0.1441236
   1.2501793  -0.2317633   0.5844698   0.0920323   0.3249058   0.3879380
   0.8243308  -0.3459492  -2.1380000  -0.5841175   0.4319517  -0.2137788
  -0.1899254   0.0354997  -0.2821994   0.0042660  -0.0166112  -0.2438167
   0.0376387   0.4181519   0.0780930   0.5084633  -0.6313508   1.5686342
   0.0212593   0.0260373   0.0529708  -1.2904681   0.1076775  -0.0145910
  -0.2895262  -0.3448695   0.3281339  -0.1263805  -0.1493227   0.4868082
   0.1455696  -0.2794242   0.8093366  -0.2805908  -0.1748119   0.2926905
   0.1158346  -0.1230404  -0.0900450  -0.2434835  -0.0602313  -0.4761395
   1.4438772  -1.4810190   0.6574200  -0.0594735  -0.1883796  -0.4489007
   0.6638110   0.3401444   1.1679762   0.3160706  -0.0861947  -0.0120038
  -0.4341230   0.7200543  -0.2861506   0.3173823  -0.2765779   0.4245050
   0.1601193   0.3861331  -0.3252531  -0.2568271  -0.3658745  -0.0768289
   0.0829764  -0.4567023  -0.2909199   0.4949128  -0.0221379  -0.3029775
  -0.2407611   0.4285900   0.0549516   0.0880410  -0.1124695   0.0949820
  -0.0659861   2.0413304   0.7836630   0.5407654  -1.1899518   0.9136565
  -0.2799022   0.3058234   0.0052276   0.4212716  -0.3780726   1.7950565
   1.4174005   1.3450427  -0.1651013  -0.0132166   0.3372411  -0.1564368
  -0.0413825   0.1998195  -0.3446362   0.0054154  -0.0864703   0.2066124
   0.1696499  -0.1998948  -0.2282980  -0.2179260  -0.1240776   0.1552530
   0.1191567   0.2075188  -0.0297206  -0.5778886   1.3556645  -1.2806218
  -0.1986981  -0.0313573  -0.4376296   0.0134808   0.0665375   0.6563825
   0.1595470   0.0257806  -0.4268176   0.2268004   1.3358080  -0.1085174
   2.5045785  -0.0706291  -0.0978025  -0.4031698   0.2365155   0.1317416
   0.2172183  -0.3213729  -0.1106255   0.6054560   0.7624421  -0.9906401
   0.3875324   0.0493502  -0.0962835   1.3702641   0.4813231   0.8983849
  -0.1395461  -0.2191494   0.1806058   0.0449842  -0.1849214  -0.3319479
   0.7294490  -0.3260742  -1.4531273  -0.1250749  -0.0284231  -0.4110782
   0.4168062   0.3208044  -1.4458615  -0.1868586   0.0207380  -0.0276813
  -0.8313781   1.1253849  -0.0628919  -0.3665112  -0.1328946   0.2535958
   0.5205222  -0.2470257  -0.1195302   0.2722583  -0.1807595   0.1569319
   0.1927827   0.2552386  -0.4333801  -0.0315873   0.0438112   0.0162942
  -0.0278601   0.3954201   0.1732761   0.4701984  -0.6156217   0.4600431
   0.0335544  -0.1245616   0.2485469  -0.7848903  -0.1250011   0.4469451
  -0.2226278  -0.0388250  -0.1821539   0.0033215   0.4073237   1.1097806
   0.4431035   0.2090478  -0.1923452  -0.9452827  -1.4784111   1.0738356
   0.2009264   1.8403044   1.1087503  -0.5409039   0.5623141  -0.2893367
  -0.0397319   0.1332009   0.1752617   0.3073827   1.0483992   0.2583072
   0.3133164  -0.3303649  -0.0588210   0.6325176   0.2917853   0.5262401
   0.0208282  -0.1297376   0.1420446   0.0750634   0.0421754  -0.1205447
   0.0080805  -0.3294597  -0.4560573  -1.0468589  -0.8013902  -0.1132225
   0.0887265   0.0562543  -0.0318833  -0.5006257  -0.0595942  -0.4630590
   0.1573451  -0.3462423   0.0456092  -1.3476289  -0.8576371   0.6450964
  -0.1007110  -0.2455529   0.4261106   0.3705120  -0.1288713  -0.3057060
  -0.3979698   0.6645753   1.3095535   0.0039021   0.7706172  -0.9616346
   0.3892382  -0.2359460  -0.2162864  -1.3697203   0.4618843   0.5373579
  -0.1203894  -0.5979133  -0.1118355  -0.1702532   0.2037526   0.1667544
  -0.1371761   0.1868979   0.1656638  -0.6420866  -0.0572130  -0.0430726
   0.2346963  -0.1179575  -0.1153759   0.3022458   1.6372171   0.3781451
   0.1517330  -0.2276395   0.2121270  -1.7511816   0.1195587  -0.3428064
  -0.9432128   1.2040765  -0.0670151   0.1186136  -0.3041973   0.2956335
   0.0640228  -0.1903382  -0.2937109  -0.3424057  -0.0339566  -0.3507304
   0.2239497   0.0783259   0.0116094   0.0580552   0.0345062   0.0746605
   0.2088450   0.0531657  -0.0025139  -0.0377091  -1.0819959  -1.0278881
  -0.3482062   0.3381174   0.5381132   1.0832107  -1.0869442  -0.8238962
   0.0415359  -0.0237840  -0.1192240  -0.4132623  -1.1305497  -0.8583388
   0.3154051   0.2897569  -0.5917329  -0.1061913   0.1322088   0.2029578
  -0.0610094   0.3149664   0.1263423  -0.0111393   0.4864457   0.2961479
   0.2030256  -0.0233792   0.0082648  -0.1749444   1.4732913   0.4344124
   0.1736365  -0.0127504   0.1446283   0.6267537   0.2028021  -0.3282407
  -0.0239275   0.2064154   0.1496465  -0.7070410   0.3197542  -0.5208603
   0.1008003  -0.2467088   0.0654357   0.5152725  -1.1914516   0.7382772
   0.0251096   0.0922233  -0.4963006  -0.2945343   0.2976422   0.1647046
  -0.0538846   0.1557586  -0.1325434  -0.1647561   0.3636371   0.2080177
   0.1345921  -0.2075326  -0.1369053   0.9408399  -0.3415936   0.1554747
  -0.3851251  -0.2488237   0.2525410   0.3580992  -0.8724811   0.9160321
  -1.5044485   0.3789823   0.9215005   0.1394586   0.0950934   0.4828601
  -1.0489308   0.9944039   0.9437036   0.5585998   0.0608610   1.2809410
   0.1005666  -0.2289758  -0.2190826  -0.1954082  -0.2375287  -1.1177200
  -0.2299392  -0.0880689  -0.4864115   0.0735741  -0.0090050  -0.2436351
  -0.0292772  -0.8430305   0.1388552   0.0292901   0.1946250   0.6905897
   0.1265076  -0.0665724  -0.1386527   0.2126267  -0.2856257   2.0858894
   0.2663594   1.1196404  -0.2676219  -0.2241197   0.9435766   0.5032010
  -0.4252965   0.1279138   0.3347121   0.0706260  -0.1760501   0.2047959
  -0.1125298  -0.0544896   0.0037744   0.3085546  -1.3132815  -0.6139057
  -0.0096810   0.3695870  -0.0821473   1.2976945  -0.6150770  -0.9438998
   1.4511627   0.2702146  -0.9245695  -0.1963732  -0.3300225  -0.0966505
   0.1031088   0.2921584   0.1806049  -0.0380700  -0.1169142   0.2562307
   0.9539261  -0.1915023  -0.1129877  -0.0714225   0.2697351   0.0082004
  -0.2486699   0.7191149   0.3793039   0.1195135  -0.1171197   0.1587716
  -0.5917542  -0.6748672   0.2938976   0.1632057   0.2292471   0.8739442
  -0.1289594  -0.1391324   0.1279925  -1.0233298  -0.6653098   0.4775639
   0.0482005  -1.8661060   0.6922582   0.0554925  -0.3865645  -0.3435116
   0.2038481   0.0924430  -0.3214807   0.5194799   1.3123091  -0.1391006
   0.0924943   0.2076436   0.0733008  -0.0687607   0.0180742  -0.7889888
   0.5434635  -0.2859831   0.7635661  -0.3294783  -0.0821615  -0.1896864
  -0.1595577  -0.4501179   1.2445958   1.4445816   0.0596792  -0.2828682
  -0.4449714   0.2277470  -0.6173440  -0.1718469  -0.0620123  -0.1763485
  -0.0732041   0.2397847  -0.1041105  -0.0185157  -0.1044909  -0.0595550
   0.0622439  -0.8395334  -0.0945353   0.1411734   0.1669448   0.0052373
   0.7675128  -0.4384071   0.7240611  -0.3140271   0.1271328   0.2214362
  -0.2888168   0.1576554  -1.3225963  -0.0601779  -0.2068330   0.0085591
   0.4855672  -0.1790247   0.6816782   0.2829146  -0.8143645  -0.2357749
   0.2811903  -1.0425695  -0.0393262   0.0939736   0.1954359  -0.1636473
  -0.8261963   0.5556238  -1.0128125   0.1096410   0.2845293   0.1629925
  -0.0545052  -0.0910492   0.1964477   0.1991385   0.2458479   0.0216250
  -1.0838347  -1.1988741  -0.3596803  -0.2336174   0.2517146   0.2161744
  -0.4411949   0.2467757  -0.2392430  -0.0568146   0.1766182  -0.1781955
   0.4611658  -0.1877283  -0.0505489  -0.2648994   0.0878839  -0.1134668
  -0.5385045   0.3782209   0.2223810  -0.8476541  -0.2816728   0.6502157
   0.6593437  -0.4903493   0.0371537   0.0436938  -0.1076359   0.0626316
  -0.6225382   0.2240039  -0.0448676  -0.0614424   1.3864665  -0.2053859
   0.4214751  -1.5061045  -0.2515195  -0.2664241   0.3700331  -0.2035552
   0.1225990   0.0866809  -0.0410455  -0.1274224  -0.0633405   0.0872134
  -0.1627642  -1.2108074  -0.7091892   0.2759167   0.1760032   0.0598107
   1.0852030   0.8533588  -0.8035001  -0.0846039   0.2930470  -0.1458390
   2.0816905  -1.3238960  -1.2817833   0.0986386   0.8395600  -0.1025347
  -0.1483953  -0.0450800  -0.0319127  -0.3981252   0.1010311  -0.0850541
   0.6931533   0.4728030   0.2639658  -0.5424726  -0.4278096  -0.0129999
   1.0581939   0.2331927   1.3706582  -0.0763439  -0.0436692   0.1439260
  -0.0021208  -0.0708070  -0.1270152   0.2720565   0.6459169  -0.2822811
   0.1982080   0.0302710  -0.4459199  -0.9502696  -0.0837236  -0.3624422
   0.0181173  -0.4463139  -0.1350065  -1.0500105  -0.4854265  -0.3311820
  -0.1403625  -0.1104510   0.1512402  -0.0450177  -0.7252150   0.4171917
   0.0303233   0.0874634  -0.2707287   0.0269342  -0.0443702  -0.1286948
   0.0578126   0.4398366   0.0816654  -0.1502351   0.2527128  -0.0722828
  -0.3946385  -0.3114166   1.0386921  -0.0346496   0.2447734   0.1497995
   1.8888183   0.1867440   0.5556390  -0.2089731  -0.3161816  -0.0872962
   0.5772874  -0.2914250  -1.8495129  -0.8952332  -0.2724563   0.4494315
  -0.0060335   0.1202835  -0.4057352   0.2853271   0.1503238   0.1038478
  -0.4144096   0.0243359  -0.0688777  -0.2096433   0.0938124  -0.0305478
  -0.6774746   1.4840701  -0.1703652   0.2366354  -0.0852714   0.2449475
   0.8732276   0.8634084   0.2430111  -0.0699815  -0.0368400  -0.0540547
   0.2090774   0.9158089   0.1701075  -0.2318121  -0.5223344  -0.4454657
  -1.0861751  -0.4582541  -0.4756453  -0.1385816   0.0048741   0.5762364
  -0.2625227  -0.1750548   0.0697682   0.0634366   0.1123934   0.1656987
   0.7376905  -1.6433788   0.9375553   0.0144962  -0.0360346  -0.0133184
  -1.3103740  -0.4131291  -1.3495463  -0.0957402  -0.0932532   0.3727276
   1.1452110   1.0123180   1.4040450   0.0579011   0.1264903   0.2681384
   0.3906439   0.2393913  -0.2338342   0.7820075   0.8396279  -0.7329172
   0.2138924  -0.5586854   0.2103521  -0.3515924  -0.1929839  -0.4208351
  -0.1046951   0.4268090   1.5651873   0.0854267  -0.5780743   0.1148370
  -0.6894187  -0.5362913  -1.0513247   0.1301734   0.1513984  -0.1186813
   0.0625748  -0.2055687   0.2749222  -0.0394857  -0.1761122   0.0618553
   0.4313849  -0.6498634   0.1915001  -0.3798970  -0.1202106   0.5446510
  -0.6166050   0.9037451  -0.0529160  -0.0203695  -0.3092687  -0.3518214
  -0.2735422   0.2055655  -0.5452685  -0.3804370   0.9489369  -0.8799898
   0.0990219   0.2685949   0.1342748   1.6277282  -0.1140482   0.5130844
   0.0221423  -1.4463756  -1.2988874  -0.0964227  -0.1234307  -0.0374450
   0.1113687   1.4001972  -0.0875587   0.0643046   0.1460811   0.2028491
  -0.2687814  -0.0166969   0.2449282  -0.3530497  -0.0668349   0.0411329
   0.7984723  -0.9466477  -0.3393019  -0.0657819  -0.3240639   0.0164459
   0.2831645   0.3008634  -0.0864060   0.6152665  -0.2184420   0.0059628
  -0.1072461   0.0632956   1.8478177   0.8752380   0.0135114  -1.0756599
   0.0736371   0.2614932  -0.0449885   0.0681023  -0.8444902  -0.1386273
   0.3551382   0.1409289  -0.0392495   0.0042376   0.1300061  -0.1814513
   0.2589481  -0.0576615  -0.1204406  -0.4920362  -0.5603033   0.1191122
   0.0895046   0.0556552   0.4175783   0.7084585   0.4785223  -0.7588462
   0.6080190   0.2069267   0.2178206   0.0878520   0.7845650  -0.4377427
   0.0893198   0.2606500   0.2567467   0.3974955   0.6943915  -0.7076605
  -0.1343483   0.4599457   0.2172660  -0.0338426   0.2185860   0.4845988
   0.1275421   0.4449127   0.2171975  -0.9244671  -0.3471574  -1.1358511
   0.0962502   0.7703689  -0.7523669  -0.0986242   0.4560420   0.2924410
   0.0654046   0.7062905  -0.6233818   0.2738142  -0.7409936  -0.6859370
  -0.3205694   0.7876331   0.1652595  -0.0456890   0.1163695   0.0022752
  -0.1022875  -0.2523502  -0.0112957  -0.2117419   0.0598997   0.2067138
  -0.0318481   0.4882067  -0.3190688  -0.1008694  -0.0825406  -0.0833899
   0.0256777  -0.4173304   0.5702999   0.3129776   0.2306196  -0.2286543
   1.3221083  -1.0215292   0.6182830   0.6314291   2.0974348   0.1300083
  -0.2079868  -0.1098980  -0.2306206   0.2981069  -0.0639049  -0.6802560
   0.7700871  -1.3879896  -0.0222382   0.0242109  -0.1250189   0.0159144
  -0.5490067   0.9952289   0.8283146   0.7135744   0.3241530   1.2725586
  -0.2528068   0.0508522  -0.0492469   0.1658975  -0.1708584   0.6387590
  -1.5926686  -1.1933424   0.4410206  -0.1347231   0.4193046   0.4200265
   0.0455878   0.5024370  -1.1004353  -1.7610901  -1.9179487  -0.2565076
  -0.9154099  -0.1965330  -0.3050013   0.0770147  -0.0118972  -0.1355711
   0.0465823  -0.0306951  -0.0895798   0.1604692   0.2730764  -0.0987914
   0.2401858  -1.2647142   0.6962364  -0.3055013   0.0756313  -0.1027680
  -0.2881899  -0.9477066   0.4115100   0.1073932  -0.0212058   0.0211286
   0.3149701  -0.4358325   1.0784943  -0.6722617  -0.2204661   0.0105098
  -0.4829775   0.8098510  -0.1497632   0.3507309   0.1706523   0.0976632
  -0.1095427   0.2026610   0.3059625  -0.2429977   0.1929056   0.0153746
   0.6342475  -0.1788652  -0.4535953  -0.4549209  -0.4122943  -0.3723629
  -1.0911479   1.1968571   0.1568349   1.6445810  -0.5838425  -1.7951880
   0.4749609  -0.3152966  -0.0084137   0.1736508   0.0445549   0.2065867
   0.0604415  -0.0840872   0.0748791  -0.5611557  -0.0636155   0.0046687
  -0.2244223   0.1561707  -0.1003986   0.0230109  -0.9906870  -0.1559252
  -0.5549392   0.0834936  -0.0127941   0.5002277   0.5644512   0.2963469
  -0.3169624   1.3603928   1.0741459   0.3163710  -0.0924412   0.0608075
  -0.0634788   0.0016556  -0.3398564   0.3011091   0.0936201   0.0957287
  -0.2447976   0.1631210  -0.2151626  -0.3576813   0.5379766  -0.3208108
   0.0759828  -0.2757588   0.0659741  -0.1451488   0.2038246   0.0117131
  -0.0744274   0.1652707  -0.4499338  -1.6822023  -0.1463224   0.6846168
  -0.0105193   0.0201199  -0.1096097   0.8180734  -0.8217367   0.4439697
   0.1742279  -0.1008991   0.0153947  -0.8874404  -0.1142571  -0.1947418
   0.5886165  -0.2762221  -0.0957706   0.2346989  -0.1978333   0.0864374
   0.0699989  -0.0577588  -0.1412609  -0.1212660   0.1473566   0.0507376
  -0.1280379   0.0766548   0.3380862  -0.4422579   0.1347145  -0.0685422
   0.0693081  -0.0097025  -0.0521299  -0.8081534   0.8494743  -0.2238251
   0.0250302  -0.0565246   0.3848507   0.1605352  -0.7004387   0.1904558
  -0.1789518   0.0466521   0.0215500  -0.1854209  -0.4870532   0.2322270
  -0.1600294  -0.2638325  -0.2743820  -1.0402477   1.4545768   1.2250215
  -0.0696535  -0.2258441  -0.0470721   0.7465893  -0.6772216   1.0370690
   0.3318609  -0.2355628  -0.0724944  -0.2968767  -0.6771866  -0.4178712
   0.3900646   0.8746211   0.3528309  -0.3133860  -0.2356011  -0.2719437
  -0.1835037   1.2214297  -0.3542931  -1.3854382   1.2143464  -0.5865762
  -1.3919371  -0.6089195   0.2739429  -0.0057781  -0.0778160   0.0692298
   0.0789778   0.0918315   0.1664653  -0.0060707  -0.2939509   0.1262905
  -0.2507169   0.6745359   1.0135634  -0.4012358   0.3479917  -0.1735877
  -0.5591370   0.6841787  -0.7805572   0.0064967   0.3289170   0.0308941
   0.8627236   0.5456688  -0.0532264   1.0794788  -0.1360478   0.6301890
   0.6542535  -0.5783206   0.3403660  -0.3297384   0.1091690   0.0089818
  -0.0151879  -0.3528236   0.0489414   0.0520608  -0.0321112  -0.3893306
  -2.0799724  -2.0789000  -0.7736856  -0.3924034   0.2155524   0.0098142
   0.8157201  -1.5862145  -0.5048444  -0.1096968   0.2406026  -0.2007847
  -0.9408430  -0.7862623  -0.0765754   1.0714141   0.4616804  -0.3122239
   0.3302261   0.3007280  -0.4418529  -0.2454824   0.0088485   0.2329575
   0.4040047   0.3408405  -0.0250980  -0.0764498   0.1362634  -0.2188487
  -0.3575289   0.1433347   0.1308549  -0.2629128  -0.1703264  -0.2798982
   1.8465529   0.3210247   0.0984812  -0.1451822   0.0346659   0.3890278
  -1.0346249  -0.3263353   1.3941553   1.4180940   0.5358513   0.5786586
   0.1237815  -0.0931357   0.0500860  -0.3099549  -1.0201146   1.2612415
  -0.4442113   0.2159384  -0.1231101   0.0806465  -0.1631795   0.4286857
  -0.3315840   0.0233821  -0.2321559  -0.6717174  -0.0409469  -0.1323272
   0.2045090   0.4707589   0.2931059  -0.0522857   0.8367662   1.1224113
  -0.0685487   0.0583570  -0.0772391   0.0234014   0.0836123   0.8599107
   0.3940253   0.1941783   1.4078029  -0.0184748   0.1788443   0.3250856
   0.1611301   0.3348479  -0.5818162  -0.3018228  -0.2440339   0.0018778
   0.4140691  -0.7121728   1.1115070  -1.4106211   1.2525388  -0.5237523
  -0.2216350   0.2377335  -0.6014302  -0.1553048   0.2936440   0.0278465
   1.1582275   1.3207620  -0.1864242   0.4196197   0.5549525   1.1633704
   0.1868242  -0.6743930   0.1369058  -0.1624046  -0.2640494  -0.1782739
  -0.0541624  -0.0650327  -0.0843354   0.1572782  -0.0101259   0.3190458
   1.5309428   0.2107769   0.2960885  -0.0166806   0.1890567   0.0769157
  -0.5330075   0.1887341   1.2861689  -0.0034984   0.0367313  -0.1612348
   0.4355450   0.7685730   0.8523184  -1.0879897   0.4259544  -0.8554808
  -0.0117616   0.2551624   0.2652800   0.3193084   0.1063027   0.3938870
   0.4976821   0.0451286   0.1909886  -0.2841899   0.0548307  -0.1019979
  -0.2630091   1.3285499   0.1831776  -0.8350564  -0.0085840  -1.4043529
  -0.0634412   0.4030923   0.0464199  -0.5543900   0.9321283  -1.0327268
  -0.1192745  -0.0101539  -0.0288101   0.0314971  -0.1316808   0.1024145
   1.1917285  -0.9008971  -0.3047792  -0.1135959   0.2589077  -0.5583516
  -0.0353602  -0.1600987   0.2818169   0.7919497   0.8766319  -0.4138791
  -0.1912833   0.0369376  -0.5013285  -0.0415479  -0.1263354  -0.0662047
   0.2282679  -0.2771849   0.1888517  -0.1356850  -0.1158466  -0.2000510
   0.8015003   1.1076216   0.7303597  -0.0173067  -0.1473458  -0.2786865
  -0.0466386  -0.0923556  -1.7275887  -0.7625356  -0.2854535  -0.1522785
   0.0363906  -0.0939669  -0.3174855  -0.4864019   0.1482219  -0.0839541
   0.1463717   0.5497772   0.2273342   1.3401510   0.3171830  -0.4367098
   0.6671313   0.0993853   0.6145235  -0.0337525  -0.2487187  -0.2923624
  -1.0235865  -0.3301465   0.0123010   1.9499095   1.2924304   0.4704438
  -0.2411639  -0.3048881  -0.0946061   0.0112779  -1.3455759  -0.4394443
   1.3831397   0.9343472  -0.8083427   0.0149470  -0.0975982  -0.2286776
   0.8718001   1.7142719   0.3477753   0.5316939   0.0241270   0.2396396
   0.4493695   0.2494287   0.0309279   0.0542460  -0.1005963  -0.0667854
   0.0526391   0.1476613   0.1658581  -0.1108346  -0.3412460  -0.0147865
   0.9736997   0.5858836   0.5576440   0.1090415  -0.0249798   0.0462718
   1.3392311  -0.4151381   0.3678115   0.2738664   0.0855890  -0.3455519
   1.7232403   0.6034338  -0.3939698  -0.1181093   0.9068809   1.2770033
  -0.0420372  -0.0829191   0.3738884  -0.2033309  -0.0074659   0.0624502
  -0.0038815  -0.3849741   0.1012378   1.1241204   0.3547999   0.1379350
  -0.5823988   0.0783869  -0.4773160   0.0325448   0.0247012   0.0938557
  -0.0320881   0.1337598  -0.0051604   0.0574234  -0.4197778  -0.2465524
  -0.0095486   0.6336353  -0.3876087  -0.2214164  -0.1492275  -0.4261519
   0.3701898   0.7054842  -0.3285061   1.6087293   0.3344364   0.0219489
  -0.4323709   0.0653827   0.2048095   0.1167174   0.0086342  -0.1274060
   0.3038780   0.1382536   0.2104813   0.3384942  -0.4022999   1.0718481
   0.0479698   0.2409301   0.2209166  -0.6007353   0.4026570  -0.0467154
  -0.0375390   0.2711661   0.0378145  -0.1438689   1.6004643   0.5719338
   0.8283215   1.3664868   0.6860158   0.4114160  -0.0650665  -0.4504418
  -0.2167241  -0.9387667   0.1329547  -0.9025919  -0.0226418   0.3801972
   0.1698138   0.0559984   0.0115046   0.4442839   0.3230574   0.6869437
  -0.1461323   0.1707797   0.4123203  -0.1632517   0.1273094   0.0859275
  -0.8805132   0.6676178  -0.2258347  -1.2672090  -0.4098116   1.0676967
  -0.1083867   0.1209377  -0.0008389   0.1812307   0.8235996  -0.8719079
   1.1637254  -1.1940891   0.1000218  -1.2869782   1.1464728   0.5992609
   0.4660900  -0.4975877   0.3015018   0.0427976   0.0938305  -0.0465671
  -0.1290251   0.0683033  -0.0078963  -0.6393700   0.1613451   0.1780383
   0.1288666   0.5555701   0.0944388   0.8047009  -0.4137344   0.7561389
  -0.2121401  -0.2519941   0.2018639   0.6467427  -0.4760399  -0.2680920
  -0.6218243  -0.5789284   0.9261283  -0.0892124   0.1891865   0.3190132
   0.3668959  -0.5712965   1.4611163   0.8287201   0.4403919  -0.9904958
  -0.3564358   0.1311399   0.3553001  -0.5335528   0.9178023   0.0354817
   0.6168907  -1.2849755   0.3650526   0.0351152  -0.1193706  -0.1139102
  -1.4703387  -1.2743008  -0.2882171  -0.7356509  -1.5484948  -0.2803974
   0.1499208  -0.2376010  -0.1200434  -0.4555034  -0.2296312   0.6596193
  -1.1428575   1.4173903   0.4131837  -0.1224873   0.1315181   0.6768733
   0.0355133  -0.3246709   0.0703449  -0.0902505   0.2777820  -0.1358005
   0.0106846   0.1652613  -0.0356173   0.0859604   0.5318637   0.4306318
  -0.0996618   0.1385057  -0.4191676  -0.3676168  -0.1313408  -0.9621994
   0.1034009  -0.0172218   0.0245652   0.5084211  -0.3977599  -0.0124811
   0.2660938  -0.0824810   0.3064116  -0.0516607  -1.2552111  -0.4645812
  -1.3903800   0.2308674   2.1051645   0.5507202   1.1363512  -0.4206822
   0.4954248   0.1483171   0.0053899  -1.5637243  -0.7113018   0.3275949
   0.6546529   0.7323153  -0.5738160  -0.1802973  -0.5291523   1.9452163
   0.0151822   0.3006319  -0.3128525  -0.5301651  -0.1593157   0.2356037
  -0.2260111  -0.1199720  -0.0397614   0.0753869  -1.0453747   0.6357017
   0.1252844   0.2189881   0.3717756  -0.0676983   0.5301622   0.4242881
  -0.1555413  -0.5315357   0.3024868   0.1996520   0.6190811   0.2181903
  -0.1636030  -0.2328061  -0.3827676   1.2137737   0.1204315  -0.0434184
   0.9486308  -0.6139541   0.0755938   0.7865906  -0.3096898   0.7685230
  -0.0223542  -0.0721148   0.2554241  -0.8095091   0.7315161   0.4651887
   0.6784764   0.4703572  -1.0214337   0.0756192   0.0472855  -0.4226935
   1.5861587  -0.9943615   0.8438234   0.4443205  -1.0655518  -0.4349182
   1.9484606  -0.7040584  -0.6747001  -0.2847165   0.1338820  -0.2843845
   0.0977501  -0.1741236   0.4143094   0.2370838  -0.0946495   0.1960395
  -0.6749399   0.6609645   0.1331679  -0.4189875  -0.0427645  -0.1731329
   0.1723609  -0.6908917  -0.2016492  -0.2958073   0.1164732  -0.1622537
   1.3232110  -1.3453062  -0.3600176  -0.4321767   0.2916368  -0.3564020
  -0.0247331   0.0169541   0.1847949  -0.3345738  -0.4630454  -0.4203723
  -0.6572900   0.1747564   0.2612534  -0.1536705   0.1706331  -0.0512465
  -0.1131874  -0.1630123  -0.1149255   0.0885057  -0.1119581   0.1616133
  -0.9744298  -0.2814763  -0.4450426  -0.7144208  -0.1029540  -0.9117114
   0.2159024   0.1731312   0.2486722  -0.0564671   0.3764384   0.0809684
  -0.1605074  -0.4741888   0.2551875  -1.3475543   2.2246856   0.3481950
  -0.1688496  -0.2489781  -0.0691188  -0.1810430   0.6504926   0.4973542
  -0.0061070  -0.1900760  -0.2609401  -0.4207792   0.5382187  -0.8145716
   0.5166749  -0.1923022   0.6600100  -0.5581998   0.2502542  -0.0531151
   0.5637547   0.3769977   0.5278332  -0.0600127  -0.0593131  -0.0472546
   1.1098306   0.8180630   0.1473940   0.4084987  -0.9439466  -0.5616837
   0.7176846  -0.3553152  -1.0490212  -0.4977157   0.2524460  -0.1803259
   0.2831598  -0.4038915   0.3676639  -0.8733523  -1.1579139   1.0397081
   0.1605506  -0.9345879  -0.6443366  -0.1226507   0.0177358   0.2372181
   0.1239653  -0.1101304  -0.2380242  -0.1720220  -0.3163411  -0.1396664
  -0.3214728   0.0431863   0.5101201   0.0092268  -0.2868585  -0.6238824
   0.8310505  -0.6741281   0.1152066  -0.2606095  -0.0601056   0.1410887
   1.8997034   1.3719799  -0.2573443   1.3306921  -1.8201479   0.1358398
   0.1684106  -0.5634168  -0.0646875   0.5747267   1.6286331  -0.2727722
   0.2622964  -0.0296227  -0.1462719   0.0762888   0.1173111   0.1095284
   0.0776516  -0.0185604   0.1597732   0.7531741  -0.4735815  -0.7024883
   0.1171841  -0.2760704   0.0302770   0.8270795  -0.6059406   0.7488582
  -0.0303302   0.1904331  -0.0548457   0.8957476   1.4372384  -0.3745511
  -0.0487315   0.4099097   0.1536826   0.0251292   0.2772368  -0.0714113
   0.6302856  -0.5159017   0.0588597  -0.0602738   0.6363347   0.1563852
   0.3023139   0.1291171   0.2892025   0.9329443   0.1600719   0.4061091
   0.9981806  -0.4139747   0.5241979   0.1716283  -0.0062609   0.1150205
  -1.0370301   0.2109242  -0.4119561   0.2664919  -0.2422135   0.1006678
  -0.0309549   0.0667970   0.2510296   0.1258772   0.7024986   0.1987131
  -0.0775306   0.0724381   0.9636900  -0.1699532  -0.0759732  -0.4767244
  -0.5862235  -0.2731421   0.0862307  -0.7192296  -0.0526020   0.5582673
  -0.0659018  -0.1873949  -0.4560473  -0.1414041  -0.1317141   0.5690801
  -0.1198100   0.1121178   0.1942108   1.1697525  -0.7352124  -0.2094272
   0.2039978  -0.2203957   0.0300513   1.5685571  -0.0880794  -0.8123972
  -0.1963955  -0.1266034  -0.1921654  -0.6021140  -0.6812178  -0.1726256
   0.3406311   0.3913523   0.2665388   0.0641132  -0.2133788  -0.4699995
  -0.0904791   0.3079557   0.3212929  -0.0550827   0.5555417   0.7817109
  -0.0912818   0.0179526   0.0647209   0.7398635  -1.5999007   0.3787789
   0.3153105   0.0111954   0.5086507   0.0737026  -0.1259391  -0.1140923
  -1.1196662  -0.3740054   0.6081593   0.3277579   0.1490083   0.6821629
  -0.2326046   0.1080660   0.0126501   2.1983814   1.1037053   0.7032604
   0.3048950  -0.2162673   0.8204865   0.1655688   0.3474184   0.6857265
   0.3064971   0.1369817   0.1282497   0.1070641   0.4121403   0.0771159
   0.4292790   0.0688555  -0.0203244   0.2550612   0.9115561   0.1172652
  -0.3122716   0.4559206   0.1079465   0.0586376  -0.2703485  -0.7103727
  -0.0155912  -0.1396726  -0.0272653   1.1482288  -1.0704188  -0.4648972
   0.0118465   0.2978633   0.2969259  -0.9948506  -0.0402883  -0.9618951
   1.1358612  -0.8643095  -0.0516354   0.8189714   0.1098384   0.0638363
  -0.0991870   0.2807714  -0.2261193  -0.1376580   1.3069985  -0.8894093
   0.0181666   0.2369904  -0.2269915  -0.0778113  -0.0770701   0.0869384
  -0.2316110  -0.0377503   0.1717773  -0.1364965  -0.7962743   0.2062229
  -0.1472775   0.6045859   0.2538350  -0.4977803   0.0158521  -1.2020038
   0.0918850  -0.4974680  -0.1093568  -0.0044189   0.9074114  -0.1388444
   1.2312022  -0.2864369   0.0434942   0.2286887  -0.2073776  -0.0006932
   0.1093083   0.0411536   0.2422545   0.0978872   0.1827631   0.6447918
  -0.2266613  -0.4460072   0.1624876   0.8742332  -2.3211651   0.0934762
   0.3246647   0.1429710  -0.3045565  -0.8088967   0.9335892  -0.0835534
  -0.2023823  -0.1777569  -0.1419454   0.6390659   0.3138820  -0.6657125
   0.1174274  -0.1723565  -0.1964837  -1.3478107   0.5111796   0.6569853
   0.1749018   0.1837321   0.1327400  -0.1976101   0.1880811   0.5485904
   0.0902740  -0.0646893   0.2078748  -1.1299970  -1.2593920  -1.6048323
  -0.0719691   0.0277381   0.2643533  -0.5299780  -0.0848164  -0.3530172
   0.4123267   0.0154427   0.0419644  -0.1998361   1.1382678  -1.7843810
  -0.5545811   1.4492745   1.6210141  -0.4324167   0.0928125  -0.0983357
  -0.0355438  -0.2309480   0.1035684  -0.1095353  -0.2026874   0.0234081
   0.0249742   0.6387595  -0.2917899   0.0250535   0.0097377  -0.0141335
  -0.2767328  -0.5062293   0.3362618   0.5301732  -0.9066965  -0.1412943
   0.2673834  -0.0079483   0.2802044  -0.2563924   0.5027180  -1.1836985
  -0.1952681   0.1268862  -0.0479821   0.4121123   0.6573152  -0.4785511
   1.1232351  -0.4958142   1.2560568   0.0027877  -0.1181706   0.1221460
   0.2273313   0.2151616  -0.0525629   0.0144905  -0.0884162   0.2095969
  -0.0328689  -0.3476453   0.1805263   0.0790945   0.0148118   0.0957541
   0.6805519   0.2916531  -0.4043063   0.0140214  -0.1389003  -0.0989512
   0.2600354  -0.3248005  -0.1205806   0.2318287   0.2576440   0.0885843
   0.0867149   1.7865662   0.3860786  -0.2958336   0.1683101   0.4382435
   0.1852897  -0.4379949  -0.0916884  -0.1948197   1.1638691  -0.1291522
  -0.4608781   0.4172291  -0.4730082   0.1943218   0.3976926  -0.0927721
  -0.0643196  -0.2734836   0.2767626   0.2282647  -0.1385025  -0.2887883
   0.0967806   0.2372775  -0.4131968   0.1714047   0.1098535   0.0801373
   0.0715177  -0.0941410  -0.0099104  -0.8469029   1.1394074  -0.8255975
  -0.0129410  -0.0621917  -0.1006570   0.7373630   0.2404450  -0.3073341
  -0.1327651  -0.1350973   0.2065329  -0.9034415   0.4327848   0.7891373
  -0.0451542   1.0876736  -0.5404582  -0.2476488   0.0673669   0.2078209
   0.2999976  -0.0131306  -0.1592778  -1.5808721  -0.0391902  -0.2335634
   0.3502143   0.1829577  -0.1173443  -0.4895184  -0.4687465   0.4778981
   0.1872038  -0.1001908   0.2735424   0.3132674   0.0850784   0.1810036
   0.5206487  -0.2917693  -1.2290928  -0.1451514  -0.0506818  -0.1922549
  -2.3361652  -0.7181787  -0.5444637   0.0109229  -0.0539782  -0.0160842
  -0.0536611  -0.8087390  -0.3138013   0.1304874  -0.3400550   0.0591219
  -0.2181791   0.2343915   0.0177609  -0.0600751  -0.1525197   0.1889757
  -0.4523796   0.4157317   0.9254261   0.1058481  -0.2721102   0.0498307
   0.4540068  -0.2305409  -0.8157953  -0.4322830   0.1445776   0.3588372
  -0.1273592   0.2255277  -0.2147437   0.2358657   0.0842835   0.0183473
  -0.0984015   0.4748641  -0.5727647  -1.2888771   0.0583168  -0.6724897
   1.0213897   0.3647528   0.1728894  -0.1746849  -0.1731789  -0.1955820
   0.7388122   0.4391270  -0.0096228  -0.7775086  -0.0562231  -1.3061133
  -1.0499288  -0.6367818   0.8403487   0.4771681  -0.1583642   0.1146200
  -0.1030742   0.3356133   0.0733283   0.2111828  -0.1051627   0.0513609
   0.1068534   0.6020672   0.9294034   0.3103376   0.0342272  -0.1728411
  -0.2297354   0.0866614   0.3844317  -0.0301478  -0.1215637  -0.0557252
   0.2432767  -0.8121031  -1.4382339   0.3710997   1.7326939   0.5324982
  -0.1222647   0.1214044  -0.3793758   1.6893804  -1.7305656   1.0827251
   0.3719367   2.1443169   0.8103822   0.1044572   0.0852576   0.4017304
   0.2501549  -0.4974859  -0.0402720   0.9371313   0.0146454   1.3299276
  -0.3734037   0.2106728   0.3496489   0.7485683  -0.1044388  -1.2983755
  -1.2216160   0.5432025  -0.2068405   0.0533342  -0.0906633  -0.1590057
   0.5513538  -0.3903707  -0.1459206   0.2860149   1.2413719   0.2364051
  -0.5148292   0.8833450   0.4422446   0.2235165  -0.1970161  -0.1024288
   0.4557342   0.0156574   0.0048154  -0.0669017  -0.0364227   0.1348408
  -0.6887202  -0.2421696   0.8445028  -0.2044729  -0.1738670  -0.1166803
  -0.1161414  -0.6707229  -0.7224961   0.3869628   0.1809450  -0.2715221
   0.0812888   0.0391195   0.8060474   0.1541740  -0.0110023   0.0766393
   0.3667490   0.4160846  -0.1282753   0.0283279   0.8045431  -0.1309319
  -0.1804728   0.3947782  -0.4149868   0.0402629   0.2779379  -0.3883373
   0.6399711   0.0231571  -0.2855011   0.3291624   0.2277720   0.1409222
   0.2554573   0.1700396   0.1900776  -0.3560323   0.0463749  -0.1164695
   0.3928315  -1.0778443  -1.6348999   0.1255210  -0.0404834   0.3327207
  -0.6491430   0.5177196  -0.6755933   0.0408005   0.3094988   0.0017053
   0.6775674  -0.4669291  -1.3298655   0.2701379  -0.4498715  -0.4932327
   0.3385399  -0.2581615  -0.1333975  -0.0170263  -0.9820091  -0.8236208
  -0.3685179  -1.5449875  -0.6148571   0.0273040  -0.0020688   0.2458972
  -0.2644620  -0.0032216   0.5849259   1.0889289  -0.1944327  -0.8941931
   0.1877641   0.1035587   0.0885710  -0.3523686  -1.4242573   1.4099166
   0.0296726  -0.4965340  -0.2088346  -0.1191261   0.0079080  -0.1036468
  -0.8160128   0.2910051  -0.6875077   0.0415727  -0.2604650  -0.2761835
  -0.2590220  -0.3053156   0.2987880   0.2330339  -0.1578029   0.8389511
  -1.0704629  -0.1664314  -0.7092843   0.0286264   0.0971305  -0.1430710
  -0.1304563   0.1930872   0.1929325  -0.0772524   0.2052332   0.1133828
  -1.4125095  -1.2160118  -2.3332808   0.2172851  -0.3664868  -0.5067653
  -0.3762277  -0.0300398   0.5411753   0.6171455  -0.0016211  -0.3936551
  -0.7763948   0.1786585   0.4184660   0.0337105   0.1899344   0.0845635
   0.6007075   0.0733746  -0.1064057  -0.1149320   1.2670794  -0.2778866
   0.3049827  -0.9940008   1.2141459   0.1251827  -0.1841168   0.2360493
   0.6206491   0.6797925  -0.8641390   0.3855849   0.3127801  -0.3552079
  -0.1729226   0.3841024   0.0227644  -0.0630781   0.0773157  -0.1008575
   0.0604565  -2.3458244   0.0021160  -0.3839787  -0.0525620   0.3873739
  -0.6322916  -0.1332776   0.0563499  -0.2422669  -0.1765874   0.4170092
   0.5818293  -0.6381060  -1.4107953  -1.0918275   0.0327077   0.6868075
  -0.2449844  -0.3239033  -0.1273928  -0.0144957  -0.3942870  -0.0082538
  -0.3282941  -0.4078077   0.2713914   0.1840966   0.3320934  -0.3386087
   0.6248437   0.9573333  -1.1670538   0.0353790   0.0215104  -0.3997314
  -0.1869200  -0.0828183   0.1675687   0.1142353  -0.2247449  -0.1115078
  -0.6886964  -0.8537286  -0.6073704   0.1243360  -0.2690400   0.1879150
  -0.4176274   0.7796707  -0.2898519  -0.3484938   0.0657983   0.1886709
   0.8911895  -0.2078363  -0.0548824   0.7499991   0.0343741  -0.4921950
  -0.7362496  -0.2853264   0.1943821   0.4292021   0.0319452  -0.4262789
  -0.1955096   0.2012808   0.1263840  -0.1214093   0.3069198  -0.1501775
  -0.1917139  -0.1644397  -0.0731204   0.0711208  -0.0908269   0.1285400
   0.4752269   0.0736102  -0.1370759  -0.0927952  -0.1256592   0.1228456
  -0.6708079   0.9578984  -0.2094609   0.3300017   0.0117557   0.2588259
   0.6274524  -0.9490605   0.4208871  -0.3712729   1.2086045   0.0302028
  -0.0435459   0.1947896   0.1635148   0.0088126  -0.0577021   0.0440346
   1.2273516   2.4001994  -0.5855646   0.1157793  -0.1400869   0.1942310
  -0.7955347   1.7343957   0.2395787  -0.3078590  -0.0350633  -0.0582412
   0.1451240   0.3552933  -0.0706153   0.3937030  -0.2001059   0.7400006
  -0.3909739  -0.2507012  -0.3188021  -1.5566521  -0.1424505  -0.8135794
   0.2540055  -0.2048912   0.1121110   0.0298231  -0.3714177   0.4109404
  -0.1903443  -0.1561583  -0.1710975  -0.3073650   0.3653661   1.3336493
  -0.4365821   0.2289235  -0.1108131  -0.0882840  -0.2167920  -0.2152229
   0.0312040  -0.2251467   0.2291434  -0.3569496  -0.3063517   0.0537108
   1.8398213  -1.7032860  -1.4958839  -0.1036883  -0.0453248   0.4435068
   0.0739012  -0.0140324   0.9026348  -0.0458773   0.2067048   0.1032214
  -1.1315152   1.1606448   0.5704200  -0.0105575   0.0061400   0.6470890
   0.2339896  -0.3292234  -0.0521447   0.0593894   0.0241073  -0.0516434
   0.1685778   0.1787660  -0.0714951  -0.2826743   0.2862194   0.0953308
   0.4081016   0.1790289   0.3678377   0.1297816  -0.2384196  -0.4744570
  -0.4998823  -0.9566476  -1.0202248  -0.0449628   0.2097574  -0.1290230
  -0.6039554   0.4713589  -0.4560793  -0.0719086  -0.0620262  -0.0591322
   0.9096901   0.3130250  -1.4890745  -1.2797562  -0.0272915  -0.3530039
   0.2260946   0.1212800  -0.1419191  -0.2574280  -0.0627791  -0.0734431
  -1.8989665  -0.4217551  -0.2516017  -0.3007834   0.0603857   0.0287291
  -1.1936094  -0.6781422   0.3955856  -0.4323859   0.0180026  -0.3809408
   0.2553535   0.0163003   0.5817611  -0.2312367   0.2341143   0.2687495
   0.6220862   0.3840248  -0.5192891  -0.2014273  -0.0647764   0.1454292
   1.5876656   0.2773013  -0.1970561   0.0368566   0.0673063   0.2058705
   0.1391893   0.2172034   0.1536154   0.0878610   0.0407549  -0.1968370
   0.8213793   0.7587844   0.3194021  -0.0859428   0.7251564   0.1068957
  -0.5322294   0.2623135  -0.3928832   0.3034467   0.0361911   0.0159697
  -0.4364383   0.1819491   0.4367100   0.2508198   0.2447594   0.0812997
   0.5566726  -0.8484731   0.2764528   0.5156760  -0.0361874  -0.4867851
   0.8538169   0.3911317   0.5197455   0.2120819   0.1166539   0.1829276
  -0.4867660  -0.9209220  -0.4622896  -1.3739084   1.0469116  -0.0495578
   0.8514324   1.0375246   0.8718584   0.0962852  -0.3379660  -0.0366563
  -0.3423117   0.1961060  -0.1510241  -0.2224126   0.1023262  -0.0656697
  -0.5861343  -1.4020769  -0.4428150   0.0439877  -0.3908068  -0.2036995
  -0.3225192   0.3918229  -0.5285618   0.1416785   0.1091325  -0.7253185
  -1.1226747   0.8061284  -0.3322231   0.0449375   0.5428598   0.3129597
  -0.2940609   0.4873132   0.1355096   0.2163420  -0.0461060   0.8554675
  -0.3847108  -2.2094738  -0.8136063  -0.0561414   0.3499545   0.4758081
  -1.1173377   0.9451972   0.9747714   0.5427634   1.2103902   1.5920508
  -0.3533716   0.8192199   0.9557307   0.1154142   0.1541998   0.2242947
   0.1833822   0.2080815   0.0582171   0.1881385   0.2230096   0.2660197
  -0.4452871   0.5823664  -0.3096741  -0.1328568  -0.0647396  -0.2065484
   0.9560459  -0.7357149  -0.0451382   0.0061273  -0.0127307   0.0905494
   0.5628575   0.9563809   0.9159648  -0.8237987  -0.1963040  -0.1535258
   0.2450762  -0.6094709  -0.6873405   0.9418006   0.0060545  -0.5262637
  -0.0528430   0.2019180   0.8664772   0.0000850   0.0479963  -0.1022188
  -0.0213381   0.1292763  -1.1031531  -0.2071123   0.0642767   0.0389644
  -0.0415177  -0.0368877   0.1942460  -0.2759541  -0.2943526   0.0323376
   0.3241237   0.9803431   0.3551744  -0.0115722  -0.2921366  -0.3118811
  -0.8084132  -0.9926006  -0.7260326   0.1999796  -0.1660264   0.0962974
  -0.1396392  -0.2878879   0.2873434   0.0970652   0.2703357  -0.2725190
  -0.4479264   0.0307076   0.0802078   0.1782538   0.9498392   1.7193411
   0.0668751  -0.1808614   0.8855452  -0.2780292   0.1071832  -0.2447520
   0.1752665  -1.5007774   0.7695235   0.0606827  -0.0482617  -0.3357620
  -0.2861144   0.1498845  -0.2079080   0.2367781  -0.1669141   0.0354460
   0.2856760   0.7029576   0.8256236   0.0010266  -0.0636137  -0.0352266
  -0.2109662   0.6396772  -0.2141263   0.1296223  -0.0752926  -0.2601350
  -0.4994729  -0.6831648  -0.8377636  -0.6583875  -0.4203989  -0.0985613
  -0.0091407   0.0661868  -0.3923395  -0.2556533  -0.0098364  -0.0190432
   0.0938930   0.0077616  -0.0902782   0.1049550  -0.2585464  -0.2246093
  -0.0566114  -0.0650975   0.0105251   0.0921852  -0.0622568   0.3422905
   0.0682156  -0.2857788   0.2759981   0.0609274   0.2784985   0.0184486
  -0.7742109  -0.4001212  -0.1119713   0.2574327  -0.2472137   0.1017762
   0.2749012  -0.3793299   0.1931653  -0.1104031  -0.0963169  -0.0476589
  -0.4654221   0.6852900  -0.7551432   1.3047222  -0.5501484  -0.8995314
  -0.5015886  -0.4914303   0.4036512   0.4889647  -0.0034236  -0.2379706
  -0.2806735  -0.7376130  -0.5861250   0.9246210  -1.0106356   0.3190568
   0.0651195   0.2646390  -0.1937603   0.2261098  -1.4119953  -1.7365369
  -1.0701202  -0.8568751   0.9945070  -0.1512943   1.3460536   1.1254963
  -0.2912466   0.1438365  -0.1878901  -0.1905328  -0.2253974  -0.0627311
  -0.3065376  -0.0055999  -0.3758289  -0.0106065   1.5582016   0.4757591
   0.0044707  -0.0310128  -0.0448463  -1.1565356   0.0675439   0.0177884
  -0.1859536   0.3783727   0.1760319   0.3959904   0.0896483  -0.0307041
  -0.8629586  -0.0681754   1.2162096  -0.1497469   0.1234459  -0.2164371
   0.1078434  -0.8316210   0.5315344   0.0761448  -0.3368782  -0.0207033
  -0.0531074   0.0086852   0.0394783  -0.1984745   0.2220977  -0.4375199
   0.7570184  -0.0098814  -0.0950223  -0.2397285   0.2274478  -0.4228863
   0.5632387   0.9081034  -0.8507582   0.0972766  -0.4446636   0.0894491
   0.4541475  -0.0464595   0.3720019   0.9367653  -0.2398303   1.2923152
   0.0853004   0.1858170  -0.0503882  -0.1739111   0.1703729   0.8114149
   0.4971252   0.3703257   0.3886571   0.2284282  -0.0313945  -0.0827615
  -0.1904703   0.1136482  -0.1561457   0.0641504  -0.3519183  -0.1664159
  -0.3745912  -0.1945098  -0.0109398   0.0807223   0.3275391  -0.0081535
  -0.0709233  -0.2616411  -0.0244134   1.8753298   0.0056568  -1.7670615
  -0.0222941  -0.1442425  -0.5433516   0.4213839  -0.3677853   0.0834138
   0.2400833   0.2348756  -0.1891333  -0.8209379   0.3810243  -0.0610436
   0.9531683   1.1688498  -0.1889266   0.0304997   0.1224618  -0.2204155
  -1.6132751   0.6703636  -0.5398015   1.2737729   0.3324173  -0.4230669
  -0.0088069  -0.1097033  -0.1566595  -0.0362690  -0.1536657   0.1863177
  -0.5961997  -0.3828001  -0.6624645   2.0544978   0.2296197   0.3188267
   0.0954560   0.1018475   0.1889372  -0.2168506   0.0757741   0.0408070
   0.0325382   0.1607399   0.3386822   0.1204061   0.0036551  -0.0125618
   1.1066834   0.2486122   0.6344717  -0.3201899   0.2725822  -0.2312477
   0.3211753   0.7140543   0.5885037  -0.4803561   0.2885438  -0.9070004
   0.0810392   0.1949102  -0.0723474   0.5601453  -0.0653069   0.0860976
   0.6586927  -0.0766511  -0.1242441   0.4679433  -0.0275898   0.4493718
   0.0935339  -0.0435001  -0.1552502  -0.3179657  -1.2802584  -0.8267497
   0.3640785   0.1630947   0.0220256  -1.3772557  -0.7633882  -0.2195209
  -0.4816225  -0.0025108  -0.5508675  -1.3594486   0.2422796   0.8851222
   0.2559098   0.0837780   0.0082580   0.0600724  -0.1200767  -0.0466108
  -0.1361698  -0.3698843  -0.0066329  -0.2957595  -0.3369239   0.2888280
  -0.2185047   0.0939292  -0.2400484   0.9165171  -0.6631251  -0.1564890
  -0.2459585   0.1348744  -0.0303673   0.6483177  -0.0691733  -1.3995283
   0.5465978   0.8404444   0.4844676   0.0143586  -0.1267200   0.1455582
   0.0727368   0.1335643  -0.0763401   0.0750296   0.1830850  -0.2489510
  -0.7803227   0.7360496   0.9094987   1.6062966   0.1880045   0.4042551
   0.2612220   0.2289822  -0.0067019   0.3007191   0.0762901   0.1333386
  -0.0534778   0.3375380  -0.1126626  -1.3266439  -0.8274018  -0.7525922
  -0.0689381  -0.0184940  -0.0111741   0.1661858   0.2804141   1.4975148
  -0.0893120   0.1629572  -0.4078122  -0.6996550   0.8101323   0.3444921
  -1.1757062  -0.4166892  -0.2591820  -0.2203452   0.5819557  -0.0805086
   0.1954587  -0.2253712  -0.1041185  -1.6824903  -1.3125696  -0.8223358
  -0.1818407  -0.3827935  -0.3249851  -0.0556235   0.3093719   1.2009994
   0.1646322   0.0922888  -0.4115000  -0.7386332  -1.4831481   1.7867787
   0.1970612  -0.0600631   0.1419960   0.5094519   1.3566995  -0.3214180
  -0.2012623   0.0456123   0.1077393  -0.5657621  -0.1070505   1.0439477
  -0.1978597   0.2983532  -0.2149024   0.0409716   0.2917127   0.0317292
   0.0680294   0.2619797   0.0488408   0.4686975   0.0069437   0.5526046
   0.1995253   0.1404648   0.2653393   0.3694945  -0.5780086   0.2797468
   0.3752576   0.3784721   0.0277887  -0.9426357  -0.4619432   0.0390351
  -0.8171993   0.7901091   0.1049940   0.1159199  -0.3553332   0.0944770
  -1.0379929  -0.6437791  -0.4946669   0.1584453  -0.3260399  -0.1349539
   0.1649183   0.0682566   0.0093875   0.7686048   0.2568831  -0.4364437
   0.2460482   0.4264952  -1.3669739   0.0211177  -0.1431570   0.0599416
   0.2455303  -0.2203739  -0.6840441   0.0681156   0.0676989   0.0525884
  -0.0520628   0.0565908  -0.1194319  -0.8125323   0.8994532   0.2881166
   0.7912362  -0.3959795  -0.3381093   0.2917234   0.6637392   0.2047117
  -0.0117741   0.0094902   0.3888240  -0.0245861   0.0852470  -0.5518733
   0.1581716  -0.0783720  -0.1408588  -0.2833623   0.7840242   0.4991652
   0.0930449  -0.4885349   0.2722539   0.4612132   0.3023760   0.0357587
   0.3642049  -0.0926100  -0.3171550   0.0450933   0.9363167   0.3396445
   0.7564764   0.7925388   0.1758108   0.1925339   0.2987866   0.2409372
   0.3256330  -0.0509224   0.1655173  -0.1219044  -0.0770052   0.0316663
  -0.0893460  -0.3990654   0.0742950  -0.7625509   0.7001572  -1.5680160
   0.2677789  -0.2136250  -0.1119971  -0.7188028   0.3027191  -0.7344988
  -0.1723463   0.0271079   0.0289432   0.1851379  -0.2296622  -0.8505695
   1.4174776   0.5009529   0.2330635   0.2124428  -0.0470366  -0.2053105
  -1.6467824  -1.3423979   0.1812821  -1.0102960  -1.0472772   1.4211037
  -0.0266433   0.3181273   0.0054296   0.0287443   0.0127650  -0.2761337
   0.2878196  -0.1283113  -0.2017483  -0.1355692  -0.0428042  -0.0858080
  -0.0337172  -0.1935557   0.1556351  -0.1656405   0.3601836  -0.2037763
  -0.2352063  -0.5202544   0.0879318  -0.2202133   0.4239849  -0.0155281
   1.0625010   0.2756590  -0.0930053  -0.1962573  -0.4507919   0.0775575
  -0.4135169  -0.6817359  -0.0128994  -0.6606465   0.5965220   0.3939138
   0.2608177  -0.1400966  -0.2015261  -0.8784310   0.8223814   0.2292540
  -0.7265680  -0.2077535  -1.3345130  -0.2680222  -0.3112496  -0.1957293
   0.0886799  -0.1250336   0.8414894  -0.3654991  -0.4791153  -2.7898736
   0.0182311  -0.0773266  -0.0197388  -0.5061194   0.7186819   0.1534660
  -0.4230124   0.2456050  -0.0909023   0.2558755  -0.3238699  -0.0719108
   0.9641023  -1.0063807  -0.2524147   0.5711529  -0.3361354  -0.5791025
  -0.1178836   0.1158197  -0.0775060   0.4854275  -0.4028901   0.7092906
  -0.6949228  -0.2606582   0.1565824   0.0869270   0.0014092   0.2943069
   0.1757956  -0.2534466  -0.0893111  -0.4907866  -0.1755566  -0.0194297
  -1.0530161   0.3549024  -0.3582442  -0.2752700  -0.0279187   0.0923147
   0.5698260  -1.6233794  -0.0871788  -0.3327594  -0.0149307  -0.1379931
  -0.5071944   0.8773737   0.3784887   0.1005859   0.3110644   0.1700725
  -0.1089990  -0.4393997   0.3252948   0.6814822   1.2471844   0.7637255
   0.7680808  -0.6760592   0.4763121   0.4890731  -0.1508575  -0.0637660
   0.3526939   0.0714140   0.2475945   0.2296861  -0.0455945   0.2151305
   0.8012698   1.6618584  -0.5080200   0.3908017   0.0735936   0.1899489
  -0.0032379  -0.0803838  -0.1711735  -0.1494540   0.1221928   0.0967259
  -0.3165871  -0.3045140   0.8777550  -0.1604848   0.1754633  -0.0360820
  -0.6435656  -0.8476185  -0.5548043   0.0759428   0.0688840   0.0190253
  -0.3781519  -0.2783496  -0.0922458  -0.3168037   0.2506741   0.2425956
  -0.3631036  -0.7203931   0.4169399   0.6328854   1.0800560  -1.2742461
  -1.6107818  -0.8524703   0.4185977  -0.3335708   0.3025210  -0.0773159
  -1.0013987   0.5303890   0.2723250   0.9834672   0.6805479  -0.7235479
   0.0555298  -0.1299508   0.0835215  -0.3698315   0.4146215  -0.5862121
  -1.0710443   2.4921065   0.0792515   0.3312885  -1.0389073  -0.8078418
   0.0881711  -0.1943615  -0.0182649   0.1978720  -0.0492114  -0.0323352
   0.3723786   0.0302032   0.5067516   0.1256763   0.1707951  -1.7456575
  -0.0623644  -0.6142334  -0.1924768   1.3339360  -0.7671087  -0.5357891
  -0.0988100  -0.1295308   0.0572098  -0.3762863   0.8106120   0.0725630
  -1.0975881   0.0649557  -0.0907203  -0.1185849  -0.0409875  -0.6002204
   0.1346671  -0.1176519  -0.1383241  -0.0338835   0.0620108  -0.0318698
   0.2759483  -0.2046205  -0.1258972  -0.0595050  -0.1421578   0.2302001
  -0.0763952  -0.0794930   0.0714720   0.1315703   0.3503289  -0.0254489
   1.3754312   0.4605431   0.1846592   0.1110646   0.3406164  -1.1939698
   0.3765132   0.0174641   0.2446585  -0.6171561  -0.9962767  -0.2969035
   0.5659885  -0.9199652   0.0255830  -0.4866120  -0.4270647   0.2437712
  -0.4156948   0.0157810   0.6884279   1.1924142   0.1633074  -0.9664413
  -0.1114037  -0.0769986  -0.3816029  -0.7670777   0.1709207  -0.3574012
  -0.2965062   0.2415690   0.0120108   0.2545558   0.2166275   0.1681279
   0.1950538  -0.3557380  -0.1007882  -0.6503739  -0.8796256  -0.7905339
  -0.3166173   0.0563599   0.0660883  -0.4369910  -0.7702807  -0.2111770
   0.0657212  -0.1241899   0.5492479   0.7917883   0.2337276  -0.1044973
   0.3517284  -0.4136586   0.5482909  -0.0815030   0.0063681   0.1090577
   0.9408917   0.1393112   1.4649868   0.4467701   0.1666592   0.4150086
  -0.2520390   0.5045297  -0.1708042   0.0967616  -1.5182264   0.0186753
   1.0878255   0.5362259   0.9357317   0.0804202   0.0732298   0.0123695
   0.4771682  -0.2550044   1.5471500   0.1909110   0.2263135   0.3808822
  -0.2132358   0.1479648  -0.2197148   0.0115929  -0.8379705   0.5112834
  -0.4715097  -0.6693891  -0.0713699   0.2082089   0.2604553  -0.1104059
   0.5801769   0.8499752   0.7509994   0.5989116   1.3920310  -1.5217181
   0.4950407  -0.1026734   0.0466649   0.0507063  -0.1475194   0.0528060
  -0.0162039   0.1542771  -0.0311077  -0.9651512  -0.4121928   0.1733555
  -0.0275273  -0.0328359  -0.0910798  -0.8253424  -0.5487817  -0.9838905
   0.0170204   0.1499543  -0.3364918  -1.3816909  -0.4874709  -0.4501815
  -0.2643601  -0.3462175  -1.5227509   0.1868759  -0.2718776  -0.1457497
  -0.1791618  -1.3614922   0.6391824   0.6898223  -0.7748327   0.3080902
  -0.4110344  -0.5387784   0.0874072  -0.3002048   0.6054485   0.4095775
  -0.6786007  -0.0143825  -1.0658324   0.0338503  -0.2925166  -0.2046580
   0.0454917  -0.3826819   0.3138014  -0.0422973   0.1969034   0.0369453
   0.0820226   0.1300305  -0.0306853   0.3491514   1.6606610  -1.4492244
   0.0033306   0.3418117   1.1934497   0.0372078  -0.1357434  -0.3679944
  -0.0775070  -0.1934520  -0.9895693   1.3382427  -1.1197419   0.2062349
  -0.1215490  -0.4406824   0.1789963  -0.0615347   0.0910714  -0.2531264
  -0.1244080   0.0654622  -0.2153776   1.8735411   0.7087864   0.1431581
   0.2068244   0.1742591   0.3520966  -0.5663412   0.1001207   0.7364476
  -0.0753804  -0.0233993  -0.1967611  -0.0507461   0.1141083  -0.0529079
   0.1345358   0.3869208  -0.2065777  -0.1840267   0.0627117   0.0496020
  -0.7624983   0.0238858  -1.4499046  -0.2064992   0.1890896   0.1083168
  -0.2335645   0.0615583   0.2030202   0.3502552  -0.1183877  -0.2221088
   0.0943805   0.7311370   0.0801045  -0.1193200   0.2514489   0.1665449
   0.3396943  -1.0966132   1.1607367   0.0949878  -0.2133319  -0.2223729
  -0.0934726   0.6210581  -0.1413515  -1.2456127   0.0871542  -0.4384274
  -0.1498250   0.0475174  -0.0774404  -0.0463410  -1.1700786   0.9555579
   1.4628498   0.0872788  -1.5560963   0.1370018   0.0225175   0.0081655
  -0.0135388  -0.0024860   0.1447739  -1.4473544  -0.7265583   0.3220059
  -0.6759275  -1.0000702  -1.1486581   1.8057341  -0.0092310   0.4566327
   0.1420900   0.0112253  -0.5821975  -0.0388955   0.1601992   0.1259271
   0.6538108  -0.1734901   0.0091245   1.5522764  -0.1752330  -0.2541295
  -0.2513680   0.3720666   0.0877723   0.4556126  -0.6231642   0.6396341
   0.0036050   0.2454858  -0.0425229  -0.3802189   1.2185867   0.2901371
   0.3321755  -0.8128702  -0.6301438   0.2878570   0.1677679   0.0293041
  -0.6351650  -0.2552170   0.1766595   0.1360421  -0.3056133   0.3556275
  -0.0833439  -0.2647358   0.1297526   0.7634646  -0.5686443  -0.5302714
  -1.0445289   0.5321127  -0.2497028  -0.0754360  -0.2287059   0.3691287
   1.8414705  -0.6032996   0.0115070  -0.0252154  -1.2037527  -0.2142932
  -0.0695782   0.5225482   0.1829229  -0.2519943   0.3001497  -0.0161150
   0.5176708  -0.1789769  -0.6855193  -1.1215444   0.5232967  -0.8188786
   0.0952695   0.0661275  -0.0216835  -0.0914961  -0.2019553  -0.0258426
  -0.3404041   0.3303053   0.1546962  -0.1343873  -0.4591092   0.0437311
   1.5465002   0.4933394   0.8323285  -0.0405614   0.5535606   0.1642973
   0.1561300  -0.0452082   0.1258559   0.2215119  -0.2789892   0.0185705
  -0.4941328  -0.1656996   0.3047575   0.2781729  -0.1430782   0.4548083
  -1.3679984   0.5031803   0.0835270   0.9807913  -0.4309335   0.6470679
  -0.3038040   0.2302761   0.3818790   0.1102504  -0.4177031  -0.9234281
  -0.1852388   0.3748586   0.1247850  -0.0308901  -0.0065884   0.0948134
   0.1739031   0.0008610   0.0944493   0.3600305   0.6327808  -0.1762041
   0.2942389  -0.2175399   0.1165193  -1.4023434  -0.6292804  -0.0283581
  -0.0193844  -0.1342503   0.0536920  -0.2231232  -0.3738689  -0.3293412
  -0.1934213  -0.1378476   0.0271186  -0.2953267  -0.5712756   0.6570970
  -0.0362051   0.1739718  -1.6351984   0.3373325  -0.4049622   0.9869731
   0.1624283   0.2992881  -0.3152085  -1.2527465   0.8069285  -0.7250627
  -0.4083700  -0.7313595  -1.1658967  -0.7713527  -0.4271311   0.6313885
   0.1640145   0.3289750   0.0783742  -0.2436546   0.1323422   0.1211620
   0.2052158   0.1418760  -0.2266639   0.3001654   1.5637520   0.3193727
  -0.1590382  -0.0432258   0.0760346  -0.2283268  -1.0370177  -0.4716487
  -0.0754413  -0.0185180   0.1195840  -0.3931971   0.0082423   0.7128893
  -0.0495390   0.0068436   0.3556398  -0.8010581   1.4503360   0.0811144
   0.7208178   1.3696030   0.7208270  -1.7597942  -0.6859504  -2.0871987
  -0.0344571  -0.4323098   0.0717155   0.5191301   0.6040079  -0.5086961
  -0.0493471   0.4220662  -0.5554008   0.3246736   0.2745288   0.1414434
  -1.0439801   1.4320699  -0.1389224  -0.5273752  -0.0670275   1.4529571
   0.9494048  -0.1234025  -0.5514318   0.2217103   0.0595763   0.2379754
  -0.3507913   0.1257340   0.1755192   0.3334084   0.3937661  -0.2286962
  -0.1216628  -0.0458686  -0.4637962   0.1166732   0.4344287   0.2696919
  -1.1132662  -0.0230602  -1.1830862  -0.0420839   0.4048121  -0.2207855
   0.3346110  -0.4039589  -0.2034702  -0.6382390   0.4797098  -0.1064472
   0.1424434   0.1571147  -0.1521098  -0.5342439   0.6039868  -0.2723390
  -0.0357719  -0.5104918  -0.5883547   1.8584685  -0.3005065   0.1452393
  -0.3366982   0.9105084   1.1020335   0.2630158  -0.5105769  -0.5585574
   0.1948137  -0.1285314   0.0218405  -1.5853826   0.7462120  -0.0947383
   0.2981489  -1.0258106   0.6285270  -0.2574678   0.0829220  -0.3022917
  -0.0417233  -0.0628557   0.0397413   0.0373100  -0.3353704  -0.0222132
  -0.5082608  -0.1269291   0.1725759  -0.0302647   0.8112334   1.1916328
   0.0297467  -0.0794564   0.3692460  -0.4859951   0.0908752  -1.2845639
  -0.2724668   0.0349110   0.2102046  -0.1763031  -0.8038663   0.3325998
  -0.0835117   0.2511393  -0.1768417  -0.6855844  -0.7878348   0.2489296
  -0.2343306  -0.5301562  -0.3550246   0.1357901  -0.2117320  -0.0616570
  -0.1882681  -0.1173586  -0.0977034   0.6928803  -0.1826438  -0.2406675
  -0.0416843  -0.1461763   0.0394639  -0.0209410   0.0809607   0.2904941
  -0.0028979   0.1249868  -0.0572341   1.1109451  -0.4777484   0.1018247
  -0.1025632   0.2131669   0.1264811   0.4446875  -0.9395567  -0.3699845
   0.3134045   0.1548538   0.0842131  -1.6330282  -0.4026502  -1.3530532
   0.8035793   1.4853875  -0.5690731  -0.3121607   0.1741749   0.0804772
  -0.0929240  -0.0226738  -0.0049174  -0.1186116  -0.3585501  -0.0102507
   0.2454590  -0.0908309   0.2294027   0.0649944   0.0394327  -0.1419026
   0.0709186   0.0238002   0.1196189   1.7770105  -1.1967931  -0.6969712
   0.0392178   0.2168666  -0.2836550   0.2649550   0.1099058  -0.3384965
  -0.2572915   0.6588973   0.7239669  -0.0014699   0.1173931   0.0649523
   0.2946027   0.1483368  -0.1572789   0.0207989   0.2278347   0.0695847
   2.4166374  -1.1149392  -0.0242056  -0.2479761  -0.1121159   0.1717520
   0.1405254   1.0994033   0.8980877   0.3434236  -0.2020441  -0.3365054
  -0.3909975  -1.0544671  -0.4351587   0.2542260  -0.5588836   0.6305502
  -0.0023999  -0.2136562   0.0700525   0.5654327  -0.7211452  -0.6068724
   0.4806215  -0.0902416  -1.3064511   0.0223161   0.0531354  -0.0200397
  -0.2298316   0.0380956  -0.1104892   0.1612897   0.0861019  -0.1473393
  -0.1155986   0.0962203   0.0787215  -0.1698731   0.1347098   0.4763431
  -0.2898545  -0.0621332  -0.0507391  -0.0866170  -0.0488394   0.0288150
   0.0369303   0.0819637  -0.3274672  -0.0555539   0.5251047   0.0739404
  -0.2965207  -0.0276977   0.1091880  -0.8475471   0.9688799   0.7268856
   0.7101082  -0.2666492  -0.0621228   0.2638084  -0.6362301   0.0177783
  -0.1598118   0.1763639  -1.3798734  -0.1789867   0.8911887  -0.0537279
  -0.0108027   0.0748134   0.3936659  -0.0896715   0.1520538  -0.0622413
  -0.0579832   0.0621061   0.0103902   0.1201195  -0.4402264  -0.0107237
  -0.0721538  -0.0914456  -0.1469405   0.4897560   0.1757124  -0.2533454
   1.3671158   1.5194529   1.0998534   0.2748658   0.0379616   0.0967465
  -0.2047470  -0.9592149  -0.4866903   0.2438469   0.0084231   0.0638122
   1.7880300   0.5911214  -0.7439715  -0.0008649  -0.5895988   1.0662780
   0.2291172   0.0656324  -0.0827538  -0.3816092  -0.2591055  -0.6110708
  -0.3944849   0.7184917   1.0008531  -0.2447374   0.0011565   0.0279109
  -0.2285650   0.7664148  -0.7416413  -0.1670453  -1.0552160  -0.5025637
  -0.1261157   0.1662794   0.0910538  -0.8628267   0.4051260  -0.6397638
  -0.3326798  -0.1645456   0.3591582   0.2488258  -0.1597309   0.0231471
  -1.3093596  -1.3166696   1.7123579  -0.8759168   0.6237786   0.5239483
  -0.3434682   0.1795093  -0.0797885   0.0239126   0.1549200   0.6321570
   0.2658675   1.4581807   1.1917242   0.0201094   0.0644882  -0.1122090
  -0.0488016  -0.1414930  -0.1279153   0.2361392  -0.0646476   0.1050701
  -0.3049393  -0.4318158   1.9940525   0.1111393   0.3565213  -0.1532627
  -0.2052042  -0.1309396   0.1371830   0.2143709  -0.2594451   0.4435773
  -0.2748192  -0.6730392  -1.4372810  -0.1258067   0.3380810   0.0784880
  -1.3047267   0.4823014   1.1560538  -0.2599518   0.7409813   1.6501036
  -0.1101772  -0.9228643  -1.2588246   0.0906665  -0.2275499   0.0183097
  -0.5038220  -0.6489368   0.3848455   0.5118703  -1.0409816   0.5986236
   0.3839377  -1.1158332  -0.0822518   0.2658583   0.0688141  -0.0143656
   0.1765630   0.0714856  -0.0742962   0.4005142   0.1090268  -0.1238002
  -0.2087729  -1.2713464  -0.2355229  -0.0425026   0.1025013   0.2966074
   0.7188001   0.2172575  -0.2826931  -0.3816189  -0.0230278  -0.3296963
  -1.4669077  -0.0049390  -0.6248725  -0.3782502  -0.3460217   0.0135608
  -0.1180616   0.6736111   0.1068709  -0.5883944   0.1741832   0.5421227
   0.1317201   1.2334521   1.2626316   0.4181688   0.1802953   0.1662128
  -2.2100854  -0.3314701  -0.2360264  -0.4274296  -0.4138848   0.8957166
  -0.6983857   0.1506972  -0.1548919   0.8835339  -1.0913698   0.3663859
   0.2388513   0.4225152   0.2514700  -0.9698883  -0.1476776  -0.4764520
   0.2495918   0.2485471   0.1416299  -0.0526703  -0.2568863  -0.2018870
   0.3466066  -0.0912532  -0.2415834   0.4821840   0.2088533  -0.1506618
  -0.0853544  -0.3281875   0.2329196   1.7531248  -0.3661631  -1.2352946
   0.3174006  -0.1933906  -0.0796249   1.0500820   0.6659015   0.3820437
  -0.1413176   0.5707397   0.3505546  -0.4679283   0.1978492   0.0696360
   1.3465317   0.4091399  -0.9478556  -0.0335225   0.0314638  -0.0986135
  -1.2082077  -0.2727807  -0.8016958   0.5293055  -0.2351290   1.0627644
  -0.7016122   0.9054271  -1.1775911  -0.0815976  -0.0846920   0.0398206
   0.7041075  -0.4858485  -0.4409263   0.0170717  -0.4972273   0.0621132
  -0.6401032  -0.4249819   0.8917484  -0.0817068   0.0720247  -0.2402925
  -0.1537839   0.1469569  -0.0584338  -0.1279174  -0.0181320  -0.1599846
  -0.4052508   0.0072092  -0.3507113   0.3435402   0.0138011   0.0051347
   1.4047759  -1.5881582   0.0737120   0.0788729  -0.2429799  -0.1614169
  -0.4698686   0.1786234   0.1868306  -0.1962708   0.5896445  -0.1252242
  -0.9532404   1.3946158   1.5915276   0.0363769  -0.0736888  -0.2604486
  -0.1044051  -0.0901730   0.1956689  -0.1718600   0.0014701  -0.4323052
   0.1688811  -0.2555983  -1.2879723  -0.0119709  -0.0852518  -0.0132288
  -0.1413665   0.5034436   2.7722523   1.0808149   0.0925193  -0.1296208
   0.2758577  -0.2833785  -0.3364837  -0.0650661   0.3272527  -0.1143824
  -0.2290159  -0.2096896   0.4360697  -0.3029735  -0.0344438  -0.1904911
  -0.0981689   0.0104538  -0.6625716   1.0609626   0.0406613  -1.0160385
   0.4203660  -0.1230761  -0.0414239  -1.0267510   1.2907617   0.4314791
   0.5338886  -0.8248692  -1.2824485  -0.3346143   0.0676290  -0.1837672
  -0.1251431   0.3825858   0.8910126  -0.2033979   0.2518915  -0.2857716
  -0.2035047  -0.2024501   0.1337763   0.5193554   1.2675321   0.0295983
  -0.0638928  -0.0497461  -0.0611301  -0.2406360  -0.1024895  -0.1597031
   0.4133644   0.0729202   0.0850386   1.2529437   0.3568205  -0.0418538
   0.3632737  -0.2007269   0.2768055  -0.5374747  -0.7644917   0.4953389
  -0.0265496  -0.2008892   0.1965671   1.4404792  -0.0884204  -0.6625090
   0.4160318   0.8670386   0.0181807  -0.2314125   0.2587388   0.0767700
  -0.2733715   1.1131139  -0.1297149  -1.2030138   0.3183135  -0.4893711
  -0.0539125   0.0165559   0.1445832  -0.0373909   0.1803067   0.0026384
  -1.3934860   0.1826925   0.5718686   0.4860023  -0.0422085   0.8436134
   0.7473400  -0.2203019   0.3193234  -0.0915128   0.1259743   0.0200699
  -0.1933825   0.1218947   0.2810316  -0.1423870   0.1022166   0.5014329
  -0.1437699  -0.0090339  -0.2601348   1.3609100   0.1853097   0.2979912
  -0.2484347   1.3721300   0.2173366  -0.1217774   0.3460401  -0.1280807
  -0.2723486   0.4081933   1.2486312   0.9360511   0.4977797   0.1232842
   0.1851607  -0.0768781  -0.2767823   0.5958940  -0.1009377   1.0845874
  -0.2908681   0.4942331  -0.0259496  -0.0022524   0.0326265  -0.4303061
  -0.4296924   0.3704168   1.5233939   0.2310307  -0.1951022  -0.0106782
  -0.1328978   0.2731026  -0.1454946   0.1016691  -0.0651262   0.2152670
  -1.4605960  -0.2001452   0.9378016   0.0877820  -0.1681016   0.3906667
  -0.4866502   0.1119156   0.8654099  -0.1579116   0.2684878   0.0338383
  -0.1830985   0.2965538  -0.3658915  -0.0946795  -0.2269714   0.0419071
  -0.3262430  -0.8691154   1.0305979   1.7023535  -0.0832015   0.2283784
  -0.9902619  -0.1535055   1.7314428  -0.0396131   0.0265805   0.0000411
  -0.0672420  -0.6090647   0.7812412   0.0427923  -0.1999118   0.9587807
  -0.2510414  -0.2940851  -0.8178453  -0.0271929  -0.2133553   0.1758452
  -0.1952213   0.1813505  -0.2475690   0.2170661   0.0871355  -0.1861937
  -0.5313925  -0.0101417  -0.7797253  -0.0253783   0.5125236  -0.0594514
  -0.1179110   0.6077051  -0.4304767  -0.2562810   0.1613707  -0.0255292
   1.4842069   0.4337485   0.4190678   0.3000526   0.1501756   0.0701424
   1.9132814   0.5070528  -0.1790448  -1.1755170  -0.6554869  -0.4533052
  -1.5697856   0.7687496  -0.8885075  -0.1719517  -0.1604090   0.1793845
  -0.1213036  -0.0863112  -0.3525769   0.1681828  -0.1513902   0.2224438
  -0.0270075   0.2388582  -0.2261840   0.1678489   0.3980550  -0.2649864
   0.3441086   0.2775773  -1.1873652  -0.0019862  -0.3923144   0.2962204
   1.5208789  -0.7342768  -0.6173249  -0.0695898  -0.0355929  -0.2032984
  -0.1661285   0.0205945   2.2435691  -0.7769880   0.6241678  -0.2407053
  -0.0310992  -0.0938059  -0.0191652  -0.0389587  -0.0136282   0.1987607
  -0.3084321   0.0253041   0.4256440  -1.1750184   0.7978395   1.3025366
   0.0510837   0.0084706  -0.0480913   1.1188201  -0.8609316  -0.6908821
  -0.1483898   0.0357470  -0.1519575  -0.2472557   0.7535078   0.1168523
   0.1728863   0.1516394   0.5623913   0.1520782  -0.1891926  -0.4184362
   0.4588646  -0.0313560  -0.1822082  -0.0321190  -0.2587286  -0.3501113
   0.1556550   0.1421387  -0.0061668   1.1092965  -0.7422265   0.6559627
   0.0862811  -0.1196479   0.2438023  -0.0706889  -0.8735497  -1.2825875
  -1.2195305  -0.5622498   0.0591058   0.0577142   0.1163524  -0.1680520
  -0.9338979   0.1691753   0.6251439  -0.2938719  -0.5139131  -0.0111871
   0.1476749   0.0336275  -0.1972284   0.1189238  -0.1611594  -0.2185174
  -0.1409932  -0.4961447   1.5841679   0.1982140  -0.0799137   0.4076889
   0.1979366   1.0730716  -1.5764460   0.1750230  -0.0730976  -0.2504661
  -2.0097839  -0.1777830  -0.6466511   0.4778176   0.6608252   0.4495870
   0.1284121  -0.1159340   0.2703973  -0.8433350  -0.7801429   0.3461929
   0.3849195   0.1005003   0.2383036   0.0859330  -0.0594423   0.0141543
  -0.1344977  -0.0478818  -0.0632359   1.0603861   0.9390425   0.0541700
  -0.5171304   0.0550562   0.1896050   0.7362806   1.2757557   1.3306454
  -0.2416676  -0.0401416  -0.1685825   0.2672427   0.7179590   1.5685877
  -0.2975987   1.1876199  -1.1523398   0.3189613  -0.3698428  -0.3645782
  -0.3111693   0.1274975   0.1154994   0.2105377   0.1636843   0.2785190
   0.0569220  -0.1259331  -0.1392181   1.6769720  -0.2688819  -0.6069740
  -0.3861339  -0.1364358   0.0814214   0.0552339   1.5343009  -0.3567041
  -0.1873553   0.2179992   0.1804904  -0.3478452   0.0824253  -0.0808624
  -0.1253027  -2.0115125   0.6390224   0.4081949  -0.0670220   0.0705187
   0.0209894   0.3451091  -0.0379114   0.0651040   0.1280658  -0.0779958
  -0.1423787   0.1558073  -0.1640160  -1.2908250   0.9650774  -0.8947328
  -0.0647241   0.0022310   0.0443173   0.8719811   1.1133137  -0.0330765
   0.2128132   0.0643926   0.0479399   0.6774372  -0.3570583   1.2407593
   0.2094338  -0.3887618  -0.4412398   0.0415239   0.0176735   0.0709428
   0.6433647  -0.3758780   0.3649329   0.6910318  -0.5494967   0.5021910
   0.0761386  -0.0361264  -0.0624151   0.1448001   0.1389071   0.1590933
   0.0123762  -0.2768964  -0.1514337   0.9116201  -0.9076714   0.3788242
  -1.3438816  -0.8529675   0.1010588  -0.1123351  -0.1701251   0.0282506
   0.1008279   0.0377778  -0.0353299   0.0858054   0.3929747  -0.0312064
   1.3870905   1.2075118   0.6411062  -0.1949784   0.0791504  -0.3986805
   0.2737649   0.5519879   0.3155404  -0.5321695   0.0781324   0.0356515
  -0.8454486   0.1554997   0.2360989  -0.0733253   0.4563762  -0.1532524
  -0.2701576  -0.1688124   0.1353997  -1.9427287  -0.4172379   1.2317009
  -0.2652662   1.5220320  -0.5931626  -0.2721428  -0.0733822   0.1179140
  -0.5968938  -0.0497765  -0.0937966   0.7726180  -0.9201255   1.0433114
  -0.4377909   0.0636528  -0.0212295  -0.7920018  -0.6166433   0.4673394
  -0.0137006  -0.1680952   0.3647774  -0.1823231   0.0072533  -0.0775424
  -1.3866957  -0.3758298  -0.0288858   0.6809422  -0.4646644   0.5208356
   0.0059571  -0.0898199   0.1491221  -0.7918866   0.2475845  -0.7149376
   0.3612214   0.5661573  -1.5535440  -0.2373821  -0.3042084  -0.0830252
  -0.0500926  -0.2635736  -0.1832049   0.3058695  -0.0216701  -0.2719722
  -0.1835958  -0.8909471   0.5823628   0.1790819   0.1764627   0.3052555
   1.3847426  -0.7360857   0.3154608  -0.0053179   0.0455402   0.0325232
   0.3331407   0.4822571  -0.3984491   0.1625532   0.5064817   0.6129390
  -0.0759605   0.0388540   0.1535350   0.3192512  -0.0133840  -0.1280505
  -0.2224628  -0.5236691   0.6938387   0.0678336   0.5933289   0.1973500
  -0.2269979   1.5184536   0.1304324  -0.1529324   0.4266384  -0.4556441
  -0.5180056   0.2344119  -0.1884033   0.4340511  -1.5968262   0.6269756
   0.3408584  -0.1834275   0.0287819   0.1860695  -0.0969796  -0.2060713
   0.0083394  -0.3944533   0.7210543  -0.3998113   0.0465235   0.1376234
  -0.0537629   0.1661402  -0.0269212  -1.0645851  -1.1317299   0.3926534
  -0.3317734  -0.5177209  -0.0063554  -0.0351309  -0.0204617   0.0827107
  -0.3892690  -0.1623528  -0.0594417  -0.2937743  -0.0035006   0.0199670
  -0.3103526   0.4384619   0.9597065  -0.0725059   0.0806942   0.3606792
  -0.4100493   0.2172359   0.4287943  -0.9770218   0.8206376  -0.7179262
   0.0386554   0.2524924  -0.1146057  -0.0424486   0.2525671  -0.2582386
  -0.0880156   0.1565436  -0.1496057   0.1431149  -0.8243447  -0.4081014
  -0.0825458   0.0604481  -0.0785041   0.3667758   0.4002662   0.7541137
   0.2927158   0.0566627  -0.2520486  -0.1880820  -0.5322779   1.0484533
   0.3485695   0.6893695  -0.7898104  -0.0907833  -0.0247067  -0.2131963
  -0.9560180  -0.1297210   1.4802378  -0.7425473  -1.6795598   0.8256236
   0.3339630  -0.1157379  -0.5552911  -0.6249990   0.3287036  -0.4429840
  -0.7585459  -0.5959488  -0.6253423  -0.1737696  -0.1055617  -0.0988178
   0.7698821  -0.6746726  -0.2846890   0.2165517  -0.2874568   0.3540785
   0.1220633   0.1295470   0.0446431   0.1312338   0.0050637  -0.6049507
   0.1706761  -0.1760850  -0.3225694   0.1118540  -0.0064048  -0.2321015
  -0.6957630   0.6902752  -1.0677420  -0.6554245   1.2137682   0.6850851
  -0.0886156  -0.0824976   0.4281303  -0.2378390   0.2467971  -0.1407719
  -0.0121012   0.3466525  -0.2004668   0.6516357  -0.0657911   0.7625889
   0.1646797  -0.3978453  -0.0225084   1.5313960  -0.8328492  -0.6325063
  -0.1196803  -0.0069883   0.0894978   0.0878784  -0.0571652  -0.3193115
  -0.3158418  -0.0200713  -0.0824142  -0.3715828   0.5369142   0.0826461
  -0.4411983  -0.5683059  -0.2341090  -0.3897740  -0.1787829   0.2930600
   0.1118606   0.0719549   0.0830590   1.0984240   0.4501561   0.6338860
  -0.5428209  -0.3128054   0.5463303  -0.1007503  -0.0807992   0.3207512
   0.4402059   0.7403912  -1.3761701  -0.0833514   0.3238464   0.0579218
  -0.5728669   0.3492470   0.8174680  -0.2071509  -0.1004662  -0.2665073
   0.2931731   0.2994702  -0.1011327   0.0178568  -0.0267483   0.0898991
  -0.1649227  -0.6113343   0.1894009   0.1050757  -0.1055829   0.3307810
   0.0152371  -0.7000879   0.6514995  -0.8361462   0.2598572   0.3435609
   0.1091661   0.0687428  -0.2085036   0.0462067  -0.3802138   0.0576798
  -0.1633284   0.0732851   0.0818916  -0.3787785  -0.5377301  -1.0382134
  -0.0813722   0.2213666   0.0207636   0.4703119   0.7806203   0.1919606
   0.1437366  -0.2035543  -0.0363474   0.2507783  -0.4965294   1.3487338
  -0.5573546  -0.2890797  -0.1964284   0.1492553   0.0192721   0.2618747
   0.5513250   1.4581046  -0.5900319   1.1602478   0.9518356   0.6875509
  -0.3589416  -0.2788548   0.0087839   0.8511913   0.2035008   0.6481384
   0.5183966  -0.0474103   0.6920810   0.2450303  -0.0887997  -0.2036091
  -0.2999922   0.2684126   0.6023463   0.0391041  -0.1653076  -0.1786781
  -0.1813195  -0.0906034  -0.0284402   0.9259201  -0.5958679  -0.3596762
  -0.0344034   1.3728358  -0.6219561   0.2229541  -0.1136334  -0.0410484
  -0.5065191  -0.7539215   0.9296859   0.0086434   0.4680167  -0.5232613
   0.2907887  -0.2480429  -0.0294402   0.3252511  -0.0380282  -0.2420711
  -0.2338056  -0.6099027   0.3242041  -0.7143764   0.7901720  -0.1795421
   0.1189296  -0.0567751   0.0151871   1.1178962  -0.2377201   0.6197415
  -0.0878749  -0.3673769  -0.4251759   0.2774540   0.4482698  -0.9111965
  -0.6731250   0.0837186   1.7675006   0.2594298  -0.1906237   0.2858737
  -0.0365302  -0.0669602  -0.1405675   0.3352294  -0.1854230   0.2153986
   0.9249075   0.5563881  -0.4890139   0.6787075   0.6505639  -0.4297489
   0.0703880   0.0231938   0.2752211   0.0496803  -0.1130655   0.2465017
  -0.0982307   0.1310291   0.1560467   0.2733345   0.1859246  -0.2106998
   0.7259742   0.5325543  -0.4420834   0.4448253  -0.0679445  -0.0213913
  -0.2869711  -0.4415627   0.0185305   0.4033849   0.5800845  -0.7479778
   0.4223574  -0.2895659   1.0790722   0.1028633   0.1223863   0.2577041
   0.7761051  -0.2593960   1.3891228  -0.1684084   0.1115342   0.1449329
   0.0259356  -0.0568748   0.3138775  -0.7311593   1.3258207  -0.4498424
  -0.0304472   0.5986834  -0.0096827   0.2300479   0.0648843   0.1750452
   0.2620370  -0.0526512  -0.0837104  -1.1940276   0.1297632  -0.1392421
  -0.0102486  -0.3129866   0.1802514   0.1545817   1.0176517  -0.5068264
  -0.1395307   0.1913300   0.2394105  -0.2718300  -0.2229852  -0.5511604
  -0.3195588  -0.2385666   0.2812733  -0.0329182  -0.2537558   0.3656286
   0.7886008  -1.0793006  -1.0424713   0.5718155  -0.5935440  -0.7394840
  -0.1280160  -0.4113558   0.1856389  -0.8414926   0.5039423  -0.5919347
  -0.5032177  -0.1319872  -1.3675158   0.1018094  -0.2430366  -0.2323365
  -0.3061757   0.6306693   1.1055069   0.6646762   0.7519482   0.0792698
  -0.0101815   0.1745582   0.4013637  -0.9249754   0.2250539  -0.2893620
  -0.7789705   0.1930571   0.5885172   1.5050804  -0.7917295   0.5755134
   0.1191944   0.0080256   0.3310493  -0.0074829   0.1197232   0.1285060
   0.1736961   0.0970164   0.2505010  -0.5154912  -0.6481961  -0.8888677
   0.0977834  -0.0602243  -0.2701962  -0.3613979   0.1177251   0.7743702
  -0.4764717   0.0078459   0.0107556   0.6136088   0.4833722  -1.1238884
   2.1456947  -0.5153709   0.0639589   0.2394372  -0.0961220   0.2812415
  -0.0219785  -0.0734332   0.0241330   0.0603249   0.1053422  -0.0631359
  -0.2970014   0.4189632   0.6706413   0.2053307  -0.6003238  -0.3100556
  -0.0019315  -0.1592929   0.0572692   0.1209044   0.0008693   0.3697152
  -0.0302436   0.1446978  -0.0534731   0.6174280  -0.4701325  -1.2559922
   0.1642510  -0.1268539   0.0538375   0.2523401  -0.8680146  -0.2591761
   0.0484144  -0.1754723  -0.1445643  -0.2524768   1.0346368  -1.1824419
  -0.0839365   0.0189650  -0.0250042  -0.1139352  -0.2354123  -0.0768403
  -0.4269802   0.1575499   0.3666103  -0.5479287   1.8850154   0.4494957
   0.1609869   0.2558074   0.1087431  -0.1837658   0.1354254  -0.1843252
   0.2572053   0.3397869   0.0783234  -0.6110885   0.0079982  -0.1969229
   0.0528571   0.1691982   0.0396538   0.2547568  -0.5527553   0.2600023
  -1.1034565  -1.1476088   0.3322301  -0.0116633   0.0013684  -0.1992958
  -0.8773186  -0.6658278  -1.1252586   0.0840720   0.2221588   0.3818149
  -0.3206234  -0.2802507   1.1529151   0.5172642  -0.2108751   0.5239479
   0.1385271  -0.6712131   0.1328872  -0.0845151   0.5397519   0.1603056
  -0.2809303   0.0926396  -0.0375306   0.5073135   0.5824507   0.4008414
  -0.0211347  -1.1064303  -0.1993762  -0.3454351  -0.0207702   0.0602012
  -0.3296816  -0.2090225   0.1853332  -0.0773073   0.0807724  -0.2119400
   1.0282896  -1.4469018  -1.4655463  -0.1637858  -0.5566592  -0.0440528
   1.5134234   0.7240915   0.4232384   0.1914519  -0.1775488   0.0818243
   0.6256941   0.5119666   0.3978065   0.6627629   0.2400464  -1.0791094
   0.1148557  -0.0242017   0.1810840   0.0985293   0.1718350  -0.0603446
  -0.0555210  -0.1514058  -0.0498006   0.0310071  -0.0154135  -0.2971189
   0.1660545   0.2725209  -0.2142007   0.4847241  -0.0061261  -0.2356783
   0.1427722  -1.2661715   0.6206344   0.2717549  -0.1085994   0.0283688
  -0.2810165   0.2397339  -0.8051575  -0.2531609   0.0484099   0.0698508
  -0.7545097   0.7342858   1.6632438   0.3098579   1.6051469   0.5100172
  -0.2907514  -0.3868481  -0.1434696   0.3384869   0.0128525   1.6913685
  -0.0374737  -1.2674909  -0.7734723   0.2071237  -0.2908903   0.3582921
   0.2218253  -0.0201207  -0.1854262   0.1269784  -0.0579794   0.2106280
  -1.1519213  -0.8375548  -1.0132761  -0.7427432   1.0312025   0.6602530
   0.0325581   0.0326863   0.2371469   0.0042455  -0.2425362  -0.2393682
   0.2742763  -0.3055397   0.1875117  -2.1322561  -0.1916901   0.2426222
  -0.0727979   0.0748098   0.1831050   0.6564803  -1.7756326  -0.5836609
  -0.1345042  -0.2457372   0.1824004   0.7597692  -1.7398540  -0.2945677
  -0.8501906  -0.0780403  -0.3981709   0.1944255  -0.1478617   0.2768808
   0.0150967  -0.0249991  -0.1704089  -0.5843334   0.2547085   0.1850271
  -0.4547881  -0.2709961  -0.0327415   1.1184044  -0.0294663  -1.5490044
   0.1876806  -0.0285636  -0.0605720  -0.2412642   0.0761604  -0.0836396
   0.4369410   0.7220095   0.7727716  -0.1775769  -0.1925267  -0.0723340
  -0.2095733  -0.0822723   1.3095507   0.2487526   0.0712144  -0.1039966
   0.4318146  -0.0738606   0.3024330  -0.1547716  -0.3692310  -0.0622584
  -0.5949362   0.4098221  -0.0286510   0.0697312   0.0461475   0.1265082
  -0.1513759  -2.0009012   0.7595310   0.1054673  -0.3219083   0.2733400
  -0.5436711   1.1916934   0.3626517   0.0926980   0.3210125  -0.0472872
  -0.1242803  -0.2169747  -0.0545457   0.1931467   0.0751885  -0.2434943
  -0.2165637   0.5419678  -0.6686944   0.2210851   0.6573199   0.2372161
   0.5030142  -0.1324158   0.4730450   0.3204575  -0.1000980  -0.0559321
  -0.3890653  -2.1259286   0.4265363  -0.2839296   0.5906061  -0.7332327
  -0.0118997   0.2331781  -0.3302891  -1.2086292  -1.2548123  -0.7082126
  -0.5215533   0.6528097   0.4938790  -0.9245348   0.9709504  -0.0991178
   0.2141010  -0.3546128  -0.2398264  -0.1395755  -0.0037111   0.3908459
   0.0175948   0.2028347   0.1073679   1.2990412   1.0654381   0.0664273
  -0.4224226   0.4973787   0.0310895   0.3258869   0.4491277  -0.7192717
   0.1115814   0.1633934   0.0374757   0.5356750  -0.2847878  -0.0680812
  -0.4267229  -0.7709912   0.6565782  -0.3289427   0.3650244   0.0573885
   0.3193624   0.1330231  -0.1186598  -0.6259333   0.5630679   1.7449741
   0.0788584   0.2487897   0.2124833   0.4923247  -0.1286790  -0.1460872
  -0.0988074   0.0736698  -0.1136837   0.1297489  -0.0057480   0.1868688
   2.3274153  -1.3441860  -0.5610622  -0.2840807  -0.1029565  -0.2361860
  -0.8796416  -0.4275392   1.0774693   0.0662134  -0.2003866  -0.0223087
  -2.1281155  -0.2402189  -0.1273936  -0.1822415   0.4301034  -0.1042952
  -0.3342257   0.3844591  -0.3009740  -0.1592990  -0.1119539   0.2996465
   0.0509254  -0.4511176   0.3149773   0.1238295   0.2638809  -0.0940643
  -0.1854594   0.2142529   0.5555412   0.2941568   0.1424935  -0.1437633
   0.2123034   0.3403763   0.1524503  -0.4891654  -1.1868496  -0.2519665
  -0.0593665  -0.4050943   0.1541433  -0.1693540   0.0486427   0.0159871
  -0.1298836   0.1456738  -0.0698837  -0.0318203   0.0655434  -0.1785615
   0.4240670   0.2609560  -0.1687871   0.1710565   0.5149351  -0.2184093
   0.2812841   0.0095646  -1.2107637  -0.7639987  -0.0876474   0.9267157
  -0.0820671   0.1623181   0.3249429   0.0321036   0.0445253   0.2843763
   0.0668433   0.4011879   0.1013927  -1.3518566   0.4526757  -0.2120291
  -0.1488816  -0.0648433  -0.0479320   0.0190468  -0.6215124   1.0876825
  -0.6506681   0.6873363   1.9235999  -0.1444617   0.1480675  -0.1543409
  -0.1628687   0.1271589  -0.2432277   0.1169674   0.1125862   0.1068649
   0.5186471  -0.1852985   1.3042723  -0.4556676   0.1020165   0.1676217
  -1.2279437   0.2030653   0.6894308   0.0728505  -0.4733252   0.4624378
  -0.2439199   0.4923391  -0.1984745  -0.7980314   0.6737468  -1.3173024
  -0.0835686   0.1447669  -0.1105753  -0.0319454   0.3190100   0.7338636
   0.7222132   0.8375453  -0.2151514  -0.0139768  -0.1203902   0.0014123
  -0.3930586   0.3611610  -0.1325923  -0.1158880   0.0387334  -0.0841924
   0.0126594  -0.0372866  -0.1856653   0.0695745   0.0426285   0.2476911
  -0.0891893   0.0462292  -0.1333424   0.0541423  -0.3844065  -0.1989195
  -0.8574442   0.2207353  -0.3552663   0.3053389  -0.4626773  -0.0304066
   0.0099355  -0.0672776  -0.0014485   0.5033754  -0.3102693   0.1047068
  -0.1652466   0.5560975   0.5995266  -0.1638793   0.0002720  -0.0626287
   1.0931466  -0.9871365  -1.1921808   0.4601703   1.7702047   1.5318478
   0.2058748   0.1982854   0.0209887  -0.4020515  -0.4337484   1.0355341
  -0.0413695   0.1254589   0.4165431   0.0856580  -0.0664046   0.0320595
   0.2782453   0.3891749  -0.0974327  -0.8274188  -1.3023708  -0.2801332
   0.4102927   0.0927134   0.0528324  -1.6085692  -0.3915044  -0.7267802
   0.1007460  -0.0596321  -0.0249564   0.4879843   0.5054630  -1.3329353
   2.7322326   0.9084861   0.2847781  -0.0230557   0.1619302   0.0892105
  -0.1761161   0.6068606  -0.4713952  -0.1547395  -0.1072620  -0.2152425
   0.7371560  -0.5229264  -0.2624339   0.2295315   1.5496303  -0.3443828
   0.7236526   1.9726151  -0.8214016   0.0266808   0.3002314  -0.0249049
   0.7296560   0.9781518  -1.4156652   1.3574707   0.8781630  -1.0548341
   0.7327731  -0.4654289  -0.1882343   0.1627206   0.0466725   0.0934339
   0.0396658  -0.0960073  -0.1222574   0.0296167  -0.3716425  -0.1690339
  -0.0301999   1.0779623   0.0007328  -0.0644950   0.2075457  -0.0105995
   1.5120016  -0.5122654   0.1481370   0.0573005  -0.0875378   0.2180198
   0.2584558  -1.2759153   0.2830773   0.2429032  -0.6809715  -0.4112030
   0.1777901  -0.2278845   0.1254905  -0.9857400  -0.4436319  -0.3992822
   0.6839216   0.5990112  -0.6989453  -0.0878859   0.2547802   0.1179597
   0.2073701  -0.0737829   0.4470450   0.0062139  -0.2072800  -0.0433978
   0.1186018  -0.1960921  -0.2744170  -0.0310450  -0.3015712  -0.2123052
   0.0846786  -0.1319792   0.2449843  -0.1300558  -0.2128318  -0.1863458
  -0.3474308  -0.3374340   0.1470484  -0.3585489  -0.0133457  -0.3981847
  -0.1345320  -0.2035347  -0.0778150   0.2186598  -0.5539473  -1.1722353
  -0.8168025  -0.9035623   0.0381994  -0.3667487  -0.2760990  -0.0704053
   0.1453411   0.1213213   0.0383914   0.0707362  -0.3429828   0.3118994
  -0.3073843   0.2367543  -0.6036084   0.0972631   0.1756188  -0.2070787
  -0.3472673   0.0889649  -0.3807283  -0.0424868  -0.2069288   0.0065989
   0.1726798  -0.0593237  -0.0368927   0.3332849   0.5018477   0.3721764
  -0.2417061   0.3375159  -0.1177817  -0.5394212   0.2657288   0.0812413
   0.0330914   0.0135001   0.1645636  -0.0678908  -1.0567517  -0.6398692
  -0.2012541  -0.2793389   0.1824056  -0.1558781   0.1083648   0.0580988
   0.1066423  -0.0461619   0.1305581  -0.0339318  -0.1449055  -0.1146074
   0.1027844   0.1694391  -0.2973078   0.2116055  -0.1742869   0.2003714
  -0.0269918   0.0150766   0.2413691  -1.4983570  -1.7331516   0.6210652
  -0.0940656   0.2022658  -0.0020179   1.1873263   1.0232146  -0.3794349
  -0.0090484   0.1166151   0.0528458  -0.1863433   0.0168373   0.2053777
   0.8001126  -0.0809643  -0.8197627   0.2845008   0.0523251  -0.2110364
  -0.3861635   0.2445627   0.7396012  -1.8108244  -0.0407392   1.7059784
   0.0072639  -0.1364581  -0.4586571   0.1888826   0.0336229   0.0469949
  -0.0558138   0.1117137  -0.0461601  -0.6093039   0.1038417   0.1023125
   0.0469435  -0.2281858   0.1194029   0.0348582  -0.1918272  -0.1243940
  -0.2024878   0.3816102  -0.1925810  -0.3172534  -0.1869931  -0.3091466
   0.7978827  -0.4192966  -0.3158933   0.0855472  -0.0721467  -0.0341831
  -0.2307151   0.9243965  -0.1040711  -0.8604386   0.4553726   1.5598959
   0.0882824  -0.1562935   0.0974464   0.2515635   0.0285010  -0.3322275
   0.2254476   0.0115354  -0.1258560   0.1827421   0.0641275   0.1839574
   0.1190898   0.1310111   0.1958082  -0.3280463   0.0117569   0.1778705
  -0.3772786   0.0662669   1.6333011  -0.0232917  -0.1716509   0.0422472
  -0.1267812   0.1525388  -0.5172049   0.1902319  -0.0801043   0.0970016
   0.2177210  -0.2130172  -0.0932712   0.1049179  -0.4955984  -1.1649526
   0.2662925   0.0941036  -0.1224071  -0.6937987  -0.0747970  -0.5758179
  -0.0482502   0.0907396  -0.2598985  -0.0710835  -0.0211650  -0.0318094
  -0.6182491   0.3044051  -0.0971012   1.3140766   0.7359240   1.0933119
  -0.0408490  -0.1139248   0.1447940  -0.1908866  -0.9739884   0.8430616
  -0.0931112   0.0019460   0.1040223  -0.5076221  -0.3815632  -1.0063388
  -0.8510047   0.7189599   0.7502298   1.3522826  -0.2615802  -1.7219601
  -0.3490232  -0.2810692  -0.1091378  -0.0138576   0.2510493  -0.1536510
  -0.0021495  -0.0058713  -0.0582319  -1.6380718  -0.4208088   0.7351244
  -0.2833413  -0.2660499   0.2457148   0.3045261   0.3879302  -0.5728058
  -0.1308377   0.0522193  -0.1242427   0.9808201  -0.3817964  -0.0799399
   0.7551812   0.8868685  -0.0990646   0.0201456  -0.3055579   0.0763632
   0.0861540   0.2420209   0.1033469   0.1075042  -0.1849439  -0.2006161
  -0.7355746  -0.1807118   0.1188807  -0.2818856  -0.2120141  -0.0891666
  -0.1904575  -0.3110364   0.0352413   0.0283139  -0.0494693  -0.2615805
  -0.2152883  -0.0949172   1.2401428  -0.1181868  -0.0593557   0.0967036
   0.1234760   0.3138953   0.0875020   0.0034690   0.3203066  -0.2582715
   0.6684872   0.3642520   0.3192232   0.3463314   0.5175959   0.4968390
   0.3338452   0.5047025  -0.2079167   0.0286666   0.1268862   0.0495762
  -0.0452172  -0.7836421  -0.7624724  -0.3098118   0.6423291  -0.2006875
  -0.1392067   0.3711348  -0.3407144  -0.1345356   0.1316003   0.2159682
   0.6756018   0.3995627   0.9011990  -0.0352468  -0.2869370  -0.0861362
  -0.4777330  -1.3222461  -0.3674319   0.2545898   0.1416986   0.0558615
  -0.2634814  -0.1580743   0.1614596   0.4647591   0.4263569   0.3574836
  -0.5898429  -0.1487131  -0.3912515   0.0799524  -0.3520731  -0.1819218
  -0.5138362  -0.3346627  -0.0157378   0.3521616  -0.0692190   1.1799904
   0.3161456  -0.2794576  -0.1263741  -0.6419276  -1.2835189  -0.2451139
  -0.2252170   0.0016733   0.0235569  -0.1242105  -0.2204431  -0.1333875
   0.2363383  -0.2100771  -0.2138639   0.1755938  -0.0160000  -0.1645524
  -1.2918583   1.1907204   0.2249744   0.4018894  -0.2574238  -0.0234621
  -1.4171594   1.2359496   0.2382064   0.5128740  -0.1869408  -0.3661423
  -0.1734588   0.0792016  -1.5146180   2.3199582   1.4079838   0.8631965
  -0.1895040   0.1486047  -0.1084601   0.9060504   0.3752776  -0.6010275
   0.2162541  -0.2175994   1.2879640   0.5993667   0.1836312   0.0531223
  -0.3528400  -0.0516559   0.3642211   0.0459895  -0.8208059   0.5602307
  -0.1422091  -0.0223832  -0.3746830  -0.6298474   0.4625977  -0.0084228
   0.0165462   0.5952270  -0.6463237   0.2699184  -0.0721997  -0.2949315
   0.0149968   1.3693119   1.1944090   1.4913813  -0.4542041   0.1769040
   0.7607478   0.3771211   1.4406896   0.0592928   0.2427275  -0.3575339
  -0.2899622  -0.1664104   0.2672864  -0.1022955   0.2272783  -0.1800960
   0.1963036   0.7459369  -0.4999587   0.1455995  -0.5159988  -0.6084625
   0.2306162  -0.0470977   0.7344648   0.0748770   0.0808003   0.0831255
  -0.5039768  -0.4227448  -0.2761255   0.3154861   0.3710777  -0.9303663
   0.3377737   0.1217820   0.2556065  -1.2616429   0.6274134   0.2727144
   0.0758140   1.0160846  -0.4586542  -0.0400570   0.1003173  -0.0507814
   0.2172505  -0.0436585   0.1422768  -0.2251829  -0.2681299   0.1390561
   0.1294927   0.0662197  -0.2276101   0.1336296  -0.1403656   0.0960717
   0.1659525  -0.0529766  -0.1144567   1.3142193   0.1678770  -0.7508003
   0.1258923  -0.2378194  -0.0024201  -1.6398186   0.7455988  -0.8993230
  -0.0764315  -0.2988808  -0.0394209   0.2800432  -0.7560140   0.5364132
  -0.0378788  -0.2975687  -0.5482198   0.8933871   1.8328103   0.5700462
   0.2625205   0.0352782  -0.0609820  -0.0648053   0.1284865  -0.2167321
   0.4491101  -0.0785058   0.0646648  -1.2483699  -0.6703133   0.2863077
  -0.0328155   0.4139494  -0.3497985  -0.1335435   0.2766383  -0.9805624
   0.3366470  -0.0896763   0.1269674  -0.1107809   0.3885420   0.3822719
  -1.5345980   0.3555836   1.3638991   0.3474510  -0.1498767  -0.5200374
   0.7340819  -0.6456652  -0.4557183  -1.3295333  -0.6320888   0.6498178
   0.0719026  -0.2657056   0.4032514   1.0080391  -1.0010148   0.6655682
  -0.0078171   0.5048959  -0.8437336  -0.1030042   0.2314424  -0.3941809
   1.5725255  -0.7768072   0.3439533   0.5757917  -0.7099363   0.3812061
  -0.0194351   0.4336282   0.2757139  -0.2655217  -0.1320611  -1.0907526
   0.3455369   0.4745955  -0.1738410   0.0483368  -0.6991450  -0.3945003
  -0.0265184  -0.2279466   0.1144844   0.0561801   0.1984827  -0.2038379
  -0.3157089   0.1757104   0.1764268   0.9205760  -0.4537120   0.6996005
   0.0319523   0.0258518  -0.2667344  -0.4340151   0.5363389  -0.7234629
  -0.2130270  -0.1657770   0.0520629  -1.2521384   0.5270849  -0.0665655
  -0.7390343   0.8448954   0.7384795  -0.0825689   0.3563179   0.0761444
  -0.1426543  -0.4212660  -0.5813184  -0.5129259   0.4712659  -0.7612191
  -0.0027290   0.0564559   0.0897940  -0.3489469   0.0210043   0.1597204
  -1.9420223   0.5662670   0.2145589  -0.5297157  -0.9099989   0.5701847
   0.2263799  -0.4198248  -1.0768291   0.0624043   0.0489201  -0.0077738
  -0.1352443  -0.2109870   0.0710572  -0.3182120  -0.0012353   0.0818700
   0.2253310   0.9190804   0.8489612  -0.0323560  -0.0502475  -0.1764642
   0.4036542   0.9399472  -0.4431759   0.0894467   0.3328532   0.3049790
  -0.4012229   0.2651280   0.3669309  -0.7974199  -0.1027156  -0.3094123
  -0.1510452  -0.0148115  -0.1339280   0.1638547  -0.3578463  -0.9256624
   0.5118067   0.1330104   0.3777897   0.2066640  -0.5561323  -0.2629258
  -0.0803291   0.3712314   0.1236312  -0.2608949   0.5375316  -0.1413677
   0.5060822  -0.2919461   0.0898359  -1.6092545   0.2028609  -0.9594946
  -0.0880655   0.6812997  -0.2174414   1.0539287  -1.2468673  -1.2659095
   0.0822051  -0.1853835  -0.0817990   0.2224858  -0.0320812   0.0544054
  -0.0632636   0.0124715   0.2165107   1.3279114   0.6455050   1.2162975
   0.1132749   0.1095439   0.0120048   0.1398871  -1.1022939  -0.2935177
  -0.2174485  -0.1408238   0.1684774  -0.1455713   0.3007022  -1.1263741
   0.0582231   0.8877165  -0.1011318  -0.3520471  -0.0575255  -0.4674882
   0.5885865   0.0759513   1.0127346   0.0406848   0.0166925  -0.0454942
  -0.4446666  -0.6641729   0.1180465  -0.0960204  -0.4405182   0.8101097
  -0.0340681   1.1229844   1.3230321   0.1016019  -0.3299663  -0.1547653
   1.3533400  -0.2759716   0.3805338  -1.2955819   0.6323886   0.7150115
  -0.3858997  -0.7611084  -0.6057797  -0.4318357   0.0190516   0.1353524
   0.0105064  -0.2050863   0.0191758   0.1025352  -0.1511244   0.0165129
  -0.1784848  -1.3104376   0.4259319  -0.2227185   0.0634785   0.1153874
  -0.1607929   0.7326722   0.4234267  -0.0436209  -0.0218478   0.1577095
  -0.1176896  -0.2454061  -0.4972547   0.0580700   0.6644929  -1.2351854
  -0.1575849   0.1023917   0.0654291   0.2013942  -0.2194135  -0.3952722
  -0.1856625  -0.2161294   0.1116952   0.1540548   0.0281883   0.1288200
  -0.0987429  -0.3577702   0.1140821   0.0995447   0.1449400   0.0695893
  -0.7653846   0.7880485  -0.3741774  -0.1312573  -0.2138367  -0.0468058
  -0.8053438  -0.9785790  -1.2052815  -0.0803377   0.3394000  -0.0375891
  -1.4321727   0.0258579  -0.6456562   0.4252059  -1.5265548  -0.8336057
  -0.0701021  -0.1089488  -0.0022696  -0.1995573  -0.1866879  -0.1009708
  -0.3449742  -0.0421764  -0.0613882  -0.1864260   0.0246924   0.4680144
   1.2368177   0.6125102   0.7506653  -0.2303358  -0.2326662  -0.2379578
  -0.0608119   0.1106177  -0.0162202   0.3888699  -0.3432633   0.3851968
   0.4611500   0.9833732  -0.8785777   0.1632535   0.1642067  -0.0743939
   0.7421382  -1.4118749   0.3360623  -0.1845433  -0.2894637   0.3946773
  -0.7330337   0.5197306   0.1371244  -0.1404823   0.0253410   0.0062454
  -0.0874319   0.8542711   0.6478125   0.9973962  -0.3885473  -1.2919819
  -1.2569472   0.2920366   0.6681177   0.2347219  -0.3460329  -0.1112753
  -0.7855704  -0.9288469  -0.8078251   0.1189944  -0.1433871   0.7167221
  -0.6666203  -0.2792436  -0.3979356   1.4070419   0.3931605   0.5745784
   1.3020357   0.0748605  -0.5509463  -0.0021913  -0.9600610  -0.6102083
   0.1084011  -0.2123534   0.0648563   0.0274634   0.4060198   0.0564592
  -0.2824390   0.1070972  -0.1173633   2.1741124   0.7601694   0.1588767
   0.0926533  -0.0087998   0.0699805   0.7281401  -0.6704463  -0.3299993
   0.3339335  -0.2071218  -0.0757608   1.1532964  -0.1324649  -0.1143266
   0.0788442  -0.0639414   0.9037355   0.0808106   0.1181439  -0.0520878
  -0.1399760   0.2820674  -0.3131812   0.5252025  -0.3330506   0.1377154
   0.6304874   0.9097023  -0.1635216   0.0941310  -1.5303408  -0.2427200
  -0.0999143  -0.1158959   0.2570706   0.4179996  -0.1920810  -0.0099723
   0.1236312  -0.0396693   0.0066380  -0.0390521   0.4073077   0.3887126
  -0.3935905   0.2823491   0.0414457  -0.8846609   1.3210894   0.4841997
   0.0726190  -0.0248534  -0.0343482  -1.1350663  -1.0130258  -1.1358982
  -0.0667580   0.1216507   0.0660517   0.3075674   0.2563397   0.0081052
   0.0678351   0.0304005  -1.0049457  -1.0092499   0.5666830  -0.6808302
  -0.0242683   0.0700094  -0.1161188   0.6958071   0.1871623  -0.9957092
  -0.4123518  -0.1421056   0.2474214   0.4469591  -0.2521298   0.2243257
   0.3547597   0.0741438   0.0534375   0.3315223  -0.2832508   0.1285284
  -0.9929776   0.8829898   1.3470117   0.7155922  -0.2155515  -0.1289380
  -0.4044942  -0.5670725  -0.2540169   0.1097578   1.7881811   0.4394123
  -1.0597677   2.0237488   0.0831989  -0.1066340   0.1554812   0.1618015
   0.2738523   0.2130900   0.4371247   1.3453819   1.3009451  -0.6729609
   0.1747712  -0.1595481  -0.1591769   0.2528846  -0.3446550  -0.1295385
   0.0584924   0.1265810  -0.5732477   0.2706335  -0.0402609  -0.0313204
  -0.4268690   0.1313652  -0.0057161  -0.5252848  -0.0026838  -0.8751126
   0.1196914   0.0236822  -0.0609001  -0.4750898  -1.0507477   0.2774470
   0.0322794   0.1208427   0.1003721  -0.2207644  -0.8099866   0.5224904
   1.3406586   0.0779190   1.0819493   0.3288449   0.0519596  -0.0945647
   0.5821760  -0.8350059   0.3681720  -2.0251754   1.4340018   0.7323112
  -0.4382231  -0.0550792   0.5496173   0.1038079   0.4734324  -0.1847248
  -0.0015612   0.0574008  -0.0145556  -0.0840024  -0.0058289   0.0283836
   0.1384017  -0.0044383   0.1977293  -0.0237113   0.0192507  -0.2602564
   0.2702694  -0.6923818  -1.1033503   0.1158484   0.0253083   0.1285610
   0.0060564   0.4189752   0.0698462  -0.6143553   1.9873366   0.5179496
   0.2311278  -0.3779338  -0.5235505   0.2268762  -0.0356324   0.0870824
  -0.2969121   0.2183125  -0.0891780  -0.4864796  -0.2524202   0.1376567
   0.2740906   0.2626397   0.1726529   0.4506599   0.1060849  -0.0828296
   0.0692819  -0.2126700   0.0454215   0.1395087  -1.1533444  -0.2811215
   0.1787949  -0.3514772  -0.3033247   0.5263723   1.1429353  -0.1162121
   1.1837222   0.3852382   1.0570359   0.5139447   0.9175449   1.4150633
   0.1942803   0.1674011   0.2633578  -0.7873668   0.2996682  -0.9763026
   1.3229356   0.8554161   0.3484154   0.0029218  -0.4372377  -0.0068846
   0.9145259   0.1755554  -0.3821013   1.1571288  -0.1281535  -0.5464406
  -0.0742060   0.1965087  -0.1432884   0.1610272   0.1450554  -0.0148171
   0.1057614  -0.1084834  -0.0116381   0.3633351  -0.1440658  -0.1595847
  -0.5415983   0.9385013   0.0270385  -0.1447832  -0.4171042   0.4079057
   0.4911313  -0.0855371   1.0272092  -0.4206462  -0.1549403   0.1387956
   0.4024105  -0.5058629  -0.5069993  -0.1771656  -0.2698438   0.3825363
  -0.2844284   0.2137936  -0.2477214   0.7774504  -1.3939271   0.6777018
  -0.6370093  -0.3835436  -0.1774811   0.3530773   0.1953140   0.0666697
  -0.4141664   0.3931885   0.0846278  -0.2477403   0.1189784   0.3533243
  -0.3134067  -0.3648731  -0.0400754   0.2579341   0.0045634  -1.0456271
   0.3001994  -0.5738682  -0.1033297   1.5256273   0.8384867   1.1007353
   0.0736410   0.1137961  -0.0888660   0.1499334   0.2578122  -0.1712640
  -0.1527097  -0.1175912   0.2277234  -0.1603358   0.3531929   0.0336799
   1.0891090   0.1182153   0.2468411   0.7296284  -0.6355403  -1.0002984
   0.1223825  -0.0897060   0.1070580   0.3292177   0.3190753   0.3340228
  -0.7357872  -0.5108729  -1.3170203   0.1991227  -0.3441733   0.0135693
  -0.2063827  -1.1483494   0.7272119  -1.0738614   1.2859224  -0.1070834
  -0.0972292   0.6631621  -0.0997463   0.0039322  -1.0255499  -1.1503096
   0.0743600  -0.1423851   0.2543227   0.1420261  -0.0565754   0.1597115
   0.1603146  -0.2394678   0.1384668  -0.8200845  -0.0193989  -0.9435573
  -0.1847220  -0.1391873  -0.1967613   0.0724605   0.0643925  -0.6443882
   0.2273051   0.3008525   0.6489934   0.3012022   0.1575309   0.5862598
   0.6606594  -0.2447102   0.1550081  -0.1842794  -0.0388324  -0.1257174
  -1.1870347   0.0543213   0.4575278   0.0328386   0.0426603  -0.2234734
  -0.2492373   0.1824594   0.0450077  -0.1929613   0.1200030  -0.0595919
   0.6093805  -0.3988745  -0.6443035  -0.0930378   0.1609988   0.0095214
  -0.1527438   0.2248613  -0.9779372  -0.0276845   0.0145045  -0.1428215
  -0.2161562   0.7025819   0.0234963  -0.2348729  -0.1795943   1.5394675
  -0.2287603   0.1286940  -0.1343027   0.1078727   0.6194043  -0.0319902
   0.1137777  -0.5802613   0.5027504  -0.2348669  -0.0626266  -0.2426204
   0.3260320  -0.1647222  -0.1109884   0.8156733   0.3722636  -1.5304129
  -0.7650595  -0.4860571  -1.4494630   0.7217034  -0.1960608  -0.0754527
   0.3086021   0.2381336   0.7713339   0.0628404   0.0177159   0.0567063
   0.1468706   0.0365189   0.1174985  -0.0357100  -1.0371552   0.2193208
   0.0613883   0.0877572   0.3093748  -0.1251946   1.7433581  -0.4581801
  -0.2563140  -0.1056587  -0.1564801   0.9653537   0.4389829  -0.6000778
  -0.0440353  -1.3038864  -0.7866785  -0.1100010   0.0057068  -0.0240084
   0.1617952   0.3578507  -0.3666078   0.7619509  -0.2903064   0.3514280
   0.1903621   0.1813040   0.2263693   0.9238046  -0.3835158  -0.4782351
  -0.0212667   0.0960874  -0.0103274  -0.3326382  -0.2114615  -0.3868953
   0.1157675   0.1562070   0.0558045   0.0482643  -0.6622923   1.0995627
  -0.0839838  -0.1599431  -0.3273577  -0.7781797  -0.3897518   0.8112886
   0.1895360   0.2693648   0.1298531   0.2710666   0.0193544   0.1479715
  -0.2636859   0.0201182  -0.0634774   0.6011584  -0.8592834   0.7210078
   0.0049426   0.0598099  -0.3528559  -0.5357417   0.0249808   1.8600669
  -0.2531182   0.2583445  -0.2129683  -0.9493618  -0.5280339   1.0556489
  -1.3745779  -1.8381065   0.7930999   0.0021428  -0.0579821   0.2793934
  -0.0563297  -0.5056750  -0.5299481  -0.7705812  -0.2438312   0.4181521
   0.2107363  -0.0817449  -0.4212747   0.0088912  -0.0729276  -0.1906897
  -0.0467008  -0.1994685   0.1186236  -0.3380151   0.0770179  -0.1680291
  -0.1937461  -0.1621105   0.1459392  -0.0142109   0.2824888  -0.1172622
   0.0448342   0.0784946  -0.1081646   0.7674451  -0.1840573   0.6260960
   0.4246735  -0.3892243  -0.9699623   0.1866455  -0.0480989  -0.3638464
   1.3185407  -0.3318137   1.4169935  -1.1152854  -2.2536212   0.3454850
  -0.0493707   0.2483996  -0.1292338   0.7588412   0.5557820   0.0401574
  -0.5976736   0.3080800  -1.1096002  -0.0480729  -0.4672346   0.0295951
  -1.4340375   0.0101702   0.0489544   0.0699795  -0.1848067  -0.0338747
  -0.3874151  -0.3330857  -0.4062721  -0.0365738   0.3089412  -0.0010025
  -0.4805665  -0.5375768  -0.0623504   0.5731801   0.2829099  -0.1996487
   0.3219092  -0.2794838   0.4188600   0.1449820   0.0671689  -0.0632741
   0.2124446   0.5127397   0.3613970   0.3699743  -0.0242035  -0.8306168
   0.5360749   0.0487567  -0.1150905   0.6189094  -0.2706046  -0.5054245
   0.1523801   0.7333542  -1.2481428  -0.1647971  -0.4094819   0.5206399
   0.0700930   0.0406864  -0.2244896   0.0337625  -0.3317472  -0.1089339
  -0.2523315  -0.0763965   0.1526573   0.2978200  -0.3289703  -0.1737067
  -0.0186900  -0.1226208   0.0693537  -1.6670013   0.8160106   0.2123546
   0.0624755  -0.0784933   0.0332409  -2.2219109  -0.0851541   0.8653177
  -0.1873490   0.1260966  -0.0777835  -0.3928412   0.5452764  -0.3100593
  -1.5546378   0.3888660   1.6318308  -0.2474960  -0.0581106   0.4443914
  -1.2161118   0.0536529  -0.5277922  -0.4175317   0.0511916  -0.7159107
   0.0273959  -0.0549755  -0.2357305   0.3196898   0.1651141  -1.1218748
   1.3503297  -0.3784748   0.2821995   0.0666749  -0.0710733   0.0854940
  -0.4301829   1.4350028  -0.0997403  -0.0122137  -0.1679606  -0.0222644
   0.1780269  -0.2497379   0.1585230  -0.9387083  -0.3668693  -0.5384948
   0.2038986  -1.3183533  -1.6076891  -0.0073737  -0.2247891   0.0569328
   0.1736839   0.7782320   0.2845797  -0.5308697   1.3980348   1.1771828
   0.0839559   0.1187159   0.0158920   0.1811927  -0.0861477   0.0328433
   0.1465448  -0.1556443  -0.1343752   0.5101626   0.4799563  -0.1801413
  -0.0293406  -0.0773898   0.6729267  -0.5233115   0.0812731   0.9922791
   0.2768254   0.0793835   0.1493503   0.7764175  -0.0676588   0.6511550
  -0.0375250   0.0462095  -1.5549007  -0.2967271   0.2108663  -0.0556519
  -0.1176858   0.8674173  -0.2154969   0.9842716  -0.3970441  -0.2326801
   0.0168204  -0.1420710   0.1987998  -0.0277626  -0.1531997   0.3913367
   0.0484162  -0.3067332  -0.0480105  -0.0402709  -0.3013519   0.0817011
   0.2661251  -0.1362800   0.0332929  -0.2336175   0.3056284  -0.4795393
   0.4397708  -0.2119222  -0.0141763  -0.1287365   0.3105126   0.5621119
  -0.8768872   0.9793088  -0.6695943   0.0232664   0.2123085   0.1506998
  -0.7346260  -0.6987592  -1.2586982   0.2233540   1.2920662   0.0446197
   0.0961675   0.2597270  -0.2985932   0.4835266  -0.1058030   0.3295689
  -0.2979510   0.8678654   0.1612964   0.1186232  -0.0733054  -0.0247941
  -1.0475012  -1.2200894  -0.3617582  -0.7701110   0.3569612   2.2276040
   0.0728769  -0.3617231   0.4177554   0.4627326  -0.5833970   0.3928884
   0.3464955   0.1760566   0.2724661   0.0238980  -0.0002326   0.0827871
   0.4991998  -0.0846272   0.5001426  -0.2485806  -0.0606599   1.9584699
   0.6668717   0.6238318   1.2449209  -0.0922549   0.1950016  -0.1322118
  -0.1196372  -0.2098033   0.0145727  -0.0197654   0.2962547  -0.0572895
  -0.4217420   0.7574007  -0.5517809   0.0532483   0.3164875  -0.0131635
   0.3092291  -0.0712354   0.7249596   0.5885817  -0.1578958   0.3053354
   0.8180114   0.2203827   0.4262411  -0.0884462   0.3035904  -0.1539183
   0.9380374   0.0624584  -0.0970142  -0.0534650  -0.3573699   0.0269912
   0.8762873  -0.2501715   0.3646396   0.0637601   0.0885733  -0.0564603
   0.8062475  -0.0673300  -1.1466275  -0.3498477  -0.2692662   0.5058235
  -0.2045768  -0.3210701   0.5563584   0.0120144  -0.0688030   0.1338725
  -0.0676177   0.0758064  -0.0642234   0.0546827   0.0232128  -0.2579263
  -0.8229942   0.2586530  -1.4293935  -0.0303664  -0.0262479  -0.1781249
   0.4351329   0.0325442  -0.0673581  -0.0856084  -0.0299425   0.2193573
   0.9082741  -0.1618721   0.4087939   0.9710040   1.3084545  -0.8851311
  -0.1493244   0.0501478   0.3732155   0.2061484  -0.1560971  -0.1583944
  -0.2068236   0.0990560   0.5320812  -0.0489706   0.3591694   0.2151301
  -0.1165147  -0.1323784  -0.0585228  -0.2513817   0.4316237  -0.1205646
  -1.3672008  -1.1015136   1.2332458  -0.2517822   0.0074431   0.1038059
  -0.6765761   0.1916078  -0.7082914   0.1086522  -0.4733108   0.0414960
  -0.2147299  -0.6752622  -0.8061162   0.7344105  -0.9873827   0.9010072
  -1.1250205  -0.0752371  -0.7431965   0.0941612   0.1048203   0.4452460
   0.2661382  -0.3194033   0.0232448  -0.0927327  -0.1782250   0.0213700
  -0.0738453   0.9885656   0.4474903  -0.1171608  -0.0362513   0.1849750
   0.7145307   2.1818912   1.0757244  -0.1731572   0.3137352  -0.0368588
   0.4423016   0.6311131  -0.0522243   0.2168485   0.0091514  -0.0189378
   0.5075153   0.4047717   0.4892359  -0.3302775  -0.5213958   0.9836901
   2.0694155  -1.1712665   0.3036001  -0.2600414  -0.3992482  -0.0802018
   0.9335702  -0.4401143  -0.8342443   0.7695733  -0.5826681  -1.0427959
  -0.3292818  -0.0320416  -0.3445713   1.2085165   0.3558167  -0.9198536
   0.3004358  -0.0667180  -1.4153243  -0.7788463   0.5215129  -0.1045025
  -0.3368866  -0.3268997   0.1831053   0.2436525  -0.1691762  -0.2839252
  -0.2151283   0.0704502   0.1083096  -0.8847259  -1.4793265  -1.1031175
   0.1427521  -0.2933505  -0.0142021   0.7927602  -0.6618355   1.8626058
  -0.2171961  -0.2064980  -0.0921905  -0.8791015  -0.4080467   1.5833486
   0.7953475  -0.8311239   0.0644106  -0.1396489  -0.1775312  -0.1858209
   0.3762924   0.3689816   0.0285420  -0.3739754  -0.0639644  -0.2309174
  -0.4231810  -0.0189773   0.5061807  -0.0715336  -0.4555313  -0.1009360
   0.0119521  -0.0135503   0.0418860  -0.1388058   0.7482344  -0.1949494
  -0.5285630   0.3107782  -0.2778514  -0.7831130  -0.9232046   1.2851174
   1.5563927   0.9239429   1.1290842   0.2029080   0.4335525  -0.1251879
  -0.1452588   0.2394146   0.4767068   0.1119865  -0.4184601   0.2255118
   0.7693790  -1.7853720  -0.2052783   0.0426898  -0.1610370  -0.1451279
  -0.5421955  -0.4293867   0.6119183  -0.1423397  -0.0610568  -0.3603115
  -0.1398146   0.4811743   1.0533211   1.1035708   1.8132149   0.3675579
   0.1341649  -0.0738899  -0.4558768   0.2184128  -0.7946079   0.7318527
   0.4490749   0.6882899   0.5067778   0.1806362  -0.3046705   0.4901705
   0.1904234   0.1305392  -0.0736451  -0.3381833  -0.0367960   0.0502377
  -0.1436331  -0.1014947   0.4172493   0.1810916   0.0616638  -0.0152319
  -0.0206774  -0.2351743  -0.0053757   0.8633630  -0.0011892  -0.4363152
   0.1435929   0.1924842  -0.0721143   0.4263084  -0.1590020   1.1716121
   0.5041994   0.0758454  -0.1317788  -0.1651814   1.5545556   1.0987804
   0.3565617  -0.7949001   0.0070529  -0.1159371  -0.2667596   0.1332247
   0.1434904  -0.1754980   0.0331088  -1.5529218  -1.6830086   0.7231370
  -0.0632438  -0.1215938   0.1487076  -0.2043115   0.2443824   0.3784252
   0.0970892  -0.0543993  -0.2033596  -0.3494764  -0.3020012  -0.1427893
   1.0362573   1.3182192   0.5316394   0.1442706  -0.2787034   0.1063453
  -0.1824171   0.7792526  -0.3594245  -0.0842963   0.0060289  -0.2364966
   0.3787005  -0.8824118   1.2887689  -0.2924090   0.0291576   0.1786659
  -0.0076728  -0.2194066  -0.0456771  -0.0528809   0.0895274  -0.2024001
  -1.8015486  -0.3239171   0.3519752  -0.6041616   0.1832001   0.0343469
   0.8776892   0.0487785  -0.0388445   0.1757977  -0.1594685  -0.0397202
   0.2508781  -0.6880112  -0.4061619  -0.4503835   0.7592349  -0.6174978
  -0.1767201  -0.1572741  -0.1178540   0.9460467   0.5067258  -1.1061126
  -0.1192108   0.6093740   0.6772610   0.0216271  -0.1354740   0.3845369
  -0.1931010  -0.1119043   0.2567223   0.9385909   0.8572075   1.2394311
   0.4197190  -0.1619654  -0.1104083  -1.1259200  -0.3214290  -0.7681251
  -0.0905252  -0.0319703   0.0648638  -0.1479562   0.3598349  -0.0715507
   0.4779015  -0.9306420  -1.4177178   0.3802336  -0.2277733   1.3488899
   0.3657278  -0.2079431   0.2462703  -0.0345205   1.0484630  -0.3679906
  -0.4051990  -0.1822091  -0.0182025  -0.1164050   0.0855526  -0.2637711
  -0.2460782   0.2102352   0.1481311  -0.1331353   0.3275001  -0.0333026
  -0.5182862   0.7248060  -0.1141359   0.0832199  -0.0394934   0.3978120
  -0.8299971  -0.4435971  -0.9239135  -0.1585189   0.3558710   0.3131365
  -0.9738300   1.4099739  -0.7013674   0.5230446  -0.1621877  -0.4311189
   0.2111041  -0.1953938  -0.1611352   0.1871670  -0.4480873   0.9320300
   0.0950910   0.2413827   0.0621088  -0.1741578  -0.4233448   0.0881253
   0.2390522   0.4321887   0.2091978   0.6343588  -0.2536197   0.9803327
   0.0899730   0.1416645   0.4844715  -1.8403533   0.6909590  -1.1301692
  -0.1017399  -0.9105670   0.9433865  -1.9834743  -1.0790255   1.4940367
  -0.0535659  -0.1419990   0.1111031   0.1735068   0.0256813   0.2375508
  -0.1564888   0.0122247   0.0563414  -0.9284719  -0.0777719   0.7637322
   0.1776729   0.1451725   0.2347565   0.2998080   0.0693723  -0.4360007
  -0.3282994  -0.2129042  -0.0359672   2.0749962  -1.6522405  -0.6397091
  -0.3235426  -0.0594054  -0.7720543  -0.0504625  -0.1620731  -0.0363650
  -0.0311677   1.0495894  -0.1384614  -0.4862757  -1.0557755   0.3200670
  -0.0459644  -0.0652323  -0.1500520   0.8292506  -0.5690629  -1.2528875
   1.0975964  -0.9616506  -0.4867151  -0.0841454   0.1855564   0.0023296
   0.2089650  -0.8960326   0.6030178  -0.1671434   0.2199813  -0.0300485
  -0.1607515  -0.1584543  -0.0527613   0.4327769  -0.7598816  -0.3504955
   0.1031145   0.7271152  -1.4491821   0.1507640  -0.2696738  -0.2064916
  -0.3525131  -0.3020265  -0.4972136   0.5220457  -1.3377660   0.1777819
   0.3458394  -0.2392727  -0.1571226  -0.1105255  -0.2192953  -0.1801034
  -0.3263448   0.0295805   0.2646729  -0.3840717  -0.0961082  -1.1353401
   0.0949167  -0.1572820   0.1486494  -0.2605372  -0.2483077  -0.1620635
  -0.9854166   1.0778487  -1.4669584  -0.0871756   0.1393115  -0.4004842
  -0.4865909  -0.0338636  -0.1648930   0.0252657   0.0893863   0.3031490
  -0.3423453   0.7178520  -0.4111175   0.0990140   0.5051744   0.3895719
   0.7893178   0.3603638  -0.6039655   0.0059720   0.1481001   0.0015303
  -0.4402396  -0.1732067  -0.0670314  -0.7418405  -0.3047028  -0.3070055
  -0.0211540   0.0787922  -0.3289534   0.1000562  -0.6238078  -0.2975104
   1.2861999   0.7296698  -0.6580593  -0.1665065   0.4080252   0.1929094
   0.0859034   0.3415392   0.0240025   0.2343843  -0.1513300   0.1222504
   0.2949992  -0.5779507   0.1875967   0.1238491   0.0835590   0.0821584
  -0.1103640   0.4100362  -0.2799316   0.1435895  -0.4114476   0.6303644
  -0.0600994   0.0950291   0.1106902  -0.5019325   0.7088520  -0.0342578
   0.0122947  -0.0250901   0.2239483  -0.9626573   0.8120301  -0.3676785
  -0.1581527  -0.6201071  -0.7725895   0.5200682   0.6432310  -0.2794185
   0.0467414   0.0645255   0.0535684  -0.1653000   0.1025329  -0.1806194
  -0.2171297  -0.2215269  -0.1699213   1.6133425   1.1463766  -0.1922271
   0.1315170  -0.1125891  -0.0149046  -0.5083246   1.2958824   0.1880507
  -0.0217470   0.2309845   0.3173391   0.7552062  -0.8377008   1.3804907
   0.4666997   0.2981267  -0.2162573   0.0645948   0.0546674  -0.0083901
   0.0913341   1.0798283   0.5849542  -0.3100959  -0.4722270  -0.1350386
   0.3363124  -0.0676453   0.2037977  -0.0763678   0.5044211  -1.2204433
   0.8922708  -1.0831942   1.0635637   0.0810307   0.1494214  -0.1470521
  -0.9696341   1.1338466  -0.4741976   0.0696181   0.2065006  -0.3018562
  -0.0001858  -0.4763158  -0.2600985   0.0240004   0.4144026  -0.1532608
  -0.6131173  -0.9652693  -0.4562803   0.0112115   0.1629688  -0.4197108
  -0.1460966  -1.4353134   0.4740285   0.0896637   0.3273973  -0.2101489
  -0.3708455  -0.2150428   0.2056104   0.1047106   0.0182925   0.1861203
   0.2679966   0.1597798  -0.0439449  -1.1507855  -0.9171390   1.6970115
  -0.1320775  -0.1576308  -0.0022616  -0.2456387   0.9479982   0.6022967
   0.3758612   0.0459765   0.2951942  -0.8335329   0.7177972  -0.1374643
   0.0910638   0.0879339   0.3511792  -0.1046799   0.0546873   0.6002214
  -1.2761634  -0.2401477   0.0989290  -0.8051675  -0.8779671  -1.0462711
  -0.2449092  -0.1019123  -0.0478363   0.2467043  -0.3179898   0.0278460
   0.3216134  -0.2058382   0.1327919  -0.2886052  -0.1754565   0.2000091
   0.2977633   0.0417280  -0.1180326  -0.2416689   0.5620573  -1.3867400
  -0.4574334   0.1910482   0.0815231  -0.9842137  -0.4661489   0.4043095
  -0.0249450   0.4105274   0.1825970   0.2260198   0.2178803  -0.0444453
   0.0213241  -0.1031622  -0.1173705  -0.4840512  -1.1498465   0.0799981
   0.2826723  -0.1973206   0.3374574  -0.7926010  -0.8434292  -0.0208786
   0.1350802   0.2773764   0.1715663   0.5070105   0.0216092   0.5268065
   0.2544720   0.4538385   0.1094212  -0.0761803  -0.1322018  -0.2384256
   0.1765541   0.0700046   0.0845324  -0.3211940   0.1222542   1.2680510
  -0.0702878  -0.6773086  -0.1056507   0.0430897  -0.0547570   0.0523344
  -0.3906581  -0.1436457  -0.0350758  -1.1698208   0.6076497   0.3625188
   1.8257355  -0.2827594  -0.5199049   0.2504490  -0.0647311  -0.5001418
   0.2411786   0.1801687  -0.1883635  -0.6894173   0.8183884  -0.8762397
   0.1257904  -0.0753212  -0.3983316  -0.5859462   0.1911850   0.5253665
  -0.0137605   0.3958825   0.1221397   1.1250329  -0.6109457   0.1611452
   0.1395024   0.1499086   0.1556323  -1.0179427  -0.0809358  -0.1788722
   0.1614807  -0.0396179  -0.1836773  -0.3070007  -0.5692145  -0.3934848
   0.3741621  -0.1168725  -0.1548551  -0.2857588  -0.1632688  -0.0366037
  -0.2315173   0.1889459  -0.0402403   0.1304321  -0.3401520   1.8278504
  -0.1369124  -0.0992870   0.0011537  -0.3531754   0.3717949  -0.3597327
  -0.2063818   0.2118837   0.0085317   0.0696985  -0.0538268   1.1082194
   0.0759805  -0.0374842   0.1219801  -1.1073121   0.8984129  -0.4087768
   1.2403131   0.1550722   0.9939178  -0.0109520   1.3470953  -0.4339019
   0.0080581  -0.2190340  -0.1164189  -0.4954087   0.8234397  -0.0253143
   0.1753983   0.7605804   1.2581823  -1.2203715  -1.0172135  -0.3526705
  -0.1392499   0.3790083  -0.2414367   0.1834709   0.0658373  -0.0458143
   0.1068006  -0.1860001   0.0939276  -0.9774504   0.7813905   0.5340040
   0.0097868  -0.1676751   0.3919896  -0.7958422  -0.7491962   0.5931869
   0.1214871  -0.0565927   0.0315767   0.8455884   0.2862787  -0.6393585
  -0.6535157  -0.5875030   0.3532771  -0.2518481   0.3247633   0.1911542
   0.2697355  -0.0136196  -0.3197289  -0.4962459  -0.1767309  -0.3106626
  -0.3139668  -0.0752457   0.3539921   0.1799051  -0.0162984  -0.0468465
   0.1557755   0.4426143  -0.1158378  -1.8236260  -0.0935777   0.7235080
   0.2078907   0.1067430  -0.6163793  -0.1520817  -1.5238701   0.1930130
   0.2616239  -0.1672763   0.1550402  -0.8279787   1.5008951  -0.6476438
   0.5393783   0.6513618  -1.0738418   0.0830986   0.2070278   0.1814843
   0.3160292  -1.0960235   0.0223155  -0.0285216   0.1187686  -0.0852793
  -0.2016177  -0.0224585  -0.9310168   1.3534573  -0.6531988   1.4330601
   0.5611190  -0.9805038   0.2668035  -0.1644886   0.2353152   0.0821293
  -0.7985238  -0.4119305  -0.7657541   0.8513364   0.4708047   0.1602388
  -0.7388448  -0.1985927  -0.5817578  -0.0579238   0.5597149  -0.2729632
  -0.1466244  -0.2523493   0.0878666   0.0150665  -0.3937519  -0.1152389
  -0.1153996   0.8302454   0.4713522   0.1664413   0.0707030   0.1262382
  -0.8047786   0.1736396  -0.0282020   0.2510505   0.0951761   0.1264773
  -0.1932542   1.3786854  -0.0325042  -0.2668436  -0.5542791   0.9721161
   0.0581425   0.1900544   0.3164635  -0.3364516   0.1584463   0.0657846
  -1.3166686  -0.4039609  -0.5551557  -0.1310009  -0.1880985   0.2281079
  -0.1577407   0.0222365  -0.0960438   0.4388840  -1.4439633  -1.2355219
   1.1923132  -0.3782155   0.6468549   0.2664683  -0.3115012   0.9670684
  -0.0721991  -0.0344184  -0.2066633  -0.0419724   0.0249271   0.0297521
   0.0170180  -0.1172722  -0.0499718  -0.9705370  -1.0224852  -1.3593305
   0.3670987  -0.0839430   0.1246989   0.4677033  -0.2142260  -0.2954978
   0.0298024  -0.3235942   0.1477208  -0.9506228  -0.1946843  -0.8034951
   0.2276455   1.8366469  -0.1840167  -0.1242444   0.2514163   0.4916557
   1.7793015  -0.5209898  -0.0635509  -2.3555151  -0.0080608   0.2143953
  -0.3569132   0.1733165  -0.1532968   0.6702824  -0.7416721   1.6770712
  -0.4161523  -0.0990942  -0.1419237   0.1846000   0.1594404  -0.2184767
   0.7217464   0.5459818   0.5596350  -0.2119275   0.1280438  -0.2565900
  -0.1107196   0.3106237  -0.1007295   0.0528793   0.2915637  -1.0077394
   0.6131604   0.0343485  -0.2696880  -0.0913629   0.1014464  -0.0724441
  -0.6134233   1.0095534  -0.8702892  -0.6952073  -0.6383973  -0.6881423
  -0.1004005  -0.2391959   0.0315631  -0.2272877  -0.1284846  -0.2532698
  -0.0941425   0.1844114   0.1545051   0.5754334  -1.1492580  -0.3179821
  -0.1226258   0.0043825   0.2129517   0.2279106  -0.1111295   0.9516826
   0.0771762  -0.0299585   0.2356449   0.0971182   0.6088121  -0.4657976
  -0.7210868  -0.7018189  -0.6190821  -0.2260782  -0.0806986   0.3271277
  -0.2450147  -1.2410124   0.0300975   0.0083380  -0.0073128  -0.6139858
  -0.1391673   0.0423523   0.0608385  -0.4487981   0.7187744   0.7273678
   0.6416646  -1.0452684   1.0573604   0.2802735  -0.0930812   0.0542214
  -0.4293426   0.1539668   0.4009504   0.3351058   0.1155512  -0.4842142
   0.0542486  -0.4051140  -0.1950741   0.8516418   0.1828892  -0.2094886
  -0.8687800  -1.3479095  -0.3252227  -0.1518282  -0.1583674   0.2465315
   0.6915074   0.6425091  -0.1538237  -1.1732879  -0.0023859   0.4856308
   0.0442938  -0.0270085  -0.0320828  -0.2393915  -0.1650276  -0.1255877
  -0.1786091  -0.4193103  -0.1989060  -0.5766662  -0.4687627   0.6800383
   0.0922350  -0.2611344  -0.0619161  -0.3089215   0.7742082   0.2012049
   1.2356867   0.3007523  -0.3336003   0.1657693  -0.4252227   0.4377591
  -0.3043694   0.4892081  -0.2498341   0.2044108  -0.1090454   0.0833328
   1.1185854   0.8321096  -0.9193991   0.2359333   0.0908872   0.1275958
  -0.8627924   0.2492862  -0.2058790  -0.0456740  -0.1968363   0.1276381
  -0.4672834   0.0885223   0.6743015  -0.0313427  -0.3248663   0.2457188
  -0.1595244   0.3965227  -0.1641397  -0.1074528  -0.1688807  -0.1158918
   0.1053555   0.0940928  -0.1354241   0.0283826   0.0642696  -0.6119766
  -0.0323207  -0.0870127   0.0322777  -0.1082909   0.3082902   0.2312560
   0.9166801  -0.0304072  -0.5639710   0.0953496   0.3255960   0.4965287
   0.3735426  -0.1120551  -0.5676716   0.1838594  -0.0469730  -0.1543335
   0.6947971  -0.8272547  -0.0361474  -0.2583904  -1.4719040  -1.8660659
   0.3013699  -0.0376223  -0.0276628   0.8231908  -1.3240544  -1.5286093
  -0.1634983  -0.2727209  -0.4079197   0.0446639  -1.0165589  -0.0673231
   0.2731231   0.2892624   0.6435600  -0.2437555  -1.2814907  -0.1307077
  -0.3041452  -0.2408311   0.1468199   0.3444907   0.0258644  -0.2896378
  -1.0565851   0.2615084  -0.1319919  -1.0707026  -0.8160357  -0.4766839
  -0.2400588   0.0250340  -0.1508694   0.0070393   0.1228101  -0.3970869
  -0.0998265   0.1319363   0.3748714   0.1602433   0.0446377  -0.3564562
   0.7001626  -0.9297556  -0.8944541  -0.3411214   0.0604879   0.2913615
   0.4065174   0.4002587   0.2136214   0.7127771   1.0049104  -0.3514338
  -0.3322790   1.0508673  -0.3494811   0.1956771  -0.4018503   0.0971087
  -0.3362115  -0.2800079   0.3615280   0.5836426  -1.2333603  -0.1778378
   0.0545824  -0.2248174  -0.0762043   1.3164642  -0.5958343   0.0038293
   0.0655913   0.0172484   0.3054960   0.3477629   0.0793191   0.3177530
  -0.1113343   0.1783016  -0.1085691   0.3134230  -1.2366537   1.2693134
   0.3008661   0.2426909  -0.1073125  -1.4648641  -0.2419269   0.4236771
   0.1348888   0.0413413  -0.4432123  -1.4069184  -0.6972321  -0.0383072
   0.3379539  -0.1260760   0.3635088   0.9868876   0.3388077   0.1281617
  -0.1429988  -0.5468251   0.4972715  -0.9689122  -1.1241672   0.4962154
   0.1313045   0.0557097   0.2590984  -0.5080286  -0.1317754   0.7123413
   0.9752714  -0.4085010  -0.2308178   0.1286485  -0.7067223  -0.2517826
   0.0577274   0.1993884  -0.2411627   0.0804794  -0.3369802  -0.0320957
  -0.0701975   0.0943657   0.1627855   1.3263340  -0.5167678   1.2079235
  -0.3451185  -0.2986364  -0.5098496  -1.2284390   1.0034612   0.0476904
  -0.1447681  -0.1141208  -0.3413655  -0.3491874   0.2761846  -0.1223202
   1.7196261   1.0527488   0.8696658   0.2177363  -0.0197599  -0.2456087
   0.5200569   0.4743949  -0.0272477   0.2790633  -0.4782641  -1.0719837
  -0.2809310   0.1133365   0.0174790   0.1441776  -1.2597895   0.6016603
   0.3200447  -0.0434248   0.2775599   0.0717797  -0.1884139  -0.0408634
  -0.4683551   0.0167468  -0.1207159   0.2284102   0.3323733  -0.0097576
   0.8077081   0.1571682  -0.5974443  -0.2162325  -0.0603897  -0.6224689
   0.2770097  -0.0985289   0.0282260  -0.3096917  -0.0147321  -0.0854529
   0.4324581   0.4916507   0.7398369  -0.0923690   0.2971581   0.0822912
   0.1526115   0.1028806  -0.3347892   0.0630197  -0.1988886   0.2730449
  -0.0045267  -0.0195616   0.3529908   0.3242054   0.5462150  -1.3877815
  -0.2359265  -0.3133672   0.1216736  -1.0953134   0.7388474  -2.4350410
  -0.2351677  -0.2051279   0.1103262   0.8156580   1.3903129  -0.7059986
   0.4436589   0.0747993  -2.1534288  -0.0036895  -0.3284031   0.4121785
  -0.6429101   0.1432887  -0.9344445   0.1120014   0.3974410  -0.2513040
  -0.8300967   0.3828423  -0.7880173  -0.2532478   0.1384923  -0.3110676
   0.5144316  -0.4535292  -0.6425119  -0.3678095   0.1796020   0.1364345
  -0.3443316  -1.0906775   0.4402054  -0.1200064   0.1557743   0.3305425
  -0.1406004   0.3039224   0.1306237  -0.1859079  -0.1240288  -0.0694126
  -0.0643887  -0.1711841  -0.2244361  -0.1060371   0.4299434  -0.0568587
  -1.2026205   0.1308205  -0.4211533  -0.1882488  -0.3317197   0.0400913
  -0.5743295   0.2631983  -1.2226635   0.2602025   0.3861524  -0.2419724
  -0.5915439   0.0178292   0.1405892  -0.4541725  -0.2197138   0.1276790
   0.5473721   0.9175401  -0.1962203   0.1061047  -0.1382639   0.0137375
   0.2339655  -0.0181166  -0.1233813   0.1472077  -0.1046753   0.0821395
   0.2108589  -1.0778857  -0.9387238  -0.1923775   0.2923911   0.0825923
  -1.0067172  -0.1141910   0.6720380  -0.1307400  -0.1123831  -0.2701425
   1.0481366   0.0153195   0.1877924   1.4848874  -0.4778025  -0.3743270
  -0.1420309  -0.1446490  -0.2324706   0.3626364  -0.3705344  -0.2191336
   0.3735060   0.2012419  -0.9457056   0.0982346  -0.0166459  -0.1846515
  -0.2715450   0.0958541  -0.1465035   0.1389191  -0.0139905   0.1216660
  -0.2745598   0.2058917   0.1795273  -0.8126963  -0.7145765  -0.3548281
   0.0872443  -0.1050621  -0.1515724  -0.1857009  -0.9682599   1.2864204
  -0.3658807  -0.1787255   0.1128461  -2.5370970   0.7439222  -0.3147262
   0.3819079  -0.4623508  -0.0828813   0.1720738  -0.0529914   0.3160907
  -0.3628341   0.1410185  -0.1226119   1.0383769  -0.3095143   0.7987311
   0.0030581   0.4210852  -0.2201612  -0.8750790  -0.2563723   0.6439448
   0.0203659  -0.0010516   0.2004928   0.9682151   0.9670231  -1.2560619
   0.5159216   1.6818562  -0.6204009  -0.0496366  -0.4794525  -0.5529043
  -0.2722667  -0.2579924   0.8011662  -0.1220968  -1.2298031  -0.9043592
  -0.3775435  -0.3593672  -0.2234635  -0.7019861   0.2452017  -1.0513830
   0.9009321  -0.3810102   0.2234004   0.0088260   0.0599699   0.0572750
  -0.8997396  -0.4150168  -0.5121919   0.0746002   0.3461614  -0.1085603
   0.0507230   0.0389356   0.1634716  -0.3739393  -0.0675024   0.4580186
  -0.1865048   0.0241696  -0.7296624   0.3097988   0.1046445  -0.1451379
   0.4755330  -0.3514780   1.3744246   0.5510479  -0.7829172   0.2511133
   0.2645949  -0.3006083  -0.4822639   0.0514872   0.2866227   0.0237753
   0.5137666   0.1898087  -0.1588574  -0.2073664  -1.4839347   1.3152731
   0.3609467   0.3380991  -0.2301519   0.6983030  -0.0530646   0.2579411
   0.0292289  -0.2494256  -0.3353071  -0.4023345  -1.1686168  -0.8038643
   0.3641775   0.0786670  -0.2730127   1.5969493   0.3094997  -0.3924463
   0.1069826   1.5082411   0.4716886  -0.4871541  -0.7562783  -0.6794994
   0.3208129  -0.0415115  -0.0441340  -0.4536735  -0.4152291   0.5296596
   0.3462580   0.9732618  -1.0367331   0.2328896   1.4359763   0.8576902
   0.0486912  -0.0369184   0.1935229   0.0499633  -0.0723009  -0.1699700
  -0.1538945  -0.0632922  -0.3104191  -0.4093870  -0.1390729   0.1023281
   0.0337320  -0.0554202   0.0324186   0.1145804  -0.5323505  -0.0896440
   0.0087082  -0.3925848   0.6260001   0.6541396  -0.4121573   0.6080496
  -0.2844854  -0.6227138   0.8750708   0.6056062   0.3939546   1.0751602
  -0.1368653   0.1435284  -0.1081968  -0.2150668  -0.0028469  -0.1220662
  -0.0722078  -0.4115828  -0.3190181  -0.8300456  -0.0456932  -0.3289453
  -0.2787070  -0.1278236   0.0677501  -0.7640306   0.9975997  -0.0576794
  -0.0460967   0.2264514   0.1026507  -1.9630913   0.2984158  -0.5778147
  -1.7333355  -0.1705004  -0.5494610   1.3130604  -0.0937260  -0.2095411
  -0.3819267   0.1058149   0.0608255  -0.1845947  -0.3055518   0.0019997
  -0.1063569  -0.1472964   0.0429786  -0.0399445  -0.9575706  -1.2681954
  -0.0483254   0.5611151  -0.0256149   0.8823362  -1.2238413  -0.6012287
   0.0471928   0.2392898   0.0368475   0.3128992   0.1380888  -0.2299120
   1.1579719  -1.2881959   0.5580092   0.2693382   0.6358097  -0.4344948
   0.5990942   0.3565467  -0.4122613   1.4176193   0.4022605   1.5532443
   0.3130292   0.2493729   0.0992662   0.1252420  -0.1483888   0.0281088
  -0.1982754   0.0278267  -0.1514101   0.0346561  -0.3526435   0.4490857
  -0.1787294   0.0293431   0.3024217  -0.2322565  -0.2831328  -0.0308144
   0.2644249   0.7935472   0.7193565   0.2432590  -0.1140561   0.3268400
  -0.1129017  -1.4000445   0.6231214   1.0531108   1.2515403  -0.2297643
   0.0968984   0.0031782   0.0373263  -0.1013897   0.1054441  -0.1344112
   0.0607493  -0.0099715   0.1242155   0.9771403   1.1996154   0.8102177
   0.3543181  -0.1285001  -0.1269896  -1.2587290  -1.2435553  -0.1304645
   0.0573844  -0.1692708  -0.0326725   1.1030994   0.3617002   1.0958287
   0.0716250  -0.3457287  -0.0730174   0.1732499   0.3187032   0.6676518
   1.2309502  -0.1475082  -0.0165518  -0.2344177   0.4633099   0.1543977
  -0.4275362   0.3253598  -0.4541418  -0.0713446  -0.5046434   0.6159525
   1.1511088   1.4191534   0.1057955  -0.0705373   0.0257564   0.2684849
   0.7086319  -0.6347100   1.2115432   0.8671773   0.1464806  -1.1280607
  -1.4905877  -0.1400663   0.1747418  -0.0500399   0.1404649  -0.2663354
   0.2655629   0.0720801  -0.1020237  -0.1288332   0.0695384  -0.3073082
   1.0462077  -1.7585163  -0.8996966  -0.2368381  -0.0793459   0.3655153
  -0.5486643   0.8691541   0.0933746   0.3436060   0.1669524  -0.0684811
   0.9377361  -1.2479877  -1.8016676  -0.9657354   1.2915173   0.4873440
   0.0603335  -0.4016301   0.2421102   0.3759239   0.0905600  -0.1641296
   0.1560383  -0.3600474  -0.0402426  -0.7762542   0.1677960  -0.9231146
   0.2740608  -0.9334928  -0.3911012  -0.2251573  -0.1355133  -0.2169127
   0.0105173  -0.0217453  -0.0383364   0.2929372   0.0294499   0.1710360
   0.7292664   1.7533884   0.0970856  -0.1330126   0.1242247  -0.0989467
   0.6391166  -1.2832168   1.1369568  -0.0741408  -0.1791346   0.0147831
  -0.3669222  -1.8481832   0.3602261   0.4082616  -1.6846026   1.7139833
   0.0341521   0.1036511   0.1033776   0.3664102  -0.1040939   0.0503028
   0.0571854   1.6259626  -0.0637825   0.3923546   0.3636284  -0.2972486
   0.1028176  -0.7453502   1.0288675  -0.2611128  -0.0544222   0.2492717
   0.1786189   0.0498210   0.0303611   0.1414191  -0.9209785  -1.0260577
  -0.1443509   0.3045140   0.2270839   0.3027713  -1.7063258   0.5411388
   0.1112036  -0.0877729   0.0947054   0.2449656   0.0013496  -0.0074583
   0.3235482  -0.0765705  -0.0374865   0.0693266   0.2559652  -0.0255056
   0.2230753   0.1626252   0.2736263   0.4160320  -0.6751503  -1.6576601
   0.2126317  -0.0352785  -0.2133773  -0.8529026  -0.2567639   1.6419987
  -0.4661702  -0.5163072  -0.2297536  -0.1695267  -0.2242317  -0.0499126
   0.1473457  -0.7025139  -0.8364763  -0.7876279   0.4145466   0.0085757
  -0.1948139  -0.0484243   0.1476720   0.1140097   0.0296717   0.0172197
   0.3964066  -0.0034520  -0.0183336  -0.0977714  -0.1897876   0.1644942
   0.2128789   0.0947520   0.1989821  -0.3640909   0.0279424  -0.3945334
   0.2264183   0.1503799   0.1606546  -0.4976394  -0.0223875   0.6482769
  -0.1188845  -0.4646144  -0.0285856  -0.4511626  -0.1050175  -0.4256555
   0.1615601  -0.0110576   0.0592610   0.3016468   0.1509741  -0.0008269
   0.0890127   0.0103325   0.4940162  -0.1643120   0.2213478  -0.0850921
   0.7411486   0.0727736  -0.0016372   0.3417696   0.0832641   0.3959963
  -0.1165896   0.2172418  -0.2200838  -0.4148365   0.4432878  -0.4615416
   0.2756893   0.0533520   0.4506252  -0.6285896   0.5668303  -0.7662020
  -0.5616764  -0.5497574   0.8315044  -0.2007176   0.1822720  -0.3114168
   0.2015105   0.2854798  -0.2832939   0.3617033  -0.3695242   0.0133901
  -0.0481203   0.1185097  -0.5000129  -0.6001173  -1.1155968  -0.4082949
   0.7325540   0.7646702   0.8157673  -0.0370826  -0.3421324   0.1180319
   0.2832247  -1.0601551   0.0480975   0.0515768   0.2326088   0.1224881
  -0.0277938  -0.0527215   0.1992825   0.2626103   0.3816939  -0.5204436
  -1.3322186   2.1203786   0.3946389  -0.0214087  -0.0156047  -0.1113050
  -0.6407702   1.0032312  -0.3604426   0.3320968  -1.4371930  -0.0904570
  -0.0541189   0.3068553  -0.1828841  -0.0234738  -0.0684709  -0.3899675
   0.1619151   0.0402931   0.1046618  -1.4387757  -0.4802266  -0.6145106
  -0.4639577  -0.1484703  -0.0790075   0.5489234  -0.3091639   0.1821814
   0.0137107   0.1242682  -0.2252331   1.5473540   0.9320160   0.1439391
  -0.4573202  -0.6546348  -0.8343723   0.0782206   0.0056738   0.0926324
   0.1351595   1.4573536  -0.3673035   1.2995936   0.3300806   0.1139705
   0.0595587   0.0143114  -0.0650608   0.1557952  -0.3038624   0.8442457
   0.6925429  -1.3016790   0.9650328   0.2555515   0.4711773   0.2377156
   0.5497650  -0.0861608   0.8158222   0.1027398  -0.1020347  -0.3937463
  -0.4090877  -0.5854761   0.1787602  -0.5214841  -0.6283664   0.3903039
  -1.2939958   0.8474041  -0.2609976  -0.1312077   0.0075850  -0.0119634
  -1.0275207   0.3109029   0.8562720   0.6191749  -0.0515459  -0.2371009
  -0.2345010   0.1811078  -0.1391437   0.0947187  -0.0545092  -0.3088839
   0.1615112   0.0189054  -0.2587923  -1.2876360   1.2144970  -0.7324314
   0.2333102   0.1053505   0.0218314  -0.1975639  -1.2241531  -0.1701235
  -0.1226551  -0.5686473  -0.1435498   1.2158347  -0.1348823  -0.2039423
   0.7438121   1.4496946   0.5057104  -0.0531502   0.1378258   0.2022388
  -0.2138272   0.4169058  -0.2085024   0.7371860  -1.1496743  -0.5434429
   0.1599476  -0.0879248  -0.0102930  -0.0293621   1.0859395  -0.2170868
  -0.1075506  -0.1135883   0.1452533   0.0596943   0.1311156  -0.3209020
  -1.4511296  -0.3074885   0.3521739  -0.1928865  -0.1288803   0.0659967
  -0.5226824  -0.3142361   0.4791827   0.0354223  -0.0988704  -0.1445807
   0.4969050  -0.9777773   0.3961675  -0.2608237   0.0248163   0.3680344
  -0.4202200  -0.7460535  -0.8522896   0.0050472   0.1178209  -0.0272428
  -0.2246333   0.1565140  -0.1560776   0.2242224  -0.0591869  -0.1053129
  -0.0868614   0.0361455   0.0211316  -0.3481538  -0.0245091   0.2151793
   0.2639543  -0.3463656  -0.0092955   0.5309045   0.3855901   0.0768385
   0.0604643   0.1640978  -0.0834817  -0.8014891  -0.8116855  -0.1462747
   0.2516391  -0.0162785   0.4499588  -0.0886106  -0.0107119  -0.0484544
  -0.0250994   0.0331509   1.3331960  -0.2158828  -0.3935241   0.1768024
   0.0774864   0.2146562  -0.4401048   0.1501271  -0.2232694  -0.3181169
  -0.0672756  -0.2380329  -0.3519474  -0.0205162  -0.0645615  -0.0599809
   0.7309872  -0.3035831  -0.5340308   0.0662969   0.1186501  -0.2837156
   0.2534491  -0.4942995  -0.3084702  -0.6958891   1.6360334  -0.3672023
  -0.3217419   0.0672099   0.1059641   0.1731512   0.0063662   0.0802032
  -2.0965402  -0.5101721  -0.1374249  -0.0158305  -0.2421944   0.1133635
   0.3176842   0.2341554   0.8400096   0.0040783   0.0140536   0.2364824
  -0.4869902   1.2836775  -0.1279241  -0.1620556  -0.0241750  -0.1904381
  -0.8822112   1.0473239   0.7514608  -0.0939046   0.0384153  -0.0357179
  -0.7463920  -0.2484016  -0.8412005   0.2509403  -0.2640981  -0.3056356
   0.0808945  -0.0786656  -0.3351198  -0.1648833   0.0881110  -0.0601072
   0.2590384  -0.3409878  -0.5352375  -0.0991988  -0.1056200   0.0855154
  -0.1202848   0.7557068   1.2106972  -0.4458817   0.0222818   0.0943666
   0.6257295  -0.8890460   0.2693943  -0.0481974  -1.4542637   0.2354640
  -0.0002515   0.3364115   0.1648160   0.0880362  -0.0892371   0.2000802
  -0.1810482  -0.2882177  -0.0782867   0.0522319  -0.0885903  -0.0878248
  -0.0813505  -0.0522253  -0.2225200   0.0537396  -0.1591865   0.1756722
  -0.4689425   0.4765368  -0.6393623   0.4088634   0.3428118  -0.0329419
  -0.1851962  -0.6730310  -0.5104438   0.5723052   1.5639199  -0.6606300
   0.0416248   0.1554620  -0.0593396  -0.1181054  -0.1261455  -0.1861434
  -0.1692570   0.2629289  -0.1211418   1.0363907   0.0993530   0.3062407
  -0.1940232  -0.1223827   0.4364614  -0.6957799  -0.0903371  -0.5532480
   0.0574729   0.1149945   0.1541905  -0.8242667   0.7368607  -0.1440815
  -0.3351423  -0.3649249  -0.2239177  -0.1559362   0.4987699  -0.6532592
  -1.1344594  -1.0648921   1.3187410   1.5428492  -0.5370368  -0.4686939
  -0.3626068   0.0483193  -0.5601843   0.9815517   0.7924518  -0.7097833
   2.0257944  -0.1829780  -0.0485947  -0.3976714  -0.7291867   1.1950124
  -0.4127216   0.0549303   0.1155692   0.1296930  -0.0884788   0.0351455
  -0.1729011  -0.0413768  -0.2441131  -0.7483322   0.0611131  -0.0132345
  -0.3100586  -0.0183849   0.2675113   0.5578769   0.2947928   0.6861833
   0.1411460  -0.1746633  -0.3186031  -0.9293135   0.5220040  -0.1851017
  -0.4926625  -1.2633688   0.5307407   0.1865468   0.3058089  -0.0284566
  -1.0068789  -1.0653515   0.1896893  -0.0344451   1.5271066  -0.8428110
   0.0463548   0.6299771  -0.0802421  -0.0604183  -0.3009767  -0.0226858
   0.4925689   0.2684176  -0.4572165  -0.0617822  -0.1772597  -0.2356490
   0.4279032  -0.6354531  -1.2552231   0.9454479  -0.4109601   2.0150015
  -0.0795918  -0.0635374   0.2740521   0.1589996  -1.0685727   0.0799783
   0.2043611  -0.4621865   0.9565607  -0.8654693   0.0228987  -0.7229954
   0.0768804   0.0682684  -0.2139395  -0.1080762   0.0164012   0.1955637
  -0.0232725   0.2444256  -0.3925582   0.5562312   0.6926668   0.4540862
  -0.0346736  -0.0252874  -0.0594921   0.3296196   0.3775299  -0.6986577
   0.1384873  -0.5501000   0.0082031  -0.7942206  -0.1033231   0.2693575
   0.6392224  -1.6254036   0.3389736  -0.1450071  -0.0064883  -0.1918542
   0.1708328  -0.0402263   0.3298175  -0.0657194  -0.0740340  -0.0090789
   0.0980708   0.0371246  -0.7181621  -0.3389990   0.4185831   0.4176695
   0.0217028  -0.0348540   0.1602666  -0.0395186   0.1413195  -0.0346502
  -0.0750164   0.1274809   0.3731568   0.2733607   0.1470193   0.7663414
  -0.0035872  -0.2686267   0.2760823  -0.0111983  -0.0675276   0.3994841
   0.4716478  -0.2897537   0.1833033   0.7085346  -0.4869438  -0.3873422
   1.3310442   1.0532501  -1.2073602   0.1880866   0.0823518   0.0089155
  -0.3619717   0.1538724  -0.2020395  -0.2663165   0.2048805  -0.1595382
   0.1204831   1.1775535   0.1246923   0.3906258  -1.5845651   0.0642719
  -0.0640867  -0.0488030  -0.1159753   0.1236916  -0.1085019   0.4123332
  -0.0262413   0.1566571   0.1004237   0.5905685  -0.5478303  -0.9725714
  -0.2006420   0.1391355  -0.0836972   0.1482805  -0.4463041   0.2088559
  -0.0624157  -0.1974931  -0.3690834   0.1956086   0.3862059   0.8233687
  -0.0053952  -0.8144254  -0.6769797  -0.1605102   0.1852992  -0.1704880
  -0.9081127   1.8381000   0.1454279   1.7343447  -0.9734561  -0.4603205
  -0.3703594  -0.1667893   0.1978057  -0.1069813  -0.0083858   0.1309140
  -0.1334755   0.2627437  -0.1961601  -1.4901241  -0.3674849  -0.7539722
  -1.2384408  -0.2638319   0.3401261  -0.2979347  -0.1765676   0.4950883
  -0.1457165  -0.1000779  -0.0657445  -0.1774439  -0.1394080  -0.0094199
   0.1565866   0.7045987   0.1473230  -0.0425236  -0.2298260  -0.0708048
   1.4964693  -0.1523793   1.3855855   0.1077568  -0.0124947  -0.0427785
   0.1488859  -0.4350643   0.8260876  -0.1267331  -0.1885942   0.0497198
   0.7358228  -0.2510801  -0.5991051   0.9843007  -0.4454054   0.5168968
   0.5264616   0.0309269   1.0639486   0.1894624   0.4068153  -0.3166913
   1.3883931   0.2390142  -0.8106141   0.5054970   0.4929635   0.8944376
   0.1800213   0.0589526   0.0496418  -0.2944588   0.9848117  -0.4707633
  -0.8449221  -0.3945508  -0.1880376  -1.0830586  -0.7011990  -0.5999720
   0.0901315   0.2021279  -0.3792462  -0.1860268   0.1172250  -0.2081250
  -0.2220407   0.1566523   0.0415007   0.1059527   0.7808584   0.2502474
   0.0077003  -0.1036046   0.4044716   0.4713015  -0.4180887  -0.0666531
  -0.1352358  -0.1877482   0.1829458  -0.1736923  -0.5567394   0.6208181
  -1.3863850  -1.0326894  -0.0856669  -0.1508029   0.1585861  -0.1556024
   0.2598593   0.7288805  -0.3389234   0.3375216  -0.3190618  -0.3182387
  -0.8651904   2.2971732  -0.4744315   0.2153551  -1.3139436   0.3823028
  -0.0806751   0.7212916   0.4924746  -0.0848662   0.2557293  -0.1300116
   0.3191448   0.5068265   1.4546956   0.7494237   1.1734947   0.2010423
   0.6157274   0.2296316   0.3609468  -0.1304669   0.1676025  -0.2014703
   0.1192674   0.0404947   0.2800309   0.2295086  -0.6159233  -0.1880282
   0.2531496   0.5865714  -0.2077058  -0.0290557  -0.1253595   0.0919151
   0.2673284   1.4040766   0.2175890   0.0210162   0.1724339  -0.5012449
  -0.4841877  -0.0971509   0.8559122  -0.0551845   0.9688577  -0.3121551
   0.0699478   0.1818261  -0.0396658  -0.1530816   0.1377430   1.4811563
  -0.6405234   0.4074361   0.0182947  -0.4228507  -0.4915274   0.2567750
  -0.0976609  -0.0032696  -0.0572887  -0.0562485  -0.1260868  -0.1579318
   0.0867163   0.0357595   0.0450861   0.0865444  -0.1427264   0.0966621
  -0.2179858  -0.0081091   0.5958415  -0.1468963  -1.5169692  -0.9708435
  -0.0654989  -0.2208760   0.3750993   0.3929742   0.0461976  -0.8252606
   0.1416645   0.1724708   0.1687915  -0.0296647  -0.5940427  -0.0942268
  -1.3748376  -0.8068423  -0.7315312   0.3278555  -0.3027294   0.3144169
  -0.8934801   0.7989167  -0.0682248   0.0523736   0.5237717   1.3388392
  -0.1757894   0.1695371  -0.1446822  -0.3874769  -0.0980958   0.0745474
  -0.0807983   0.0309650   0.2987883  -0.2088480  -0.0861317   0.1465942
  -0.0901366  -0.2581181   0.0318108  -0.0714316  -0.2214160  -0.2663934
   0.0211890  -0.2036043  -0.6926469   0.1479697   0.1009524   0.0115549
   0.1952601  -2.1077722   0.4991032  -0.1369774  -0.0099374  -0.2349136
  -0.3270196   0.6377627  -0.2054834   1.0623646   0.9035500  -1.2079743
   0.1872978  -0.1792538   0.3040196  -0.0636214   0.3382105  -0.2878243
   0.2607779  -0.1595149   0.0533905   0.6251360   0.0007723   0.2907148
   0.7531522   0.8146105   0.0041984  -0.4318376   0.2186039   0.1153786
  -0.0977914  -0.1136483   0.1752898  -0.1982714   0.3716482   0.0728497
  -0.9532426   0.3551986  -0.2257736   0.0841816   0.2151726   0.0792243
   0.8668921   0.4758759  -2.1042793  -0.0444194  -0.0394998  -0.0862134
  -0.6073318   1.2066948  -0.2992906   0.2182827  -0.1376750   0.1199102
  -0.0832788   0.8942826  -0.5375497   1.6152063  -0.0881184   0.4632129
   0.6594398  -0.2315392  -0.3792822   0.6058011   0.3120959  -0.2441042
  -0.5931040  -0.2609455  -1.1865152  -2.8467838   0.4222250   0.3298849
  -0.4192968  -0.4197771   0.2145061  -0.1390869  -0.2122210   0.2183457
   0.1019686   0.0548841   0.1122594   0.1289810  -0.1998157   0.2873165
   0.5777882   0.8556976   0.6534960   0.2938626   0.2219301  -0.0772326
  -0.1460116  -0.5202223   0.0469190  -0.2120073  -0.1472598   0.2687495
   0.6593076   0.1630082  -1.2961369   0.3745922  -0.7789401   0.5539838
   0.0274524   0.2625354   0.0395579   0.3074503   1.3978887   0.5235479
   0.5402272  -0.7594488   0.5584840  -0.2595526  -0.4488890   0.4200233
  -0.0496729  -0.4288643   0.2084453   0.2747355  -0.1727397  -0.2744560
  -0.3351695  -0.0660419   0.3143234  -0.1126981  -0.1494198   0.1080203
   0.5457576  -0.1375955  -0.0067494   0.0394580   0.2697035   0.2961267
  -0.1489823  -0.1662119   0.1064071  -0.0001456   0.2060852  -0.8901349
   0.0034764  -0.1344383  -0.2004199  -0.8938538  -0.5235021  -0.2082488
   0.0537982   0.0507075   0.0112837   0.7191258  -0.3430600   0.7144514
   0.0457783   0.4529091   0.3057328  -0.5410411  -0.5337696  -0.3072243
   0.1037132   0.3380833   0.4261348  -1.1061361  -0.8011420  -0.5505825
   0.0291074  -1.1036251  -0.3477627  -0.1326657  -1.2608642  -0.8115454
  -0.1983410   0.0599302   0.1945496  -0.1624904  -0.0331345   0.0519339
   0.4223359   0.0932925   0.0648239  -0.0009899  -0.1119412  -0.7868800
  -0.0762976  -0.0198088   0.0278179   0.6734696  -1.1794500  -0.6127055
  -0.0328037   0.1230969  -0.1914386   0.7657891  -0.3352777   1.4699020
   0.8691953  -1.1228005   0.2214440   0.1567657  -0.3978590   0.2327618
  -0.2689862   0.4260674  -0.5846614   0.3050710   0.6814894  -0.8406716
  -0.2899459   0.0378958  -0.2443642  -0.3088960  -0.2446357   0.1039146
   0.0753052  -0.2137126   0.0200024  -0.0058315  -0.2909407  -0.1566462
  -0.0747144   0.1112313  -0.0430418  -0.2151926  -0.1393421  -0.2871720
   0.2251440   1.4802625   0.6259943   0.1842800  -0.1113619   0.1109974
  -0.8898752  -1.1213905  -0.9225517  -0.2004540  -0.1681787  -0.2200324
   2.0249610  -0.9774130  -1.3804338  -0.1410326  -0.0901960  -0.2817661
   0.1976046  -0.6471265   1.0360308   0.2431909  -0.5584046  -1.0969540
   0.8788255   0.1441763  -0.2553725   0.0745679   0.1171486   0.1994352
  -0.3322836   0.2095822  -0.1731484   0.3697308  -0.0441525  -0.8097804
   0.0707710   0.4159626  -0.1169167   1.0541852   2.0407830  -1.0648139
   1.1357982  -0.1180608   1.2465164  -0.6990220   0.0740103   0.7351367
   0.3808667  -0.3795455   0.0254172  -0.3118165   0.1230688   0.1938991
  -0.0782143   0.5788795  -0.2005052   0.1287215  -0.0213048  -0.1078543
  -0.0868501   0.3643161   0.3054321  -0.5048014   0.5566413   1.5629740
   0.1809107  -0.4185558  -0.2880068   0.9299372  -0.0417080   0.6956626
  -0.9854493  -0.3351675  -0.3982272   0.1877534  -0.3961233  -0.0008731
  -0.0431086  -0.0749630  -0.4061734   0.3956973  -0.1883087   0.5951723
  -0.0902088   0.0216332  -0.0949736   0.3115153   0.3294041  -0.3542824
   0.0311510   0.1653782  -0.1538585   0.3336435  -0.2259449   0.1442038
  -0.2485893   1.0343758  -0.8861674  -0.1409509  -0.1168752  -0.1863107
   0.4355240   1.0203082   0.0509041  -0.1481375  -0.2904590  -0.0051983
   0.2737357   0.4084880   0.1177754   0.0348928  -0.2100310   0.0901240
  -1.1567424   0.6918675   1.7757630   0.1691431   0.1947192  -0.1292618
   0.1633911  -0.1156828  -0.0975070   0.2952491   0.2939628   0.2425409
   0.0279963   0.2358535  -0.4753716   0.5671405  -0.0227606   0.5685134
   0.2353434   0.1051599   0.0236917   0.0286576  -0.0365639   1.9545767
   0.0684325   0.2568259   0.1072021   0.9101788  -1.4441254  -1.3002109
   0.3575443  -0.3007632   0.1033710  -0.0125871   0.0466534   0.6099866
   0.5060443   1.0423784   0.4323752  -0.6106408  -0.9473820  -0.7644864
  -0.2218838  -0.0318111   0.0064445  -0.0925610  -1.4230181  -0.3101114
   0.1519834  -0.1413569   0.3997823  -0.1991756  -0.1244340  -0.0082183
   0.2565081   0.1103528   0.2161337   1.0194585  -0.2243992  -2.1946189
  -0.0860586   0.0836510  -0.0566918  -0.2558758   0.6819976  -1.0683456
   0.1021241  -0.1201702   0.1957505   0.8012960   1.0477328   0.2975722
   0.2547964  -0.3754007   0.4512678  -0.4099577  -0.1500702  -0.0186657
   0.5940654   0.4219878   0.2003323  -0.2279442   0.4397172  -1.6214008
  -0.1977604  -0.0022633  -0.0395641   0.2970663   0.0852155  -0.8262356
  -1.0037079  -1.0429158  -0.7387582  -0.0365702  -0.2817998   0.1173921
  -0.5566623  -0.0684535  -1.4766423  -0.7096970  -0.6782308   0.9088366
  -0.4935117   0.1481501  -0.0944212   0.2269857  -0.5470741  -0.1714696
  -0.6642215  -0.4285384  -1.1530946   0.0686844  -0.7883061  -0.0788813
  -0.1479179  -0.1850658   0.2861822   0.1432114   0.2310802  -0.3414255
  -0.3773235  -0.6079781   0.3355199  -0.7499001   0.3707375  -0.6405406
  -0.3022173  -0.1627317   0.1464768   1.1665518   1.4318165   0.1581630
   0.1568002   0.1725037  -0.1022969   1.4735625  -0.1070961  -0.8186306
   0.0520542   0.3860682  -0.6532205   0.0749507   0.0613571   0.2057315
  -0.5163140  -0.0447043   0.1807789  -0.3405041  -0.2154027  -0.3788311
  -0.1407781   0.1403135   0.0953016  -0.1324440   0.0922240  -0.0341948
  -0.0673437  -0.0930970   0.2336580   0.4036431   0.1568346  -0.5204925
  -0.0758524   0.0531448   0.2550002  -0.0936687   0.0050318  -0.0013956
  -0.5445164  -0.6008771  -0.9419911  -0.7227203   0.0356052  -0.3403197
   1.1998658  -0.4297186  -0.8906559   0.2075020   0.4772158  -0.9973674
  -0.1768322   0.4656817   0.1939887   0.2111703   0.0366836  -0.3025909
  -0.0422884  -0.1715869   0.1249172   0.8825711   0.4354709  -0.4734353
  -0.0056317  -0.0477580  -0.3467369   1.2296823  -0.2525183  -0.4953316
   0.0734277   0.1070459  -0.2257059  -1.0018882  -1.5484996  -1.1740329
  -0.5845172   0.8815927   0.0183032  -0.1740792   0.2726624  -0.3641725
  -1.0054047  -1.6686171  -1.2895171  -0.4619988   1.4192154  -0.5570714
   0.0313190   0.2164152  -0.1247657   0.1164585   0.1136861   0.1952452
  -0.0614608   0.1555983   0.1410254   0.1820131  -0.1690474  -0.1550550
   0.2392434   0.2834600   0.2121911   0.1073657   0.2028913   0.0921086
  -0.9511101   0.9818057  -1.3464383  -0.3024514  -0.0582479   0.0722364
  -0.2628227   1.3646879  -0.2073113  -0.4970315   0.4291124  -0.0237362
  -0.6222662  -0.3792622   1.3028486  -0.2133449  -0.9003458  -0.8166202
   0.3737030  -0.0619946  -0.0102523  -1.2168389  -1.2212225  -1.2925658
  -0.3357254   1.0412019  -0.3755245   0.0293992   0.0198443  -0.0909082
  -0.5908932  -0.4648283   0.1319519  -0.0489991   1.4008642   0.1435566
   0.2341841   0.1461141   0.0149083  -0.9498912   0.4446110   1.2480879
   0.3230335   0.1005575   0.0377817  -0.1479602   0.0626016   0.0911131
  -0.5437632  -0.8399398   0.5395797   1.3773085  -0.3437169  -0.0938052
  -0.4790837  -0.1181429  -0.2141513   0.0992654  -0.4824627   0.2039971
  -0.9631287   1.0795236   0.3185019   0.0650590   0.0273490   0.1861318
  -0.0217660  -0.1102796   0.1145507  -0.2121764  -0.1423895   0.2585630
  -0.0507053   0.4035289  -2.5761207   0.0585208  -0.2594212   0.3770066
  -0.3828727   0.0065074   0.3205381   0.2147405   0.0163617   0.0704763
  -1.4996132   0.5542197  -0.0997682  -1.3190722  -0.7907964  -0.2700711
  -0.0168116  -0.1845737   0.0837210  -1.4407047   0.6650035   0.1118174
   0.6252070   1.1230812  -0.2085164   0.0472273  -0.1703208  -0.0273289
   0.2815107  -0.8644193   1.6871134  -0.4587085  -0.0697275  -1.8489800
   0.1960406  -0.0009368  -0.0078701   0.4538982  -0.0118341  -0.7021844
  -0.6994269   0.2504428  -0.9018016   0.2056588   0.1766054   0.0419839
  -0.1149595   0.1571882   1.2243707  -0.6792066   0.2432402   1.3228154
   1.2058776   0.5328118   0.6213581   0.1717626   0.0825966   0.2369697
   0.0554686  -0.1894747  -0.1406011   0.0023036  -0.4442983   0.0967966
   0.0350533  -0.3459196  -1.0935499  -0.0221455  -0.2554616  -0.0501902
  -0.0571012  -0.1471870   0.1712736   0.0064560  -0.0975098  -0.0768888
   0.1309431  -0.3336157  -0.5371360   0.2588718   0.9953301   0.9433517
   0.1119825  -0.0267011  -0.2183165   0.2147663  -0.0024681  -0.1911909
  -0.6012570   0.0075832  -0.7862709   0.1266857   0.4727629  -0.3795107
   0.7095470  -0.6026324  -0.3311733   0.4900713  -0.0340521   0.9560477
  -0.1435762  -0.2682601  -0.0445972  -1.7112422  -0.1270457   0.9053880
  -0.8966124   0.5172257  -0.0300603   0.1288033  -0.1104477   0.0524880
   1.1494294   0.2374330   0.6511113   0.5942147  -0.4766615  -0.0968715
  -0.1166936   0.2496379   0.1508379   0.1826466   0.3826896   0.0684785
  -0.1048848   0.1791281  -0.0187574   0.2053719  -0.2962345  -0.1492467
  -0.2099889  -0.0705260   0.3015397  -0.0657300  -0.3892117  -0.1670826
   1.2009380  -0.5274219  -0.7742590  -0.3552387   0.1625922   0.2208227
  -0.7714601  -1.2374811   0.2735349  -0.8513657  -0.9271187   0.3199045
  -0.0925612  -0.0000177  -0.0852454   0.7670765   0.8931101   0.2178810
   0.0097437   0.0127730  -0.5169790   0.2746992  -1.2525106  -1.2970542
  -2.0634405   0.3083830  -0.3658694   0.0015375   0.1858212  -1.0909338
   0.1229040  -0.0817219  -0.3387291  -0.0889826  -0.4913411   1.8538929
   0.1705320   0.8442368   0.0918576   0.1855862  -1.2528132  -0.8196627
   0.5290207   0.1190496  -0.0525246   0.1615107  -0.1650388   0.1138724
   0.2090222   0.1990460   0.1494654   0.2633187   0.6168968   1.8550708
  -0.0682004  -0.1741147  -0.2708188  -0.0576296   0.6683233  -0.6158971
  -0.0930056  -0.1058438  -0.0915699  -0.1436861  -0.0200675  -0.8898611
  -1.2325402   0.1539584   0.8786838  -0.2034392  -0.5314435   0.0538377
   0.0431417   1.0459914   0.0064758  -0.1914590   0.3928862  -0.2721799
  -0.2294007   0.4055620   0.0769760  -0.4813035  -0.7198694   0.2350228
  -1.2180591  -0.1948096   0.5272252  -0.0631036  -0.1468071   0.2231223
   0.5869380   0.6998980  -1.0540005  -0.2910186  -0.6953364   0.1639360
   0.3076623  -0.1629576   0.2836968   0.4824104   0.0542241   0.2842677
  -0.5149041   0.0626686  -0.8517721  -0.5991455  -0.0416011   0.5928611
  -0.3713253   0.2106701  -0.0088401  -0.0990422  -0.2441681  -0.2831595
   0.1566372   0.4918029   0.1100569  -0.0354670   0.1597712  -0.2546732
   0.9425228   1.0434294   1.1991200   0.2328828  -0.0296787  -0.2559370
  -0.0106352   0.3648138   0.1387162   0.2603959   0.2593495  -0.5323203
  -0.2283123  -0.4083542   0.6067750   0.1775228   0.0475466  -0.1329689
   0.3317843   1.0283299  -1.2466027  -1.0930328  -1.2301234   0.3357658
   0.0742019   0.0682692  -0.1408785  -0.7796590   0.5959822  -0.5496105
  -0.7011833   0.1271136  -0.3294809  -0.1157671   0.0360838   0.0858738
   0.1640350   0.0071481  -0.1191300  -0.0224722   0.2535258   0.2705009
  -0.2517974  -0.1441698  -0.1605006   1.1943322   1.5449458   0.8234199
   0.2712155  -0.1252194  -0.2025659   0.4513202   2.8167021   0.7054919
   0.0148914  -0.1334155  -0.2774521   0.0976957  -0.0901544  -0.0178381
  -0.5007296  -0.3981885  -0.2377983  -0.5765960   2.1809309   0.1389499
   0.0755868  -0.4025506  -0.1149728   0.8317397  -0.5495486  -0.3562720
  -0.2703328  -0.7800386  -0.3240259   0.1114756   0.1625749   0.1501948
  -0.6955371   0.6657534   0.8127389  -0.0977461   0.2366383   0.0009119
  -0.0836581   0.2889869  -0.2619216  -1.0113324  -0.1206004  -0.4191357
  -1.3217080   0.6462493   0.9091805   0.0341832   0.3008747   0.0094983
  -1.1322698  -1.1790591   0.1777539   0.5214189   0.1274668   0.6204662
  -0.0312140   0.0847852   0.3335246   0.0576363   0.1307010   0.1108837
   0.2262094   0.0936905   0.0440027  -0.8757510   0.0769919  -1.4596529
   0.2483213   0.0755029   0.0582614  -0.2181149   1.5770729  -0.4764742
   0.2484496  -0.0004644  -0.0201891  -0.4711551  -0.1798218  -0.1473517
   0.6048722  -0.7205550  -0.9516133  -0.0001067   0.0277297  -0.2973117
  -0.1933798  -0.2547841  -0.0326155   0.5320195  -0.2333037  -0.6042579
  -0.0004277   0.1269260  -0.0246080  -0.3090777   0.4430731  -0.1049462
  -0.4051077  -0.1386122   0.1504514   0.0725519  -0.1966730  -0.2285777
  -0.4097755   0.5378021  -1.1239362   0.2650144   0.2593007   0.0676813
   0.1953164   0.8966894   1.1135465   0.3003181   0.0403590   0.1793386
   0.2535811   0.9041664   0.6027742   0.1327454   0.0591455  -0.2738182
   0.1174489  -0.6246537  -1.0937059  -0.2367806   0.2265656   0.2093483
   0.1642780  -0.2326600  -0.1965275   0.2155511   0.3957373   0.0587678
   0.1362539  -0.3524577  -0.0478688   0.5596319  -0.6364924   0.3712860
   0.2533703   0.0687733   0.2329195  -0.6212262   0.0738714   0.2844271
  -0.2661983  -0.1726325   0.1904383   1.2698430  -0.6671249  -1.4839461
  -0.6094702   0.6707942   0.3441718   0.4324261   0.5545292   0.2752154
   0.1037258  -0.0752148   1.0946794  -0.2273023  -0.2616419   0.0503643
   0.1482639  -0.9545436   0.8348647  -0.0560896   0.8290112  -1.0629864
   0.0423844  -0.4118850   0.6212795  -0.2037536   0.1516247   0.1035884
   0.1730428   0.4439320   1.2727265   0.1178715   1.8249929  -0.0374019
  -0.9051507  -0.1634492  -0.3362831   0.2974098   0.1310466  -0.0853910
   0.0518030   0.4264618  -0.2497628   0.0327200   0.2062870  -0.2099503
  -1.2516525  -0.5378102  -0.0398498  -0.2843709   0.1206541   0.1038278
  -0.8426363  -0.4338970  -1.1821220   0.0156814   0.0176148   0.2548029
   0.6124550  -0.1982312  -0.3731713  -0.8579703  -0.9021289  -0.9099446
  -0.1850518   0.3678187  -0.2574246  -0.2004092   0.0797132  -0.0091615
  -0.1087153  -0.0899646   0.0730996   0.1022812   0.2204228   0.0696624
   0.6641683  -0.3528611   0.1541274  -0.1299416  -0.2431184   0.1113423
   0.0079345  -0.7018566  -0.2513411   0.2671971   0.1204289   0.0372440
  -0.8007865   1.8929472  -0.2952466  -0.1125349  -0.3085178   0.1951085
   0.7443709  -0.4371820  -0.9865302  -0.4954574  -0.7413676   0.7047377
  -1.0003096   0.0863309   1.0931174  -0.1356587  -0.1719571  -0.0159757
   0.0845481  -0.0592521  -0.3016039   0.2747565   0.2119979   0.3346957
  -1.1979402   1.1057605   0.1770822  -0.1011623  -0.0517026   0.1403541
   1.0528104  -0.0581690  -1.4523471   0.1422068   0.2931763   0.0829418
  -0.9793603   0.8964346   0.7082663  -0.5625201  -0.6623408   0.4749694
   0.0772167   0.0384230   0.3125254   0.8168593   1.0454469   1.4290206
   0.6240724  -1.1032218   1.0116035   0.4937099  -0.2659942  -0.1811502
   1.1508306   0.7377404   0.3869636  -1.3897031  -0.0224661  -0.5175809
   0.0634297  -0.0144908   0.0132153   0.8268487   2.1317393  -0.0677725
   0.3124969  -0.1436107  -0.0435109  -0.1052879   0.1280045  -0.0925237
   0.1509404  -0.5674025   1.0487160   0.0619108  -0.1368639   1.2193512
   0.0765378   0.4654737  -0.2257182   0.1091662   1.0387047   0.0265275
  -0.9500893  -0.1447626  -0.4299949  -0.1075013  -0.0435923  -0.2653948
  -0.0426972   0.0519870   0.0469415  -0.1963445   0.1526515   0.3815979
   0.5476561   0.9168673  -0.9866519   0.0094658   0.1468598  -0.2572210
  -1.0793674   0.1960328  -0.0352727   0.0736647   0.4126306   0.0426623
   0.1038002  -0.8998159  -0.1269621   0.1005453  -0.2073061   0.0873349
  -1.2942006  -0.0074597  -0.8044028  -1.2102894  -0.1205121  -0.6527965
   0.2798466   1.3882447   0.7120634   0.1557956   0.0408863   0.1454298
   0.1465223   0.2555447  -0.2017132  -0.3175470   0.2425303   0.1063600
   0.2377883  -0.1399960   0.6543793  -0.2886862   0.2857016   0.6678477
   0.0494806   0.1415907  -0.0742254   0.0544768   0.9190431   0.3622137
   0.1172878   0.1556201   0.1747708  -0.2183310   0.0907611   0.1667571
  -0.1176504   0.1244772   0.0220634  -1.2343625  -1.4157693   0.0642172
   0.3841170  -0.0397386  -0.0890603  -0.2490601  -0.5976385  -0.0102669
  -0.0202830   0.0240406  -0.0180648  -0.1426059   0.0971141   0.5968440
  -0.4445309   0.7406776  -0.0367141  -0.2610789  -0.1245383  -0.0719215
   0.1161353  -0.1504551   0.0465188  -0.8288066  -0.7348342  -0.3764585
  -0.0371295   0.2864708   0.0847085  -0.9894238   0.0626260  -0.2611451
  -0.2664658  -0.0128139   0.2109616   0.5764588   0.0648994   0.0295321
   1.2363312   0.4910587   0.2402848  -0.3874355  -0.2218421  -0.0577751
   0.5472528  -0.6540290  -0.5415973  -0.1764219  -0.2832479  -0.1493692
   0.8238917  -0.7661505  -0.1567747   0.3428039  -0.2806600   0.3062895
  -0.0488361  -0.1866351  -0.0763662  -0.0986318   0.0538763  -0.0607114
   0.2082463   0.8970436   0.4409337  -0.0299793   0.1152439  -0.2394936
   0.8546786   0.6162864  -0.4821419  -0.1652659   0.5507803  -0.4393964
  -0.7441571  -1.2654201  -0.3375957  -0.0209136   0.4114367   0.4632436
   0.1191591   0.0624010  -0.1987817   0.3404018  -0.0382335   0.7907971
   0.2363298  -0.2705094   0.0584841   0.1377006  -0.1043064  -0.0844375
   0.1059162   0.0224232   0.0338992  -0.0558960   0.5713029   0.2355832
  -0.0357632   0.0844120  -0.0890044   0.4894026  -1.0238983  -0.1124714
   0.1029065   0.2261552  -0.1496398  -0.0007915  -0.4137822   1.5653472
  -0.0767806   0.0288842   1.2268571   0.0057800  -0.2619326  -0.0412890
  -0.0510808   0.1587204  -0.3128121   0.1550675   0.1248448  -0.1698993
   0.1930191  -0.4363163  -0.4716563  -0.2274152   0.5856917  -0.2622876
  -0.1396005   0.3619673   0.1823291  -0.2164483   0.3452493  -0.2444347
   0.4522256   0.0133870   0.5802641  -0.0293341  -0.6619439   0.6102210
   0.1438731  -0.0411719   0.1248671  -0.1701813  -0.1470683  -0.7799977
  -1.1383353  -0.7431745  -0.6255129   0.0921288  -0.0381009   0.2729065
   1.5298193  -1.1328348   0.2728288  -0.1423585   0.0106561   0.4552603
   0.2154669   0.0303949  -0.2819320  -0.0403858  -1.1846165   0.3175515
   0.3313865  -0.1499784  -0.4314675   0.0295656  -0.0092869  -0.4591492
   0.0173255   0.2111811   0.0570710   1.9150006   0.8808920   0.9672085
   0.2446840   0.1629987   0.3020663   0.4187644  -0.0392631   0.3898988
  -0.2365623   0.1947995   0.2450833  -0.2338371  -0.8332968  -0.9816548
  -0.1624369  -1.0410137   0.9685631  -0.0895769   0.0664555  -0.0408189
  -1.7435895   1.2759694  -0.7537608   0.1822570   0.1761368  -0.3634622
   0.0211190   0.3634007   1.3584078   0.0014265   0.8057809   0.5640768
  -1.0262952   0.0987657  -0.4095894  -0.0563225  -0.3516543   0.3095968
  -0.3445377   0.2406795  -0.3218288   0.0444021  -0.9513868  -1.0305566
  -0.2575481   0.2630042   0.7107342  -0.1397366   0.3740309   0.0840725
  -0.2706707  -0.6001389   0.2069471  -0.1924520  -0.2222619  -0.0310134
   0.5765097  -0.0169031   1.2480254  -0.2661775  -0.1494851  -0.3129783
   1.2770821   0.6166167  -0.7606350   0.3790712   0.2635772  -0.0574403
   0.8917164  -0.3803997   0.3746656   0.5093723  -0.1411974   0.5150154
  -1.0012876   0.6342549   0.4609179   0.1242699   0.0331573  -0.1124843
  -0.0064861   0.2546835  -0.1074622  -0.1386132  -0.1923944   0.1545555
  -1.1148275   0.9371875  -1.0905349  -0.0094221   0.0503032  -0.0663868
   1.4867566  -0.5627229  -0.1390625   0.0059497  -0.0181609   0.0404014
   1.5471597   0.5769785   0.0969850  -0.7742408  -0.2585271  -0.5717851
  -0.0860291   0.1032618  -0.1424546  -0.5105241   1.0248988   0.0642582
  -0.0322470   0.0209993   0.1140176  -0.9690258   0.9406005   0.7117088
  -0.6170000   0.0748124   0.1071754   0.5674716   0.7843846  -0.1881586
  -0.6888909  -0.1725306   0.4599437  -2.0416276  -0.3796283   0.6405099
   0.6544051   0.3369118  -0.4479485  -0.1580243  -0.6840190   0.8016927
  -0.2799438   0.6303149  -0.4392934  -0.0015781   0.0759919  -0.3191564
  -0.0588037  -0.1792722   0.1626992  -0.1907009  -1.1172688   0.8667061
   0.1322587   0.3428630  -0.2083151   1.3057604   0.0381986  -0.6912577
   0.1777757   0.0950107   0.0811017   0.9986000  -0.8929583  -0.2094908
  -0.8901155  -0.1992010  -1.3795278   0.0264836  -0.1223078   0.3212418
   0.5035818   0.8580317  -0.3319187   0.3114288   0.6220530  -0.4842173
   0.2750392  -0.0020039   0.0456085   0.1640805  -2.0100070   0.3518887
  -0.3086489  -0.4651313   0.5380272   0.0463401   0.4061370  -0.2079459
  -1.5830177  -1.4557379   0.2288264   0.4908704  -0.1383844   0.0707996
  -0.0433874   0.2122131   0.1104700   0.8987353  -0.1552788  -0.9063589
  -0.8201946   0.0422605  -0.2624553  -0.4167974  -0.0106076  -0.7150009
  -0.2338057  -0.1370124  -0.3123284   0.1844461  -0.0889052  -0.1017904
   0.0235269  -0.1101782  -0.0026103  -1.0413067   0.1014793   2.6270671
   0.0727997   0.1480521   0.1471266  -0.4938874   0.0731553  -2.2741965
   0.0392535   0.1552107  -0.2011111   1.1975650  -0.5299734   0.6536592
  -0.3639304   0.7763653  -0.8142131   0.0448204   0.2096983  -0.6004707
   0.6973794   0.2932838  -0.7981607   0.8162286  -0.2735720   0.0937851
   0.0005345   0.0071691   0.0188189  -0.0353326  -0.2191178   0.1415271
   0.0345147   0.2189266  -0.0778487  -0.2481496   0.4801535   0.1635001
   0.2913040   0.1066410   0.1377561  -0.1242695  -0.0872415  -0.5015845
  -0.5171653  -1.4568280  -0.8567861  -0.0081892   0.3327474   0.0176247
   0.3425892   0.4443222  -0.2627109  -0.3553080  -0.3188870   0.1452248
   0.3620910   1.0010431  -0.2413389  -0.8704242  -0.6884176   0.9733086
   0.1786722  -0.0111486  -0.4070601   0.1469273  -0.1670133  -0.0463441
   0.2391055  -1.8206782  -0.6011919   0.3642767   0.3934950   0.2539444
  -2.1465523  -0.1617099  -1.2397059   0.1699759  -0.1488237   0.0647467
   0.4178617   0.4010624   0.8828106   0.0954584   0.1246632   0.1520888
  -0.4198380  -0.9905824  -0.1799076   0.5924325  -0.1668149  -0.3054004
   0.2761409  -1.4024155   0.7734786  -0.4063222   0.2243620   0.0872867
  -0.0096225   0.1740216  -0.0910434   0.1436329  -0.1525488  -0.0504797
   0.8492487   0.3569166  -0.6535141   0.0230741   0.0959794  -0.0772088
  -0.5598954   0.6908689  -0.9284819  -0.1368864  -0.0213028  -0.2904291
   0.2435670   0.4127377  -0.1537179   0.1405571   1.2794785  -0.5078676
   0.4920772  -0.0848650  -0.0104306   1.5411761  -0.5807582   0.1385647
   0.1683392   0.1401759  -0.8955210   0.1378353   0.3143522   0.0304392
   1.4931468   0.3329091  -0.1402911  -0.4968323  -0.9738978   2.6154085
  -0.1383462  -0.1343297   0.0482773   0.0829047  -0.2133219   0.5435150
   0.5451975  -0.2042702   0.0743019   0.1659028   0.2307963  -0.1460893
   0.8903310   0.7279216   1.2143551   0.2323349   1.4133578  -0.3614496
   0.9302110   0.3367515  -0.4653248   0.0273982  -0.1087254   0.0244474
  -0.0822073   0.0009454   0.3263047   0.6021051  -0.0072903   0.1066227
  -0.3390556  -0.9855457  -0.1060228  -0.1133423   0.0179918   0.1602807
   0.0871617  -0.4121274   0.2259706  -0.2388763   0.1230893   0.1783863
   0.4864743  -0.1307491   0.0841767  -0.9889608  -2.1603197   0.4218025
   0.2407491  -0.0676171   0.3606458   0.4912800   0.0497454  -1.1702696
   0.2481938   0.3546084   0.9068503   0.1550379  -0.0916527  -0.5190203
  -0.1840374   0.2603648   0.1061417  -0.0781831   0.1330075  -0.0494101
  -0.1431614  -0.2137276   0.3407280  -0.0764861  -0.0078067  -0.2614619
   0.0789585   0.2302179   0.1739435   0.8850810  -0.9606499   0.2584463
  -0.3609729  -0.2843264   0.0553716  -0.3331063  -0.5138714   0.6337881
   0.1191757  -0.1583654   0.2546477   0.6048441   0.8928708  -0.3199205
  -1.4104415   1.3806937   0.6735468   0.1104011  -0.2131180   0.0966703
  -0.0264922  -0.2135154  -0.1407542   0.2781747   0.3255977  -0.1626695
   0.1603729  -0.2607314   0.2134612   0.0083483  -0.5402298   0.9646382
  -0.1920344  -0.5443325   0.0012221   1.2129637  -0.4939272   1.2079379
   0.2529836  -0.1441678   0.0167014   0.3639137  -0.2047023   0.6352265
   0.1437404   0.0661602  -0.0737209  -1.8566811  -0.3657150  -1.4337073
   0.1257173  -0.1080056  -0.2914573  -0.1298517   0.0771302  -0.0075635
  -0.0210442  -0.0585919   0.0093799   0.3425667  -1.0436215  -0.5929994
  -0.0071339   0.1015540  -0.0956707  -0.5644808  -0.1080748  -0.4644144
   0.1796249   0.5140299  -0.1547286   1.2974248   0.1905590   0.7132113
   0.9629867  -1.2915064   1.3150912   1.1710272  -0.4410826  -0.3960312
  -0.0100606  -0.3029845  -0.0498431   0.0768896  -0.4901643   0.0438186
   0.0315070   0.0482687   0.1571245  -0.5984736  -0.6061715   0.9214506
  -0.0263897  -0.2831458   0.1386077  -0.4385751   1.0776654  -0.8089138
   0.3305840  -0.0975669   0.3878607  -1.6653523  -0.8126354   0.4507492
  -0.1748668   0.5552414   0.0445842  -0.3553917  -0.1019662  -0.8292798
  -0.1004492   0.0261106  -0.1980729  -0.1664005   0.2476559  -0.0132201
  -0.0538635  -0.0463548  -0.2514537  -1.1441276  -0.8265592  -0.4449077
   0.2051424  -0.1119777   0.4119383   1.9304934   0.9985555  -0.9292341
  -1.7584722  -0.4718376   0.1200089   0.2543442   0.0922982   0.1866052
  -0.2061403   0.1657010  -0.3141240  -0.1984489  -0.1823840   0.1113402
   0.3139652   0.1715730  -0.4497753  -0.0287323   0.1516236  -0.1164879
   0.5332900   1.7863158  -0.3006248   0.2394753   0.2422255  -0.1227135
  -0.2987973   0.4176618  -1.7581813   1.2380895  -0.2934488  -0.0107897
   0.1318299   0.2355546  -0.0294398  -0.0979861   0.9804180  -0.0398650
   0.4003447   0.8396614   0.3385860   0.1551316  -0.2551338   0.0005166
  -0.6346814   0.0795492  -0.6824555  -0.2502681  -0.3008048   0.0384819
  -0.0396422  -0.1445868   0.1933637   2.5395697  -0.5808734  -0.7108094
  -0.3553750  -0.0148963  -0.2044549  -0.3631151  -0.2588118   0.2482828
  -1.4809335  -1.7177686  -0.8167815  -1.0327667   0.3295391   0.6599491
  -0.1948836   0.3038552  -0.1344091   0.3030484   0.0698103  -0.1801431
   0.0091633   0.1197729  -1.0709788  -0.1407602  -0.0960496  -0.1939001
  -0.1185217  -0.0382967  -0.0543561   0.2005960  -0.0417395  -0.3578238
   1.2258819  -0.0343438  -0.7616427   0.2405326   0.0683446  -0.2459439
  -0.2896090  -0.0260861  -0.5415466  -0.2155913   0.0644555   0.1269060
   0.4113466  -0.3885327  -0.1414079  -0.1809041  -1.1397397   0.5411350
   0.1462034  -0.0332381   0.0163649   0.4891456   1.3781674   0.2073391
  -0.6609738   0.0571627  -0.9556428  -0.3170251   0.3429983   0.1169743
   0.3671783  -1.1866153  -0.3077460  -1.2298210  -0.6411181  -0.8074981
  -0.3067937  -0.0925518  -0.2556263   0.6116772   1.0012573  -1.0863723
   0.1457741   0.1250888  -0.2108185  -0.1552199  -0.6087526   0.0041195
  -0.1756784  -0.0463817   0.9682327   0.2726736  -0.1980814   0.3652493
   0.9469534   1.3204458   0.6276120  -0.1318676  -0.0075304   0.1659830
  -0.2273758   0.0599414   0.0544044  -0.0937887  -0.3235547  -0.0910826
  -0.3123442  -0.2159241   0.0461069  -0.0189855   0.1550446  -0.0637545
  -0.1255191  -0.2318907   0.0018758  -0.2321802  -0.0420184  -0.0796018
   0.0690335   0.1886440  -0.0406978   0.3073373  -0.1445677   0.2138702
  -0.2573080   0.1246681  -0.0125595   0.2326129   0.1083711  -0.1290557
  -0.1154451  -0.1252416  -0.2093704  -0.0779128   0.0356870   0.1476418
   0.2787770   0.0805683  -0.1065824   0.1956850  -0.3085281   0.0575734
   0.1693072  -0.0309787  -0.0598283   0.1130004  -0.0248907  -0.1157527
  -0.2129729   0.6317294   0.1617415   1.4218553  -1.1005581  -0.1888309
  -0.0542844  -0.2486525  -0.4079892   0.1925865   0.0635824   0.1170494
  -0.6025263  -2.1671336  -1.1695926  -0.0786332  -0.0195274  -0.2949302
  -0.3372023   0.0308883   0.0811956   0.8020414   0.1490131  -0.6406491
   0.0062074  -0.1483815  -0.3583082   0.0231277  -0.0353763  -0.4737508
   0.3896677  -0.7568523   0.3805788  -0.0711171   0.1144502  -0.0801706
  -0.2012141  -0.0084047   0.1576743   0.3697382  -0.2328249  -0.1921177
  -0.1069084  -0.0977368  -0.2214432  -1.4401580  -1.3828585   0.5599585
   1.5074879   1.0665318  -0.8690447  -0.0188958   0.2109822  -0.0101530
  -0.0142062  -0.1489625   0.2772310  -0.7952312  -1.0584671  -1.7734655
  -0.1607054  -0.0318077   0.2413312   0.1946780  -0.0009790  -0.0930493
   0.2459421  -0.3958943   0.0276798   0.7003493  -0.1912090  -0.2132781
  -0.2544171  -0.3834181  -0.0490143   0.5568708  -1.1927233   0.9320456
   0.2436487  -0.0013684  -0.0463854  -0.2278927  -1.1303923   0.8851464
   0.0005826  -0.1002603   0.2717079  -0.4959744  -1.0730913  -0.7297183
  -1.4586567   0.3609659   0.5655328  -0.3005441   0.0404857  -0.4575668
  -0.4594741  -0.2845453   0.1230335  -1.0355529   0.1647436   0.0156281
   0.7307474   0.2749769   0.1336502  -0.0722471   0.1714891   0.2702105
  -0.9585161  -1.1915973  -2.0987290   0.1021759   0.0823368  -0.0899707
   0.2898057  -0.0116136   0.1839987   0.5852434   0.3231478  -0.1591785
  -0.1475141  -0.0150556   0.2733830   0.1359873   0.2253888   0.0964421
   0.4809367  -0.8845777   0.8002193   0.1884644   0.2183118  -0.3539010
  -0.1810625  -0.1430295   0.3375647   0.5187352  -0.3378178  -0.0575166
  -0.0732754   0.2019435   0.2617570  -1.2190476   0.9043808   0.6452243
   2.0926537  -0.7445559  -0.0780755  -0.0743957   0.1417087   0.1838073
   0.2140856  -0.6397286  -0.3747342   0.1287123  -0.2333252  -0.4005843
  -0.0167271   0.0885446   0.2927076   0.0064566  -0.2762188  -0.2540968
  -0.2896476  -0.2167299  -0.1771017  -0.3517083  -1.1953374  -0.7114586
   0.1269964  -0.2792014   0.1012206   0.9271793  -0.9356245  -0.7883311
   0.3670794   0.1026137   0.0335357   0.3046382   1.7769164  -0.5067238
  -0.0434182  -0.3934711  -0.3455281  -0.0779548  -0.2073222   0.0223708
  -0.0802151  -0.0351058  -0.0853783  -0.2174772  -0.0214456  -0.2550887
   0.0839467  -0.0042782   0.2858352  -0.2432379  -0.2665081  -0.4414059
   1.9021068   0.6659912  -0.3169180   0.3732999   0.3945750  -0.2976265
  -0.0412987  -0.0364401   0.0060989  -0.4773499  -0.2154000  -2.0349637
   0.3744391   0.0199344   0.0992519   0.1890898   0.3481480  -0.0294739
  -1.8429684  -1.3043893  -0.0033635   0.1436424  -0.1831179  -0.2061445
  -0.0236586  -0.0123666   0.0720481   0.9906296   0.3682667   2.0422616
  -0.0099916  -0.2988151   0.0215239   0.4086244  -0.3144602   0.4182944
  -0.0460393  -0.3315994   0.0742228   0.0017098   0.2566158  -0.0731111
  -1.1062462  -0.0263582  -0.8507161  -1.1512147   0.6205157  -0.0337946
   0.1790673  -0.0720424   0.1459706   0.4442684   0.0956433   0.1589864
  -0.0336667  -0.1076342   0.2764681  -0.2049494  -0.0674692   0.0833466
  -0.2797523   0.0635622   0.1517977   0.1879814  -0.3849099  -0.0001504
  -0.6895400  -0.1456801   1.2515890  -0.3494693  -0.2570110  -0.2200498
  -1.9318008  -0.9164523  -0.5612558  -0.0738576   0.0836326   0.3083920
  -0.0992263   0.4804694   0.2684294  -0.2108627  -0.1985958  -0.2021116
   0.1236966   0.0295904  -0.1449624   0.0756791  -0.2256381   0.1516344
   0.0314776   0.1124028   0.0398136  -0.1962803  -0.0152476   0.1907446
  -0.0246312   0.0889712   0.0089704  -1.0925032  -1.0225444   0.7619425
   0.3989367   0.6354397   0.0798420  -0.0207802  -0.0714442  -0.1620410
  -0.0930298   0.8956234  -0.1642300   0.1455223  -0.2339507   0.1831336
   0.0680014  -0.1773340  -0.0048293   0.0094625   0.0329545   0.1520789
  -0.0869277   0.1539038  -0.1184048  -0.1001603  -0.1169281   0.0937419
   0.3025461  -0.9635377  -0.1051078   0.0415164  -0.0699645   0.0555384
  -0.0580310  -0.0410250   0.1656685   0.2683478  -0.2296763  -0.1226015
  -0.1160415   0.0773410  -0.2619153  -0.6253768  -0.0191543  -0.4251166
  -1.7626325  -0.2635011   1.2958122  -0.2077319  -0.1817124  -0.0853351
  -0.1979748  -0.0153746   0.3319811  -0.5445164   0.0511264   0.2006905
   0.1456041   0.1146919  -0.1942480  -0.1871283   0.1928647   0.0602516
   0.2184770  -0.0567388  -0.0235285   0.4026706   1.0434543  -0.3464810
   0.1318505  -0.3035699   0.0593554   0.0671482   0.6086246   0.5448265
   0.1870345   0.1325427  -0.3264096  -1.2489036  -0.5156923   1.0017279
   0.0048469   0.0851929  -0.1637573  -0.1226975  -0.0694177  -0.0057270
  -0.4103689   0.0899181   0.3417952  -0.0804050  -0.0255049  -0.2222161
   0.0519449   0.1884855  -0.2016780  -0.3438839   0.1196679  -0.1104854
  -0.4448403  -0.3776381   0.3692498   0.8877796   0.0765417  -0.0243190
   0.0966233   0.1386763   0.0509311   0.2628259  -0.9360674   0.0811955
   0.1420864  -0.3398215   0.2685790   0.0703534  -0.2581964   0.2350432
   0.0101600  -0.2508889   0.0967910  -0.2430222  -0.0893865  -0.0857041
   0.2217590   0.0470508   0.3966652   0.4872716  -0.4113350   1.1590147
   0.0841899   0.1754885  -0.0386793   0.1144693   0.1111910   0.0516413
  -0.4591089   0.0425412   0.0342301  -0.1012365  -0.4797654  -0.6292187
   0.7277115   1.9164613   0.6410917  -0.7629873  -0.0221562  -0.9796870
   0.2074597  -0.0695307   0.0161563  -0.1458609   0.2166708   0.0933002
  -0.3527269  -0.4218308   0.3146426   0.1765376   0.1667143   0.2189478
   0.1080218   0.1189716  -0.0678346  -0.1489659  -0.0025118   0.2492871
  -0.9216765   0.2992000   0.1660180   0.1054656  -0.4301606  -0.0224600
  -1.0707633  -0.7935163   0.5168225  -0.0835074   0.0584580   0.0717705
   0.4929645  -0.2943848   0.8627156   0.1176844  -0.3063022  -0.4559954
  -0.0797960  -0.1889486   0.0171759   0.0438497  -0.1584429  -0.1395883
  -0.1932281  -0.1907237  -0.0031307  -0.1005568  -0.2581028   0.0598627
  -0.3472876  -0.0017992  -0.0271015   0.3060677   1.5950785   0.0579297
  -1.0651500   0.6358838   0.4677640  -0.2829965   0.2135522   0.2541062
  -0.5897041  -0.2271424   0.8579918   0.1281564   0.0745043   0.0836333
   0.1992130  -0.1019758  -0.0286967  -0.0906033   0.2686448  -0.3135368
   0.1999188   0.0193913   0.1095319  -0.2263829  -0.0996298  -0.2382722
  -0.1303087  -0.1485390   0.8508863   0.2619650   0.1687739   0.1767561
  -0.0283152   0.0722447   0.0690795   0.0082111  -0.2051136  -0.2048766
  -0.1066055  -0.0450284   0.2099584  -0.0911335  -0.6476352   0.1767865
  -1.1195575  -0.5391438  -0.1600996   0.1682708   0.2074346   0.1642565
   0.0253558  -0.3025425  -0.1697265   0.7517772   1.2299242  -0.6261337
   0.0330899   0.1376076   0.2593293   0.2370719   0.4870604   0.2323075
  -0.0553903   0.2309876   0.1935104   0.0409166   0.2342075  -1.7468231
  -0.0181345  -0.1140801   0.1124694  -0.4589363   0.8901286   1.1048797
  -0.0443887  -0.1991682  -0.0407585   2.1529761   0.5640163  -0.6020554
  -0.2724459   0.2030606  -0.1700422  -0.5299781   0.1056411   0.0331653
   0.0634743  -0.0700276   0.0212484   0.1180344   0.1465056  -0.2873629
   0.1086251  -0.2006380   0.1281864  -0.0472535  -0.1869542   0.3083543
  -0.4274714   0.2560116   0.0294117   0.2508315  -0.6994884  -0.7104319
   0.4733234  -0.2776579   0.0001975  -0.2328842   0.3835803  -0.0243227
   0.2323410   0.1150393  -0.1159625   0.0300301  -0.2304935  -0.1887748
  -0.1993626   0.8681857  -0.7741211   0.4170823   0.0272809  -0.3023011
  -0.2143249  -0.0460384  -0.0769460   0.1985135  -0.2207311  -0.0068653
   0.0949023   0.0211271  -0.1565787  -0.0599154  -0.0314850   0.5323448
  -0.2231228   0.0454039   0.1984234   0.0483853  -0.1077976  -0.1703791
   1.1413744   0.4874175   0.6270182  -0.8935781   0.2294896   0.8024138
  -0.0012815   0.1918456  -0.0604551   0.2321246   0.2113163  -0.2711506
   0.4704570  -0.8291666  -1.3408123  -0.1306722   0.0889963  -0.1619875
   0.1901212  -0.2404158  -0.1985503   0.2681784   0.0789732  -0.1631648
   2.2421786  -0.7191136  -1.1172558  -0.3489516   0.2688586  -0.0576967
   0.0940152   0.3507009  -0.1055756  -0.0109864  -0.1373316  -0.2999493
  -0.0345730  -0.2143448   0.9542875   0.1680290  -0.0590845  -0.0870525
   0.0072758  -0.3079742   0.2368343  -0.0056904   0.2438364  -0.0140773
  -0.1591977   0.1826525   0.0958962   0.2139957  -0.3312923   0.0919627
   0.1845767   0.0653939  -0.1152048   2.0822945  -0.5103353  -0.1570313
  -0.1219261  -0.4312489   0.5013324  -0.0332175  -0.1442411   0.1008354
   0.0867784  -0.7032953  -1.7847548  -0.0737550   0.2689468  -0.1747545
   0.0927793   0.0665318   0.2110042   0.3600374   1.6942551   0.9475615
  -0.0101300   0.3255221  -0.1981510   0.1338847   0.3840862   0.0302522
   0.2841439  -1.2071277  -1.1523693  -0.0678420  -0.0094200  -0.1551674
   0.0967519   0.2881893  -0.2137255  -0.1251149  -0.0287013  -0.0153129
  -0.1376064  -0.4602371   0.1774328   1.3321744   0.7585817   1.8837582
  -0.3527217   0.4718382  -0.3230449   0.1935209   0.2483447  -0.1838310
  -0.2311111   0.0191271   0.1458115   0.7596175  -0.1945936  -0.9546790
   0.1497522  -0.2081971  -0.0699670  -0.0623799  -0.2689939  -0.2237522
  -0.3403335  -0.1803752   0.0463360  -0.3266524   1.4459560  -0.8731188
   0.1610962  -0.1819919  -0.0483787  -1.4690821  -0.0309066  -0.3246744
   0.0011215   0.2661709   0.3361647   0.4384594  -0.1032235  -0.9541412
   0.0809332  -0.1168960  -0.0097281  -0.1452313   0.1752195   0.1094319
   0.2250728  -0.0011231  -0.0577661   0.1314000   0.2971220  -0.0543275
  -0.1072162  -0.1057672  -0.2021627  -0.0393469   0.4440200   0.2807188
   0.8263757   0.8237960  -0.2436351   1.0185451   0.5217086  -0.8436168
   0.1531543   0.0232318   0.0511323  -0.3120953   0.0176529  -1.2501019
   0.1497864   0.0240377  -0.2452367   0.4796948   0.2737000  -0.1927373
  -1.1086953  -0.0368903  -1.7275750  -0.0044142   0.2103492   0.1897140
  -0.0954280   0.0755631  -0.0341230  -0.8604628  -0.6028677  -0.2072818
  -0.5400626  -0.3227893  -0.0501774  -0.0117188   0.0125857   0.2384067
  -0.0560304  -0.0387720   0.0329771  -0.2971442  -0.3272907  -0.0855221
   1.3211493  -0.0050964   1.2522076  -0.5469215  -0.9040965  -0.2933422
  -0.0490493   0.0591460  -0.0109886  -0.1720081   0.0477776  -0.1199304
   1.8925312   0.6701376   0.1760404  -0.0541042  -0.2633642  -0.1297583
  -0.1817390  -0.0207919   0.0138720   0.2491717  -0.0259712  -0.1454205
   0.1489569   1.0753571  -0.8320962   0.0990312   0.0451411  -0.1857787
   0.2092512   1.3423081  -0.5503229   0.1302378   0.0872057  -0.1472622
  -0.6251929  -0.4991431  -0.6328996   0.1251723  -0.0166851  -0.1378390
   0.0340122  -0.0126041   0.1249339   0.0361196   0.2605731  -0.3428154
   0.1297132   0.0261837   0.3357631  -0.0530285   0.1341816  -0.1842979
  -0.4047060  -0.0654753   0.4418411  -0.4556525  -0.7017939   0.1377429
  -1.7934947   0.5532170   0.5934519  -0.3075630  -0.1777001   0.2386391
  -1.7181095   0.8984283   0.6510063  -0.0346384   0.0452029  -0.1689456
   0.0807255   0.1306091  -0.0292262  -1.2666312  -0.8276836  -0.8789768
   0.0045248  -0.0237426   0.2285781   0.2201470  -0.3356937  -0.2013236
   1.9637877   1.2193838  -0.3669585  -0.0426055  -0.0127579   0.0312346
  -0.3273160   0.2550864   0.2816999   0.0262417  -0.1213745  -0.0313488
   0.2664424   0.1118356  -0.0696832   1.2692868  -0.3632460   1.4963998
   0.9447814   0.1193646   0.2653209   0.1346730  -0.0498245  -0.0955826
   0.0459580   0.3652386  -0.0748793   0.3075012  -0.7867982  -0.4193090
   0.0319624   0.0571044   0.0948945  -0.1297243  -0.3512221  -0.2511367
   0.0640731  -0.2422987  -0.0997601  -1.3383637   1.1475548   0.4032741
   0.3078939  -0.0472772  -0.0906018   0.2179686   1.3095632   0.3565175
   0.0067887   0.0418981  -0.3696554   0.9420085  -0.0971320  -0.4224545
  -0.1917952   0.0647010  -0.2382537   0.0084648   0.0826897   0.0417471
  -0.2922401   0.0755233   0.0076575   0.4037868   0.2643367  -0.3529856
  -0.1883005   0.2044195  -0.0374920   0.2293907  -0.4326287   0.0369527
  -0.2903306  -1.3506177  -1.6000616   0.2247473  -0.7784870   2.4021288
   0.1985037  -0.1422499   0.1050194   0.7333045  -0.3349240   1.4389855
  -0.1295487  -0.3445774   0.0460301   0.0907305  -0.0386304  -0.2347544
  -0.6306421  -0.5900844   0.6628289  -0.1349701  -0.3239721  -0.0248226
  -0.3436711  -0.3438172  -0.1415125   0.1625365  -0.1074255  -0.7236199
   0.2015984  -0.0020156   0.0663943  -0.0212877   0.5279032   0.2339422
   0.3085442   0.0844087  -0.0698283  -0.2583229   0.1829009   0.0131350
   0.4028248  -0.0575378  -0.0073512  -0.4040848  -0.0342991   0.1842481
  -0.1522107   0.0971579  -0.2851001  -0.0596450   0.1880712   0.2196146
  -0.4721942  -0.8180167   0.2838592  -0.0431044   0.2894616  -0.2874594
   0.0712977  -0.1767722  -0.1817930  -0.1080370   0.2538821   0.2660979
  -0.6351391   0.7594630   0.1038387  -0.1039896   0.1953372   0.3767222
  -1.3430882   1.2282038  -0.7324020   0.4323735  -0.0811128  -0.1628993
  -0.3044511   1.4191299  -0.4007837  -0.1676052  -0.0446615   0.2727165
   0.2260551   0.0605110  -0.0416170  -0.1228160  -0.2003528  -0.2953800
   0.0029257   0.1809279   0.3464066  -0.1356921  -0.3641677  -0.2475780
   0.2671999   0.2951761   0.1800650  -0.5480737  -0.9314259  -0.1881763
  -0.0360170   0.6641997  -0.2894730  -0.1442771  -0.1906370  -0.1412880
  -0.5447886  -0.0136855  -0.2397480  -0.2540162  -0.0731615   0.2999846
   0.0066274   0.1354496  -0.0183406   0.4919715  -1.8524233   0.0903547
   0.1361346   0.3590820   0.0539855   0.3736318   0.0511880   0.2031388
  -1.1313767   0.2792512   0.6738011   0.0948505   0.1430041  -0.0211993
  -0.0896976   0.0720927   0.2329310   0.0626839   0.1763908  -0.0183997
  -0.0478292   0.0787158   0.2929191  -0.7015157   0.5905232  -0.4686825
   1.5107326  -0.4028790   0.0368370  -0.2201838   0.1105864   0.2850654
   0.0004984  -0.2926289  -0.4428478   0.5112177  -0.2933900  -0.4507104
  -0.2243152  -0.2012810  -0.2056852   0.0139116   0.1534711  -0.2175621
  -0.0125978  -0.3576188   0.2915932  -1.4731895  -0.3234986  -0.6154254
  -0.0517427  -0.1169194  -0.0434514   1.2797860  -0.8975598  -0.2648688
  -0.1782290  -0.0806639   0.0858972   0.3139131   1.6253927  -1.6325305
  -0.0823680  -0.0599032  -0.1816568  -0.0995051  -0.2159714   0.0485428
   0.1228734   0.0130179   0.1997947   0.0221375   0.0418363   0.0360872
  -0.2886241  -0.2137247  -0.0375178  -0.0528182   0.2388718  -0.2147599
  -0.8940365  -0.7650975  -0.9900345  -0.4637362   0.9668621  -0.0912397
  -0.0807402   0.2182584  -0.0813130  -0.2164629  -0.2932536  -0.3337476
  -0.0658861  -0.0725072  -0.3354387   0.2895417   0.0699986   0.2726945
  -0.0246421   0.4469010  -1.1345272  -0.0131987  -0.1655797   0.0873735
  -0.2226800   0.3473055  -0.4606391  -1.8855221   1.7875140  -0.1221828
  -0.0154148  -0.1391692   0.0600922   0.1408960  -0.0851996  -0.1736595
  -0.1551268  -0.1293191   0.0121707   0.0584780   0.2056522   0.3779090
  -0.3122957   0.0983143   0.1906030   0.0672926  -0.5914486  -0.7496378
   0.0075043  -0.1240804  -0.1761049   0.5314033  -0.1849782   0.1663303
   0.0779999  -0.3884949   0.0090531  -0.0645935  -0.1424086  -0.2966577
   0.3175279   0.0666778   0.2357748  -0.2397880  -0.1294102  -0.1591577
  -0.6907834  -0.5509977  -0.0232484  -0.1532002  -0.1588275  -0.0655177
  -1.3726574  -0.3671546  -0.3732509   0.1177119   0.2453293   0.0210038
   0.0274803   0.6325046  -0.3538365  -0.0908649  -0.1080465  -0.0154090
   0.0039965  -0.1316916  -0.0566770   0.0091609  -0.2020400   0.1072715
   0.1365936   0.0509734  -0.7410627   0.3514837   0.0496663   0.0998611
   0.0780871   0.3429056   0.3347561   0.0261427   0.4223671   0.1829858
   1.0224805  -0.6579009  -0.7716026   0.2370819  -0.4254476  -0.3681056
  -0.0896490  -0.7188534   0.8774616   0.0863960  -0.0677961   0.1367113
  -0.1634876  -0.0711879  -0.1015212  -0.0827844  -0.0400557   1.6904781
   0.2068848   0.1206608   0.3555324   0.2237297   0.1218147   0.0951926
   0.2648424  -0.3352207  -0.4350597  -0.2573281   0.1950418  -0.0945090
  -0.2397242  -0.3008921  -0.1954310   0.0050167  -0.0808705   0.1178429
  -0.1467848  -0.5213832  -0.1988859   0.0681509   1.3895690   0.8962823
   0.7334912   0.1885689  -0.4279294   0.3688150   0.4490999  -0.0415940
   0.2029424   0.3351099  -0.0948423  -0.1599533  -0.3736836  -0.6263495
  -0.4210893   0.0215935  -0.0392657   0.2166798  -0.2127518   0.2706651
  -0.0967112  -0.3336255  -0.2146835   0.6656204   1.2995441  -0.0427066
   0.3680868  -0.0092426  -0.0355293  -0.0402143  -0.1319071  -0.6154397
   0.0217657  -0.0496487   0.0099229  -0.3658146   0.0911073  -0.0740113
  -0.0238941  -0.2022655  -0.2368513   0.1253770   0.0430206   0.0834620
   0.2257245   0.0097245   0.0469928   0.2455550  -0.0938118   0.1452496
  -0.0819419  -0.2833968  -0.2493739  -0.0773357   0.1340577  -0.1082967
   0.5167095  -1.8441722  -0.1397840   0.2159765   0.6925888   0.6263450
  -0.0476143  -0.0503621   0.4678817  -2.6394272  -0.6306736   0.5520421
   0.0127522   0.3172823   0.1013456   0.0484676  -0.2568425  -0.1110113
   1.0941364  -0.0326492   0.4824651   0.0700251  -0.0695944   0.1923872
   0.1208667  -0.1358758  -0.4140734   0.4652650   0.7634621  -0.6355902
   0.2781405  -0.0005114   0.1397304  -0.1773490  -0.1123936  -0.1663817
  -0.2719321  -0.1288059   0.4320551  -0.1851174  -0.1019763  -0.2182068
  -0.3535027  -1.2298710  -0.1895852  -1.3637365   0.5737986   0.5019957
  -0.2991207  -0.2305475   0.2005952   0.3927702   0.1016062   0.0816233
   1.3983458  -0.6611575   0.1431332   0.2881665   0.1934659  -0.2506589
  -0.4000161   0.1420472  -0.2928343  -0.4034953   0.0251648   0.1224425
  -0.1634570  -0.4350287   0.1527080   0.0571928   0.3308027  -0.4968970
   0.3183699  -0.5464357  -1.2557337  -0.0550882   0.0149532   0.0291263
  -0.6546510  -0.8726064  -0.4313596  -0.1956648   0.1856798   0.1787655
  -0.0799608  -0.1328897   0.1561716  -0.1433656  -0.1252540   0.2497884
  -0.3365495   0.0682725  -0.1259935   0.2422999  -0.1961742  -0.3331743
  -0.0553282  -0.1840232  -0.3251839  -0.9409721   0.8468492  -0.3006364
  -1.1667012   0.5740778   0.1360290  -0.4088364   0.1511823  -0.1829286
   0.2883664  -0.3289106   1.9826237   0.0376322   0.0264506  -0.0706938
  -0.1568800  -0.0590710   0.0327491  -0.1693309  -0.1596207  -0.1471105
   0.2433434  -0.0522278   0.1088890   0.1375517  -0.0669303  -0.0528489
   1.1125320  -0.9436059   0.4038542   0.0414407   0.2513226   0.1065487
  -0.0031243   0.1739221   0.2712008  -0.0396140  -0.0001860  -0.1792219
  -0.0722737   0.0693867  -0.2168625   0.5729068  -0.3115965  -0.6403267
  -0.4209056  -0.1043850  -0.0589129  -0.0120559   0.0852205  -0.0679087
   0.1126975  -0.0767144  -0.1000472  -0.1884618   0.3742592  -0.1772230
  -0.1182504   0.0539428   0.0179909   0.0398124   0.2559504   0.0574681
  -0.4561390   0.2153807   0.2452557  -0.4321205  -0.0952045   0.4416095
   0.2943275   0.2015169  -0.3502697  -0.2312454   0.4327175  -1.2031060
  -0.4536323   0.1569530   0.0738000  -0.0515781   2.8344820  -0.1967483
   0.0147362  -0.0990491   0.1283692   0.0444260  -0.0745145   0.1623066
   0.0023130   0.0708601  -0.0244093   0.0040714  -0.0853496   0.0081187
  -0.0009026  -0.0229104  -0.2168507  -0.3204686  -0.1122792   0.0362890
  -0.0299642   0.3639637   0.1282185   0.9837474   1.2266428   0.8308421
   0.0051842  -0.0534118  -0.2378069  -0.3020209   0.2680702   1.4762401
  -0.1421381  -0.0130810   0.2978243   0.0151427  -0.1795469  -0.1574778
  -1.3042198   0.5082281   0.5286053   0.0006045  -0.0055654  -0.2939349
   0.1608337   0.0892385   0.0280567   0.9525537   0.7902002  -0.0208653
  -0.0148112  -0.1521602   0.1663523  -0.2600607   0.0430640  -0.1277121
  -0.0674103  -0.0623125   0.0664456   0.0796711   0.0694204  -0.2300831
  -0.1342546   0.5943368  -0.7340266   0.6837917   0.4890537  -0.8634892
  -0.0807006  -0.1727665  -0.2086693   0.0719421   0.3187775  -0.3447535
  -0.9146527  -0.1391500   0.2448127  -0.0619450   0.1056995  -0.3982001
  -0.3298438   0.2527722   0.4005981   0.0153883  -0.5480175  -0.0203829
  -0.3518583   0.7954253   0.6287579  -0.2802766  -0.1460475  -0.3609083
  -0.1964022  -0.6089940  -0.8944777   0.1425571   0.0238451   0.1397410
   1.3283448   0.6110921   0.3516681  -0.2362829  -0.1892037   0.0025942
  -0.6943060   1.5783358  -0.1866548  -0.1163125  -0.0417268  -0.0627495
  -0.0136215  -0.1931951   0.0229769   0.1070381  -0.1309945  -0.0616310
   0.0797483   0.0661780  -0.3196352   0.3906435  -0.0656383  -0.0360895
   0.0428151  -0.0967260  -0.1276367  -0.1386701   0.0580435  -0.2780764
  -0.0990343   0.1038798   0.1279124   0.0427132   0.0466341   0.0605347
  -0.0925940  -0.2229117  -0.1227641   0.2653747  -0.1795603  -0.1808325
  -0.0984845  -0.0261614   0.2886231  -0.0505197  -0.0638176   0.0756653
  -0.2319011  -0.0498274   0.0445822   0.0802924  -0.0169456  -0.1142311
   0.0260979   0.0262591   0.0338437  -0.0413907   0.1776542  -0.1823410
  -0.0887821   0.1215240  -0.0926671  -0.0998667   0.0901660  -0.0283566
  -0.1576676   0.0394338  -0.0021975   0.2112720  -0.0982655   0.0417673
  -0.1428079  -0.2174066   0.0435281  -0.0601562   0.0198652   0.0471944
  -0.0747723   0.0769265  -0.0069759   0.0711021  -0.0858284   0.0446639
   0.1246804  -0.2250355   0.0906735  -0.0556660  -0.0062279  -0.0224492
   0.2135025   0.0487021  -0.0933487   0.1274298  -0.0307350   0.1582444
   0.0134591  -0.0030197  -0.0036848  -0.3386514  -0.0367442   0.2117900
   0.0366108  -0.1560760   0.1551651  -0.0666534   0.0161609  -0.1061901
  -0.1598955   0.2133385   0.0345871  -0.0856483   0.0883729  -0.1843360
   0.1015264  -0.0622331   0.0159757  -0.1512796  -0.0394715   0.0374393
  -0.1728200   0.1374487   0.1361701  -0.1159923   0.0419488  -0.0630343
   0.0443162   0.1720031  -0.0597084   0.0369499   0.0696350  -0.1174245
   0.1874114  -0.1643527   0.2567425   0.1923056  -0.1024429  -0.0300945
   0.1152845  -0.1685706  -0.1262333   0.1069853   0.0855877   0.1185063
  -0.1201807  -0.2344762   0.0062398   0.1786244   0.1216964   0.1424585
   0.2640135   0.0791278  -0.0601006   0.1760382  -0.1399489   0.0641782
   0.0230289  -0.1794357   0.0518133  -0.2254914  -0.1792229  -0.4913963
  -0.1749140   0.0059309  -0.0697867  -0.1441477   0.1879155  -0.3555425
  -0.1799407  -0.1847085  -0.0246705  -0.0751663   0.2377965  -0.1028306
   0.2513843   0.1934290  -0.0432012  -0.1699334   0.1033094  -0.0808406
   0.0032651  -0.1549965   0.0595885  -0.0440009  -0.1015722   0.1245757
  -0.1425138  -0.1736629   0.2556069   0.2778595   0.0866814  -0.1854718
  -0.0678364   0.1125673  -0.0570328   0.1035842  -0.1033336  -0.0328120
  -0.0802971   0.1334881   0.1208953   0.0045658  -0.0704746   0.3077866
   0.0380131   0.1376318   0.1214420   0.0287097  -0.0791495   0.0384069
  -0.1671573  -0.0849459   0.0764134   0.1169021  -0.1884335  -0.0304542
   0.0711089  -0.3551938   0.0351095  -0.4250165   0.0963638  -0.2361795
  -0.0231096  -0.0329899   0.0618596  -0.2014310   0.1540667   0.0774517
  -0.0261619   0.1644615  -0.1973649  -0.4049167  -0.0097445   0.2877647
  -0.1549230  -0.1093288   0.0954887  -0.1063705   0.1051380  -0.0759697
  -0.0549305  -0.3772614  -0.1181422   0.2749475   0.1129995  -0.2733446
   0.0726871  -0.0274354   0.1206230   0.0270759   0.1703125   0.0316019
   0.3305132  -0.0410154  -0.1118066   0.4138889   0.1727879  -0.2689047
   0.2622102   0.0932994  -0.0166022  -0.8659712  -1.1397234  -0.5338203
   0.8938135   1.1587991   0.0898691  -0.2318220  -0.0021115   0.1431802
   0.8942473  -0.5734905  -1.1602660  -0.4291890   0.7577439  -0.4693816
   0.1482740   0.2164648   0.2756429  -0.3182441   0.8812700   0.7280313
  -0.0711665   0.2232523   0.1251434   0.1452163  -0.4242826  -0.0324091
   0.3971346   0.2699284   0.4435790   0.2237895   0.8212210   0.9288177
  -0.2942112  -0.2160980  -0.0005364   0.1923836  -0.9190155   0.3774188
   0.0737927  -0.1327086   0.3890902   0.1167967  -0.0807211  -0.0022202
   0.6603826  -1.0473098   1.3915739  -1.0220723  -2.1338523   1.1745464
   0.0385690  -0.1477152  -0.0591481  -0.8696687   0.7361859   0.6670854
  -1.4308588   0.4648478   1.3223288   0.0606339  -0.0151489  -0.0872452
  -1.0199317  -0.3037256  -0.0165336   0.6517187  -0.7006663   0.1089796
   0.0249964   0.0397334   0.2287887   0.7637768   1.0076381  -0.3046508
   0.8202545   1.1447405  -0.7488145   0.2499521  -0.2143571  -0.1092569
   0.0047999  -0.4003593  -0.3807874  -0.4064735   0.9406865   0.9108497
   0.0220803   0.3038878  -0.3237411  -0.5208569   0.1344477   0.9706253
  -0.7011420   0.3614859   0.0546510  -0.0741133   0.0078321  -0.1170181
   0.0993100   1.3561924   0.6292075   0.6831192   0.3326930  -0.5663503
   0.2635655   0.4210641   0.0981414  -0.7114490  -0.1972897   0.1272411
  -0.2560170  -0.1058938  -1.1506902  -0.2438372  -0.1916254   0.7297370
  -0.5826073  -0.9060833  -0.6080402   0.7639022  -1.3306891   0.9218752
  -0.2175980   0.0218688   0.2501577   0.4101790  -1.9007353  -0.6263585
  -0.8881394  -0.1048057   1.5406360   0.0144577  -0.0096891   0.1111724
  -0.6771218   0.7230128  -0.2828023  -0.8523203  -0.5138716  -1.1852014
   0.2717795  -0.0652793  -0.1709356   0.2943960   0.1498699   0.3989662
  -0.6044341  -0.9368514   0.8356180   0.0347977  -0.1791996   0.2571755
   0.0346322  -0.4842007   0.1290175   1.6993235  -0.1330863   0.2332434
  -0.0369304   0.1511312   0.1459748   0.3492564   0.2733796  -0.5443210
  -0.9146212  -0.0837730   0.4838504   0.0312181  -0.2015949  -0.2557812
  -0.4405511  -1.2449765   0.3044562   0.3895641  -0.2687433   0.7311265
  -0.0561298  -0.0459229  -0.1753226   0.5745126  -0.2095195  -2.0544043
   1.0254850  -0.5168290  -0.3760856   0.0037045   0.1526554   0.2956280
  -0.6130849   0.0660396   0.7069752   0.3044673   0.7687760  -0.2127475
   0.3174099  -0.0498895   0.1610392  -0.2467454  -0.5393717   1.0656245
   1.6010421   0.6797538  -0.1644717   0.0067320   0.1904876  -0.2734243
   0.3886791  -0.8014357  -0.6952247  -1.0154583   1.3715772  -0.6059141
  -0.3762959   0.1584393   0.1708705  -0.0584047  -0.8184252   0.5807582
   0.9430410   0.9321455   0.0949176   0.0680414   0.1368031  -0.2557329
  -1.4153786  -0.2402520  -0.7244703   0.1152914   1.1120651   0.5070106
   0.1234410   0.0392081   0.0851045   0.6483772   0.1253787  -0.0490035
  -0.4586205  -0.8439377   1.0514213   0.2247664   0.0324583  -0.1065511
   0.7669203   0.2510650  -0.0598921  -0.5153013  -0.7237739  -0.2357394
   0.1280809  -0.1326323   0.0492848  -0.5147092  -0.4994089   0.0280036
   0.7490062   0.5051107   0.9298780  -0.0121392  -0.4622564   0.1417490
  -0.1162897   0.7735720  -1.0736063  -0.5667697  -0.4373647  -0.8274223
   0.1936511  -0.0632732   0.2133624  -0.5411571   0.1869195  -1.2204315
   0.8199458   0.0782982   0.7771672   0.1148382   0.2288240  -0.0987500
   0.9945813   1.1919135  -0.5503037  -0.8149094  -0.5740292   0.0233817
   0.0226638   0.2092753   0.1301279   0.2940635  -0.5924491  -0.9723539
   0.2312078   0.0669658   1.7139320  -0.0257115   0.1402844  -0.1861996
  -0.6296264  -0.9512572   0.3644385  -0.8273215  -0.8516049   0.6846822
   0.1962493   0.3399449   0.2632061  -0.4732682  -0.0339098   0.3770009
  -0.7854966  -0.4752053  -0.7554113  -0.2288309  -0.2919805  -0.2093836
  -0.9495205   0.4347259  -0.2591112   0.1630008   0.9088497   0.3119037
  -0.0296995   0.3648440   0.0129265   1.5138551  -0.5772190  -0.6635122
  -0.3427653   0.2894230  -0.6173993  -0.2765042  -0.1073291  -0.1529591
  -1.0597203  -1.0325753   0.7048224  -0.6215336   1.4778670  -0.7867521
   0.0902112  -0.2744768  -0.1727592  -0.3224796   0.6490797   0.0986897
   0.2294498   1.4975169  -0.3097370  -0.1107101   0.1551467  -0.1798530
   0.5632606   0.1794921   0.3651547   0.6398615   0.3963375   0.2005817
   0.3629994  -0.1691869  -0.0817511   0.2833153   0.0767917  -0.3889587
   1.4314082   0.6497138  -0.5218991  -0.0700714  -0.1761401  -0.0536705
   0.6290477  -1.7517871   1.4795556  -0.1029265   0.4797060   0.2480646
  -0.3082519  -0.0739612  -0.1109274   0.4500282  -0.4890038   0.5028311
  -0.2663713  -0.9823242   1.1893245  -0.0754757  -0.4376523   0.0416348
   0.8375027  -0.0380092   0.6045479  -0.7397526  -0.0904237   0.1136400
   0.3108090   0.2416423   0.2734968   0.1953240  -0.1680335   0.2765392
  -0.2971533  -0.3119367  -0.5550318   0.0814610   0.2714293  -0.2906852
  -0.5057160   0.6634699   1.2170739   0.1209409  -1.6742976   0.1971906
  -0.0920629  -0.2813458  -0.0685823  -1.1709659   0.0620632  -0.3849584
   1.2421897   0.2587110  -0.6215935   0.1141687  -0.1204800  -0.5679487
   0.0634014   0.8331949   0.7149859   0.8066309  -0.1765559  -0.4648080
   0.1061959  -0.0698662   0.0134779   0.0167149   2.5868017  -0.3159832
   0.8302718   1.3121885  -0.2746769  -0.1303277  -0.1394570  -0.1001103
   0.0699772   0.2499793   0.8309866   1.1714370   0.0308579  -0.3451698
   0.0481124  -0.3043664  -0.0730101   0.5018109   2.0650647   0.4763033
   1.5066326   0.0829111  -0.0890678  -0.0777282   0.0525546  -0.1536936
  -0.2678731  -0.6653489   0.3241193   0.6161995   1.2868744  -1.1276181
   0.2446452   0.0977845  -0.0909592  -0.5629253  -0.1930933  -0.1810599
  -0.2649246  -0.7305070   0.0031142  -0.1717982   0.1786968  -0.1657974
  -1.0885176  -0.5337919  -0.8508858  -1.0255810   0.6788874  -0.6265255
  -0.2370334   0.1085769  -0.0026350  -0.0161849   0.2987897  -0.8593756
  -0.9090006  -0.2099933   1.4746522   0.0577928   0.0375248   0.0799676
   0.7429422  -0.8582504   1.8031468  -0.6627707   0.9652053   0.0182684
  -0.2403458   0.1176612  -0.1912243  -0.1850791   0.0960970   0.0721699
   1.6656060   0.2038040   0.2491148  -0.0835092   0.1288851  -0.0871862
  -0.7087007   1.0206217   0.9588572   1.3387428  -1.3311996   0.0994799
  -0.2234185   0.1437342   0.0586890  -1.0059088   0.7320984  -0.2622452
  -0.2692098  -0.3668785   1.6129180  -0.4638867   0.0157504  -0.1492022
  -0.8566299  -0.3787425  -0.3092511   0.0639621   1.2304719  -0.5231431
   0.1491718   0.2169363   0.0124501   0.4315029   0.6057324   0.3057782
   0.0164013   0.6925413  -0.1018362  -0.1591319  -0.0395626   0.1016503
  -0.0425180  -0.3054879   0.7801435  -0.8824991   0.3926352   0.6059167
  -0.3153198   0.1537603   0.0438951   0.4459897  -0.0301662  -0.8584599
  -0.5734237   1.3188460  -0.3078850  -0.0971746  -0.0747621  -0.0082058
   0.9437301  -0.1492375  -0.8122137   0.4359611  -1.1077137  -0.3976830
  -0.0555853  -0.4818586  -0.0669214  -0.8704748   1.0005598   1.2405540
  -0.8641846  -1.9932040  -0.4357183   0.0106982  -0.1378237   0.1299563
  -0.5191949   0.0383617  -0.1475219  -0.9724331   1.3074602   1.3006181
   0.0230966  -0.0408488   0.4077049  -1.1057377   0.8031868   0.3267300
  -0.3198964   0.1559827   0.4574129  -0.3323035  -0.5672250   0.3040982
   0.4229445   1.2876078   0.2840609   0.1275706  -1.1139487  -0.1529460
   0.0667967  -0.2052691  -0.2465868  -0.7876673   1.6298618  -0.7135473
  -0.3966640  -1.1722652   0.5619426   0.0773958   0.3124742  -0.1520974
   1.3805430  -0.7725052   0.0556429  -0.5450157   0.0636936  -0.5950114
   0.1458378  -0.3353004  -0.2169603  -1.6357716  -1.4972558   0.6732973
   1.2418444   0.2076900   0.6400143  -0.1738307   0.2316898  -0.1156385
  -1.3456230  -0.2193982  -0.0619326  -0.1473922   1.2978020  -1.5689188
   0.0667859  -0.2005360   0.1296555  -0.1280664  -0.5577326   0.1695043
   1.1166565   0.1620802   0.2232461   0.2604170   0.2550673   0.0878623
  -0.2237941   2.1892089   0.5811317   0.1448285   0.1903312  -0.0109706
  -0.4068434   0.1612755  -0.1905792  -0.0448064   0.2676302   0.3100134
   0.1427415   0.6501029   1.1906524  -0.2598624  -0.1077619   0.1849300
   0.0325546   0.5245133  -0.0463387  -1.2107230  -0.6848827  -0.9249233
  -0.0657199  -0.1104638   0.0999912  -0.1426640  -0.4436518  -1.1590262
  -0.6485430  -0.9650866  -0.1523476  -0.2945686   0.2943023  -0.2592396
  -0.4919953  -0.5447943  -0.1944924  -0.0713652   1.2454055  -0.8633526
   0.2452873   0.0146465  -0.2000232  -0.4945981  -0.5644214  -1.0869104
   0.6354348  -0.7358727  -1.9680688   0.1565869  -0.1978209   0.3930104
  -0.5938259   0.4030204   0.2843139  -0.5008750  -1.6078126   0.9728849
   0.1448051   0.2488979   0.0973111  -0.3566179   0.8349884  -1.4116744
  -0.2167191  -1.2807087  -0.8585437  -0.0435955   0.0901691  -0.0278163
  -0.0794277   0.1908451  -0.1754855   0.4107931  -0.4041044   1.0702765
   0.0953899  -0.2167318   0.0493186   1.2073145  -0.5256720  -0.7698384
   0.1843792   2.0649768  -0.2889789   0.1343944  -0.1723573  -0.0183985
   0.8433879  -0.9197987  -0.3164186   0.0327094   0.6990930  -0.1271361
  -0.0421667   0.3829159  -0.0764744   0.8783490   0.3117003   1.6021859
   0.2531674   0.7257277   0.7605227   0.0299973   0.2687053   0.2609241
  -1.0703640  -0.1068447  -0.3796528   0.2112611  -0.0047678  -0.1316965
  -0.1508775   0.0716069  -0.2229440  -0.2518426   0.9333260   0.7804048
   0.0255058  -0.6908156  -0.4920243   0.2330062  -0.0247982  -0.0629840
   0.2524560  -0.0468234   0.0407473  -1.3929241  -1.1209055  -0.2878883
   0.0486623  -0.0426562  -0.0937948   0.9960572   0.0647699  -0.5146129
   1.9123532  -0.5922233   0.8780041   0.1330905  -0.0555135  -0.1204097
  -0.1670121  -0.7443298  -0.3686165  -0.2028935   1.4807725   0.9697420
  -0.1929504   0.0342233  -0.0046688  -0.1809263  -1.0436505   0.2817091
  -1.5359810   1.5121359   1.3422797  -0.1624858  -0.1931882  -0.1215595
  -0.0759793  -0.3850098  -0.7125121  -0.9242600  -1.7373898  -1.3774649
   0.1495593   0.2658106  -0.0453867   0.3298152   1.4593953  -0.1883513
   0.3786038  -0.2883336   0.0528453   0.1339211   0.2098765   0.0544959
  -1.5100487   0.5299961  -0.7229513  -0.7447528  -0.6689091   2.0832071
  -0.1876648  -0.1162737   0.0979055  -0.1916754   0.9613788  -0.2167424
  -1.1154795  -1.1304569   0.5621255  -0.1063464   0.1422687   0.0103555
   0.5068165   0.8189602   0.9245003   0.0766407  -0.5507385   0.7142360
  -0.1243894  -0.0925217   0.1265714  -0.7364814   0.4458529   0.7217223
   0.6483702  -1.0577966  -0.5285644  -0.3847718   0.0860909   0.3354746
  -0.2589671   1.2177457  -0.5904609  -1.1502618   0.4179487   1.0982345
  -0.0088818   0.2635170  -0.0548277  -0.1409488   0.5155627   0.9246542
  -1.0551221   0.0266285  -0.5673671  -0.0753851   0.1203741  -0.2296108
   1.5387700   0.1078260  -0.0401559   0.9061411   0.7491276  -0.0601506
   0.0170838   0.2111788   0.2123849   1.0852400   0.4013373  -1.1555790
  -0.0994606   0.4994140  -0.8385408   0.1256836   0.1261457  -0.0385376
  -1.2879074  -1.9965056  -0.9996188  -0.1757747   2.0110430   1.4386919
  -0.1536950  -0.1667096  -0.0724217  -1.1344570  -0.4246950  -1.4154725
   0.5716950  -1.2224185   0.4983900  -0.1417721  -0.0242621  -0.2946103
  -0.1745688  -0.4913999  -0.1107190   0.3029750   0.2312559   0.1000798
   0.1779695   0.1727223  -0.0346469  -1.5458357  -1.4029485  -0.1138964
  -0.3745642   1.0293602   1.9331110  -0.0111576   0.1894249   0.2248266
   0.6862473  -0.8370734   2.0145346  -0.0364688   0.4993734  -0.9683244
  -0.1514473   0.2177062  -0.1930664   0.0333598  -0.8207399   0.6278075
  -0.1560454   0.1150149  -0.6486244   0.1197597  -0.1485493   0.1873758
   0.7786719   1.4542405  -0.2890300  -0.2644854   1.4122527   1.4119431
  -0.1289100   0.0638661   0.0056480  -0.0306067  -0.1391907   0.5183611
   0.4529310   0.4679537  -0.1010825  -0.0308430  -0.0281548  -0.3092224
   0.1138210   0.0915085   0.7712618  -0.7260807  -0.0944455   0.4486299
   0.0036666   0.3322502   0.1072639  -0.0165860   0.5352910   0.1957881
  -0.8313007   0.5185672  -1.2007816   0.0496442  -0.2889160   0.1660590
   0.4508459  -0.1973324   0.9021659  -0.2625508  -0.5899531  -1.2346472
   0.2704288   0.1772809  -0.0906383  -0.8070612  -1.3530146   0.3675898
  -0.6394670  -0.2628786  -0.7751859  -0.2079063  -0.0313477   0.1327032
   1.1127929  -0.3138015  -0.1862130  -0.1025561  -0.2144865   1.0478756
   0.1166872  -0.0298020  -0.3337739  -0.3370673   0.9677302  -0.0331871
   0.1638220  -0.5003247  -1.6509246  -0.2808373  -0.4682509  -0.0876821
  -0.5019623  -0.4869930  -0.1146959  -1.0993737  -0.4901309   1.2867687
  -0.1449619  -0.0875513  -0.0790960   1.3248843  -0.4801566  -0.5063593
   1.1848701  -0.0593114  -0.1428297   0.1226147   0.0453678   0.1000997
  -1.0523433   0.1065689   0.8150297  -0.1113697  -0.1649138  -0.7703061
  -0.1034520   0.5137581   0.1497722   0.0191568   0.4648472   0.2659643
  -0.0225070  -0.2116682  -0.4873081  -0.0088296  -0.0407276  -0.1694462
   0.1597288   1.0654568   2.0674815  -0.7227691   0.9192131  -0.2368295
  -0.1103829  -0.0546006  -0.3001664  -1.0758556  -0.1567426   0.0616676
   0.1442441  -0.5963686  -0.4491004   0.0193671   0.1910650  -0.2362210
  -0.4920077  -0.4675427   0.1281906   0.4797080   0.2130031  -0.0330956
  -0.0065234   0.3239319  -0.1916196  -0.1083836   0.2185404  -0.7432461
   0.1388154   1.6136709  -0.3222052  -0.0050298   0.0038122  -0.1004172
  -0.8369591  -0.0432242  -1.0230619  -0.7086099  -1.1126094  -0.3328348
   0.2711296  -0.2870528  -0.1614952  -1.9973906   0.7629558  -0.2467893
   0.6506705  -0.4105050  -0.1464968  -0.1357586   0.0566942  -0.0323911
   0.0324689   0.1376551   0.8750308  -0.2529840  -0.6579288  -0.4609551
  -0.1159901   0.0045308  -0.0971065   0.4094201  -0.1415369  -1.5710703
  -0.4023019   0.5432723  -0.6259456   0.2435172  -0.2301703   0.1393947
  -0.9340022   0.5767524   0.2890047   0.1428558  -0.5374984  -1.0034264
  -0.0876773  -0.0752245  -0.0441504  -0.2516894  -1.2360063   0.1617011
   0.3725817   0.5891284   0.8277378  -0.5376461  -0.3166542  -0.2379471
  -0.4212096   0.4117902  -1.2478782   0.0654878   0.4919717   1.0793154
  -0.0988547   0.0769755   0.0609890   0.3913686  -0.7636992   0.0542351
   0.3430135  -0.9273787  -1.4616779   0.0149680   0.2564461   0.2213681
   1.3897322   1.0009499   0.1238696  -1.1211282  -1.5475629  -0.5213471
  -0.2605341  -0.0910597   0.2317233   0.7008296   0.3660870   0.5677844
  -0.4194259   0.8650245   0.1474243  -0.1208773   0.0156637  -0.0741643
  -1.1531695   1.0219021   0.1493474   0.7726387  -0.0463092  -1.0050768
  -0.0880314  -0.2551372  -0.2214500  -0.7829400   1.8299407   0.7940396
  -0.4886875   0.5039928  -0.1279373  -0.1080485   0.0966898  -0.0764848
   0.5123871  -1.0277702   0.7303219  -0.6090232  -0.6152867   0.0642054
   0.1861240  -0.1397993   0.0884168  -1.4830327  -0.1819675   0.1017414
   1.0449170  -0.2440263   0.7924915   0.1131912   0.3614934   0.0629233
   1.3830906  -0.2598873  -0.0382873   0.4585103   0.2048132  -1.7166023
  -0.1566947  -0.2936499  -0.1243765   0.0085238   0.4807649  -1.1447875
  -1.7160622  -1.4047747   0.9123078   0.0078034  -0.1714136  -0.1238486
  -1.2338881  -0.1559916  -0.8278013  -1.1515907  -0.8053271   1.0113830
   0.0228068  -0.2463049  -0.1268206   1.3693338   1.1710247  -0.1926026
   0.4731579   1.0544050   0.6759126   0.1450772   0.0627996  -0.0218370
  -0.8830923   0.8408691   1.3098860   1.2416763  -0.6407961  -0.2890811
   0.0940257   0.0180785  -0.0996249   0.5853292  -0.2161907   0.6802185
  -0.4322790   1.5369226   0.3467768  -0.0893564  -0.1111791   0.1112336
  -0.6283722   0.2842324   0.7603132   1.0485825   0.4495369  -0.4211200
  -0.0310877   0.0230582  -0.1544606   1.0774801   0.7600965  -0.1665474
   1.0546083   0.7871684  -0.0504389   0.2166274   0.0082783   0.0175879
  -0.8394162  -0.0461966  -0.2626330   0.2356898  -0.9332293  -0.6897466
  -0.0337652   0.0541272  -0.1363416  -0.7525508   0.7048025  -1.3815442
  -1.3287695  -0.9345457   1.2243015  -0.2178219  -0.1546817   0.1591538
   0.9862607   1.0540060   0.1778787   0.1815651   0.2580873   1.1592015
   0.2196879   0.3166306  -0.0044766   1.1441417   0.2204232  -1.0123990
  -0.6797947   1.7017852   1.8185029   0.4012613   0.0158926   0.0471665
   0.3215606   1.3920686  -1.0395353   0.1069925  -0.0629169   0.9026958
  -0.0602529   0.1345126  -0.4096263   1.3652230  -0.7263368  -1.3815021
  -0.1563493   0.8490261  -1.0653832   0.0455244  -0.0722435  -0.2864112
   0.7379496  -0.3068763   0.7340744  -1.5535850   0.8634550   0.3160453
   0.0243027  -0.2485652  -0.0045610   0.0592554  -0.8630153   0.4694672
   0.8058758  -0.0613542  -0.0435326  -0.0437825   0.0517224   0.1209718
   0.1757871   0.2710930   1.5564546   1.2808963  -0.0223426   1.4271055
  -0.2910451  -0.2072081   0.0392768  -0.1331380  -0.5931012   1.1001246
  -0.1680239  -1.5204604  -1.4933801   0.2261405   0.1577128   0.0134643
  -0.8377146   1.5084418  -0.2885423   0.1377535   0.5280170  -0.0153641
  -0.2447782  -0.1719426   0.2961904   0.1801876  -0.1713364  -0.8954672
   0.0673955   0.6380572  -1.8684670   0.1581012  -0.1083693   0.0978214
  -0.1300568   1.3223486   0.7886871   0.9952533   0.7734193   0.5635416
   0.3362248  -0.0719302   0.2072636   0.2929931   1.7159728   0.0493690
   0.4744882   0.2092159   1.9262022   0.1880369   0.0618841  -0.0804284
   0.1608691  -0.6677441   0.5175563   0.2429738   0.5955469  -0.1300592
  -0.2493644   0.1126699  -0.1853109  -1.2543217   0.4257913   1.2361045
  -0.6337231   0.4965307   1.7197756  -0.0395977   0.1690480  -0.0500894
  -0.5172286   1.1800394  -0.3598022   1.1133736  -0.2181161  -0.9582318
  -0.0452692   0.0362584   0.4587767  -1.5943267   0.5833855  -0.2454795
  -0.4738510  -0.1519897   0.5135857   0.0371950  -0.1296103  -0.5133963
   0.3674904  -0.5051711   0.6111250   0.3849834  -0.4915001   1.3675483
  -0.2827853   0.0151664   0.1153071   0.1532653  -0.0365796  -0.5257713
   0.5658011   0.6039457   0.1142152  -0.4664916  -0.3862009   0.1180543
  -0.0128085  -0.2248733  -0.2011602  -0.6630861   0.1574563   0.4062155
   0.0675007  -0.2170393  -0.0844751   0.0113753   0.7588685   0.5849156
  -0.6524244   1.1412550   1.1963715  -0.0709068   0.0066935   0.0209464
  -0.0652602   0.5338139  -0.0200748  -1.0291576   0.3337043  -0.6886071
   0.1735583   0.3236559   0.0130473   0.2685689  -0.9057216   0.9884248
  -0.9373972   0.1394908   0.1360803  -0.2842200  -0.1910456  -0.2061293
   0.0716283   0.3813482   1.2835845  -0.1713874  -0.6634735  -0.7865225
   0.0313309   0.3220803   0.1141842  -0.1972416  -0.2073034   0.4333824
   0.1997946  -0.3159794  -0.5766686   0.0107910   0.0399535   0.1061455
   0.7363926   0.0537594  -0.8923210   1.4945394  -0.2424629   0.7161005
   0.3436066  -0.2425811  -0.0547629   0.2162302  -0.3899452  -0.7710805
  -0.3640841  -0.4114798  -0.6685815  -0.1746276  -0.4610350   0.1849809
   1.3000374   0.0204548   0.1999117   0.5371229   1.2149063   0.8538709
  -0.0515116  -0.0134579   0.2170097   0.1336267  -0.5982817   0.8797998
  -0.2388459  -1.5506769  -0.1619597  -0.0394690  -0.0356860   0.1457373
   0.9598539   0.9735173   0.1558381  -0.4473435  -0.1252349  -0.2475168
   0.0534450  -0.1952185  -0.1140058  -0.8704475   0.1532065   0.5151319
  -0.1399561   0.2733351  -0.1976945   0.0478332   0.0857210  -0.2402346
  -0.6005145   1.2736325   1.8775423  -0.0961640  -0.4354672  -1.1724150
  -0.2770077  -0.1439283  -0.1228578   1.4794745  -0.7238110  -0.5066350
   0.3621761   0.4753648  -0.2104565   0.1529317   0.2748895  -0.3130165
   1.3471409   0.0380335  -0.8059425  -0.7298069  -0.2058944   0.5895014
  -0.3486990   0.0085749  -0.2034014  -0.5611786   0.8343396   0.1184627
  -0.8274889  -0.5909907   0.3769811  -0.0716779   0.0696360   0.1066800
  -0.0842533  -0.2981572   0.3967139   0.7019068   1.1601952  -0.0874508
   0.1216281   0.0529695  -0.2500802  -0.6030027   0.3187198   0.2899369
   0.5113375   0.6750341  -0.6341825   0.2636564   0.1270492  -0.0082433
  -0.4158179   0.5057056  -0.9662846   0.5255466  -0.0752937   1.1273342
   0.0788767  -0.1216754  -0.0947604   0.0697038  -1.2125468  -0.4263438
  -0.0546646   1.6900485   1.0988794   0.1131189  -0.0596978   0.0217993
   0.3847976  -1.5177140   0.4508913   1.4119117  -1.0523095  -0.5440274
   0.2870485   0.2591079  -0.2224443   0.5859749   0.4072924  -0.2216418
  -0.0197359  -0.1845449  -0.4176538  -0.1301674  -0.1146865   0.0202226
   0.3701136  -0.4920514   0.9672218  -0.9058463   0.5898968  -0.7753535
   0.1286741  -0.2801784  -0.0643557   0.4880214  -0.1213089  -0.5634644
   0.4055723  -0.9637576  -0.3481345  -0.0046813   0.0304630   0.0707415
   1.0796403   0.9310963   0.2334651  -0.2959196   1.0882892  -0.1999542
   0.0244630   0.0382463  -0.1074905   0.5745099   0.8762465   0.6581442
  -0.0547833   0.0377977  -1.4440380   0.0597595   0.1057223   0.1501233
  -0.2607711  -1.1029235  -0.2146526   0.0668992   0.2469455  -0.4546577
  -0.1910672   0.0124526   0.1051983   0.6052578   0.8212307   0.5062412
  -0.2220139   0.9202953   0.6836182   0.1133564   0.0480602  -0.0866091
  -0.6110260  -0.4975120  -0.1218984  -1.4488398  -0.9794313   2.2588931
   0.0194940  -0.2205635   0.3357710  -0.0549259  -0.6345908  -0.2756209
  -0.4496684  -0.7188770   0.3363555   0.1755020   0.2913996   0.0374880
   1.4750373   0.6919174   0.1264864  -0.6303419   0.3107127  -0.5582195
   0.2250824  -0.3193678  -0.0746381  -1.2282887   1.6067725  -0.5211349
  -0.1348664  -0.9940661   0.4408767   0.0677580  -0.2313343  -0.2773478
  -0.2409602  -0.0944906   0.3171595  -0.3645453   0.2604512   0.8218279
   0.0719922  -0.1938603  -0.3341648   0.3908507   0.4083642   0.7256661
   0.9858722   2.3841864  -0.4891591  -0.1359060   0.2664973   0.2019280
  -0.0646830  -1.7751662   0.3321159   1.2798800  -1.9093539   0.6968852
   0.3565213  -0.2583949  -0.1339474  -1.6575984  -0.4127804  -0.6389517
   0.6126055  -1.0435253  -0.4112790   0.1926160  -0.1328851  -0.1257923
   0.6928111   0.2657691  -0.2640717   0.4216806  -1.5036456  -0.7591065
  -0.0752339  -0.0393026   0.0928327  -0.1136736  -0.6464055  -0.3891808
  -0.0722536  -0.3004315   0.9923569  -0.2689902   0.1442298  -0.2638045
  -0.0789861  -0.3396116  -0.5368575  -0.8731175  -0.4887341   1.2141523
   0.3301749   0.2132224  -0.1086195   0.1671848  -0.2224791  -0.6951454
  -1.1749222   1.2353539  -0.1148039  -0.0741126  -0.1371526  -0.3123873
   0.2472523  -1.0110244  -0.4731812   0.6507069  -0.9263736   0.0568148
   0.0642699  -0.0425800   0.1681433  -0.6586502  -0.2030817  -0.2891983
   0.1399248   0.9327964  -0.4352019  -0.4772767   0.0544586   0.1156887
  -0.7489173  -1.1118036  -0.4804804   0.2660541  -0.6925128   0.5051671
  -0.0106343   0.1930695  -0.1600385  -0.0205053   2.7856816   1.2483323
  -0.2191698  -1.5189885   0.0123381   0.1133077   0.0637402  -0.0839131
  -0.3932082   0.8635411   0.2166933   1.3441364  -1.7591911  -1.3770347
   0.0895435  -0.1151885  -0.0456245   0.5220749  -0.4085321   0.5459441
   0.5029312  -0.4352339  -0.2676034  -0.2315089  -0.0832592  -0.0955638
   0.0933633   0.8650074   0.2782450  -0.6760354   0.0395918   1.9530065
  -0.1387822  -0.4621462   0.1230967   0.6770630  -0.9312558   0.6760401
   0.3468288   1.0723037   0.9023417  -0.0440686  -0.3532698   0.1189808
   0.4239242  -0.4973764   0.6452693  -0.7964170  -0.1128807   1.4577243
  -0.2311100  -0.0072444  -0.0213464   0.5448472   0.3965405   0.4455756
  -0.7288837  -0.1398998   1.1229574   0.0859237   0.0394687  -0.0095583
  -1.3935503   0.7881166  -0.0922494  -0.7363078   0.2887793  -0.5558147
  -0.1573936   0.1631323  -0.1954579  -0.5847528   0.8915075  -1.2386170
   0.1279349   0.9985075   0.2815612   0.3400032   0.3541644  -0.2310647
   0.6582719  -0.8044263  -0.2491093   0.6988610  -0.2492495   0.6135190
  -0.2390700   0.3058703  -0.0681954  -0.3579862  -0.6621699  -1.1326666
   0.9187634   0.6155995   0.1865275   0.2915752  -0.2723368  -0.2007623
  -0.7316978  -1.7786194  -0.1304837   0.6282253   0.4503122   0.2424543
   0.4105629  -0.1636903  -0.2417696  -0.1725324  -0.2913646  -0.5274504
  -1.4955935   1.0878875   1.0240814  -0.0077452   0.0728006  -0.1523341
  -0.4943946  -0.9663988   1.2380403   0.0133098   0.0596250   0.3965346
  -0.3101061  -0.0125323   0.2068213   0.4779198  -0.5731922  -1.0983458
  -1.3766790  -0.3197909   0.5290841   0.1654951   0.1235028   0.0111790
  -2.4673634  -0.2649292   0.0095630   1.9792576   0.2786899   0.2134784
  -0.1045517   0.0892043   0.1701672   0.2936759   0.5325934  -1.0113577
   0.1359593   1.1492292   0.8315908   0.0149510  -0.0814403  -0.1226310
  -0.3573636   2.2853332   0.9339002   0.3363962   0.0042557  -0.3815168
  -0.0640528  -0.0938581   0.0911388   0.1963724   0.1678962   0.2797912
  -0.3588669   0.9820594  -0.7937948  -0.3434126  -0.2844349   0.1147394
   0.9174305  -0.2309076   0.7251032   0.8674492   0.3109380  -0.1978797
  -0.1572139  -0.2990217  -0.2547344  -0.4644594  -0.7080546   1.2411190
   0.2935274  -1.3800561  -0.8763202   0.1237863  -0.0982498  -0.2882226
  -0.3298233  -0.5764393  -0.9924694   0.0597375   1.7000664  -0.4077803
   0.3801732   0.2524045   0.0203773  -1.3598374   0.7491466   0.3649842
  -0.0601868  -0.3280645   0.1089667   0.0781033  -0.2420491  -0.0926665
  -0.0324885   0.0336271  -0.4006306  -0.6006599  -0.1102613   0.7841974
  -0.0297876   0.0708581  -0.1106112  -0.8011318   0.2148669   0.1017681
  -0.2336876  -0.2609130  -0.3780298   0.0168967  -0.2620041  -0.0816126
   1.3398996   0.7144670   1.3726146   0.8466928  -0.6018347   0.5377710
   0.1908339   0.0565446  -0.1149594  -0.5397400   1.1399072  -0.7449775
   0.1490629  -0.6333136   0.7907777  -0.0777033   0.0125959   0.3062113
  -1.0834381  -1.1201808   0.7045568   0.0937825  -0.1717528  -0.5168735
  -0.1080772  -0.1266517  -0.0724513   0.3935632   0.0805405   0.1108012
   0.0234621  -0.9351238  -1.5305800  -0.0766549   0.0363515   0.1943929
   1.6103563   0.7527491  -0.8507290   0.1944241  -0.2271629  -0.0388589
  -0.0671748  -0.2793938  -0.2328483  -0.7340896   0.8339599   1.9147835
  -1.7268498   0.4590102  -0.6547127  -0.1091381  -0.0029265  -0.0445665
  -0.7607514  -0.0972633   0.1916771   0.4509142  -0.1089965   0.1468389
  -0.2192973   0.4023009   0.0151906  -1.4386456   0.0714828  -0.7020721
   0.0713296  -0.4012823   0.6436480  -0.1312336   0.0158128  -0.0038033
   0.9358606   1.1266460   0.8328785  -0.2310354   1.4469569  -0.8426061
  -0.0723835   0.2637382  -0.2971197  -0.1036872   1.8884895   0.0272756
  -0.2001970  -0.3704435   0.0790229   0.0675988  -0.0351479   0.0273107
  -1.1471130   0.4516390   0.0501899   0.8543904   0.3573850  -1.3544818
  -0.1479977  -0.1078469  -0.0061381  -0.2147867  -0.1282028   0.3119735
  -0.1671190  -0.3076625   0.8152073   0.2557058  -0.0889483   0.0300836
  -0.5131457   0.4992624   0.7816357   0.5614158  -0.1698822  -0.5129982
  -0.0311176  -0.0748771   0.1042432   0.6694518   0.2862110  -0.6089324
   0.9701776  -0.1053092  -0.6159553   0.0813847  -0.3056868   0.4198455
   0.7122858   0.9481259  -0.0632595   0.9396988   1.1204232   0.7324708
  -0.2601765   0.0321038  -0.2326119  -0.6933905  -0.2474593   1.0243428
   0.3484524  -0.1315831   1.0482306  -0.1758392   0.0425343  -0.1873968
   0.0759871   0.3037599  -0.5891714   0.5349628   0.2953252  -0.8897439
  -0.3176847   0.1078170  -0.2849992  -0.3390886   1.6875913  -0.0333522
   0.7477636  -1.0586409  -0.0616511   0.1055210   0.1165058  -0.0394024
  -0.8826885   0.2796529  -0.8620719   0.6981388   0.7193863   0.6401416
   0.1496821  -0.0441191  -0.0823791   0.3969945  -0.9044584   0.6932931
  -1.4537608   0.8925631  -0.9421281  -0.3120810   0.0086077   0.0192645
   0.9148359   0.1767592   1.2239715  -0.0259627   1.1009670   0.0834834
   0.1255276   0.2776209  -0.0976119  -0.3352114   0.0423364   0.7132062
  -0.3925857   0.1870647  -1.3488439  -0.0303307  -0.1038485   0.3035357
  -0.8145035  -0.5578033  -0.2686167   0.0894167   0.4378074  -0.3879198
   0.3114139   0.2495607   0.0436419   1.3527843  -0.6781207   0.5607194
   0.4545451  -0.7914033  -0.2470989  -0.4245569   0.0960839  -0.0925387
  -0.5831267  -0.5279978  -1.1154454   0.1206202   1.0245624   0.0334130
   0.1786565  -0.0012416  -0.5703092   1.9383936   1.1199615   0.5120755
   0.3827551   0.1422122  -0.5052817   0.2496016   0.0573721  -0.0430354
  -0.2368519   1.1971340  -0.2503341   0.4407193   0.3475902   0.5545812
   0.0541439   0.1697518   0.1872607   0.6585432  -0.0478023   1.3435751
  -0.3771504  -0.9203861   0.2084200  -0.0372582   0.0286097   0.3253682
  -1.2838082   0.1286750   0.7097676  -0.9597936  -0.4604686   0.0947833
  -0.2042358  -0.2622845  -0.0488739   0.2976983   0.5212053   0.2091946
   0.3206470  -0.9432208   0.0141796   0.0792323  -0.1855149  -0.2066619
  -0.7783942  -0.5075118   0.0141831   0.6436716  -1.8481201   1.7281640
  -0.1124153   0.3136933   0.0158936   1.8955074  -0.9009628   0.4208146
  -1.1799675   0.4823030   0.8207441   0.1238351  -0.0899294   0.1547218
   0.2141626   1.1915151  -0.0109052  -1.0165476  -0.3976057   0.6735476
  -0.1601144  -0.1279933  -0.0102164   0.4389797   0.4572877   0.2678761
  -0.3821875   0.9021001   0.8487628   0.1563518  -0.0679761  -0.3058183
   0.1401741  -1.0071311  -0.8688811   0.6394179   0.8316368  -0.4978942
  -0.1286571   0.0651753  -0.3437376   1.0492588   0.5106678  -0.9366539
   0.2643501  -1.0424315  -0.2846527  -0.0418415  -0.0610986   0.1014608
   0.0175686  -0.0043255   2.1815686  -0.2459941  -1.5180239  -0.9196238
   0.2990388  -0.0383791   0.0372370   0.5665702   0.2142089  -0.6380892
   0.0413144   0.5853491  -0.9442856   0.0003366   0.0931878  -0.0665856
   0.3573621  -0.5365257  -0.5283264  -0.8712113  -0.9560847  -0.1141766
   0.1553821   0.1764098   0.3023232  -0.3297614  -0.0321101   1.0168843
   1.0226055  -0.0688341   1.2606701  -0.2063672   0.1279005  -0.0270833
   1.2846343   0.2273771   0.3855926   0.4535418  -0.6490029   0.4268156
   0.0468104   0.0586529  -0.1366835   0.8094719  -0.4965574  -0.1749958
  -0.5928731   0.6272012   0.4321123   0.0233016  -0.0662498  -0.3104358
  -0.1597079  -0.4456919  -0.7266009  -1.6829347  -0.5412156   0.1710563
   0.1072854   0.1984929   0.1175150  -0.0866739  -0.0703150  -0.6563319
  -1.0859771  -0.1883531  -0.9760748   0.1260707  -0.1085157  -0.1552995
   0.3082609  -0.0606515   0.0767787   0.7007864   1.1475270   0.3116469
  -0.4481139   0.0954455  -0.0231292   0.1853992  -0.4566192  -0.3142837
  -0.0148688   1.0219603   0.5914908   0.2101659  -0.0954828  -0.3393642
   0.5389250   1.8715679   0.0715532  -1.3200856  -0.7075183   0.1892303
   0.2550988  -0.0424517  -0.4149703   0.0041354   0.3959286   2.0954843
  -0.4710179   0.3027939  -1.7611230   0.1282605  -0.1115767   0.3566803
   0.7356872   0.3846346  -0.3670360   0.5884183  -0.8692259   0.2541764
   0.0590220   0.2149778   0.0882326   0.0108455   0.8431818   0.1081270
   1.3675809  -1.2092118   0.3430609   0.0336525  -0.2813156   0.0631523
  -0.9193553   0.3264124  -0.0404112  -0.2526816  -0.7117905  -0.5266705
  -0.3715792  -0.3209549  -0.0226758   0.5927150   0.0722958   0.2518475
  -0.4871960   0.9890194  -0.2511918  -0.0004582  -0.0502432  -0.1987171
   1.0393032   0.2276769   0.5593943   0.9099506   0.9371926   0.0517332
  -0.2313925  -0.1793340   0.0914021  -0.2099868  -0.1654153   0.8436932
  -0.3185790  -0.4767312   0.2156967   0.0346217  -0.1091248   0.2716287
   0.2852898  -1.0675625  -0.7172015   0.1635074   0.2669629   0.0965332
  -0.1826473  -0.1548858   0.0734225   0.1750029   0.1784286   0.2457627
   0.0175672   0.2409024   0.4818441  -0.0808919   0.0634614  -0.3997564
   0.9925850  -0.1106720  -1.3009241  -0.3577232   0.4161325   0.0371791
  -0.1851444   0.1869757   0.2517951  -1.1640447   0.3874752   0.9707725
  -0.6918504  -0.2588246  -0.0464554   0.0780870   0.0978972  -0.3129369
   0.4209513   0.4265470  -0.9960550  -1.3477966  -1.9139570   1.1517770
   0.0074306  -0.1582489  -0.1067335  -0.4589764   0.5990111   0.4413979
   0.8332826  -0.0759220   0.7300423   0.1151932   0.1123336   0.3676857
  -0.6272153  -0.0139991   0.6551343  -1.0494306   0.5122432  -1.1001783
  -0.1155960  -0.1660543  -0.0345535  -0.3622420  -0.1096419  -0.8765904
  -1.1809765  -0.0733660  -0.3680249  -0.2511516   0.1956658   0.0192907
  -1.1954745   0.1623698   0.8024335  -0.0823269   0.1783946  -1.1684808
   0.0049393   0.2191666  -0.2998176   1.0932064   1.1350684  -0.5989932
   0.1695836  -0.4233419   1.3305025   0.3370711  -0.0807343   0.0206939
   0.2313253  -0.0061827   0.3787518   0.3912575  -0.6496774   0.1013469
  -0.2301891  -0.1349755  -0.0624784   0.6707578   0.0434922  -1.0820894
  -0.3433138   0.8076372  -0.5274435  -0.1335267  -0.0575730   0.1925670
  -0.5386973  -0.5146441   1.3170746  -0.4738807   0.1683106  -0.7844702
   0.0441429  -0.1493428  -0.1645118   0.3689544  -0.8789845   0.7983856
  -0.6860909   0.2122197  -0.4300963  -0.0783823   0.0073617   0.1852245
   0.2883424  -0.0398197   0.0426146   0.7321171   0.8541543   1.2056817
  -0.1135193   0.1822967  -0.2184339  -0.4469365   0.0109526  -0.0940457
   0.3671354  -0.5714727   0.0431171   0.0109431   0.1988223   0.0762916
   0.0161220  -0.4799528   0.7281245   0.2130684  -1.3453311   0.4455444
  -0.1207837  -0.0585640   0.1297813   0.0074115  -1.2835657   0.0984401
  -0.8816793  -0.2934096  -0.8000805  -0.0458867  -0.1281812   0.2794076
  -0.2024318   0.5423417   1.2392625  -0.0070428  -0.2374878   0.6228862
   0.0282102  -0.2217820  -0.2243055  -0.2992102  -0.5279825  -0.5644668
  -0.8625365   1.3203084   0.2598353   0.0203822   0.2018787   0.0795325
   0.0594861  -1.7162209   0.2736150  -0.3984786  -1.6692313  -0.1994040
  -0.2382104  -0.2825140   0.2049550  -0.3288205   0.4185066   0.6423986
   0.3095822  -0.2964324  -0.1556253   0.0282994  -0.2306708  -0.1439682
   1.5127987   0.6404031   1.4691595  -0.0397653  -0.4870221   0.9215663
   0.3416947   0.1389167   0.2776378   0.7654079  -0.1909673  -0.3925072
  -0.3145831   1.1537449  -0.2373008   0.1742340   0.1461505   0.2032222
  -0.6202309   0.8495333  -2.1037052  -0.5452495   1.0686840  -0.6259812
  -0.0083809   0.1205322  -0.0324552   0.6128601   0.1297415  -0.5384232
  -0.3402968   1.6510479   0.7726322   0.0599666  -0.1722644   0.0459638
   0.4699321  -0.9434046  -0.5950525  -0.7599897   0.3137091  -1.2119212
  -0.0471429   0.1359014   0.2463423   0.3390839  -0.5808716  -0.8518377
  -0.0749041   0.2112572   0.9449342  -0.1200670  -0.3817298  -0.1350628
  -0.1451593  -0.6785116  -0.1040650  -0.2430657   0.5846325   0.4749893
   0.0035520   0.0177941  -0.2805075   0.0588503   1.6346621  -0.3296485
  -0.4021831   0.3939392  -1.2748556  -0.0205789  -0.0355059   0.1629955
   0.8551616  -1.7853585   1.1362778  -1.4806856   0.2367170   0.4753491
   0.0781540  -0.0455112   0.3016150   1.8405795   0.8469667   0.4751006
  -0.4245634   0.2427837  -0.7256737   0.1457597  -0.0439938  -0.2550468
  -0.3181979   0.6496422  -0.5620777   0.7905374  -1.2694344  -0.0991555
  -0.2765046   0.0503016   0.0667108  -0.8957754   0.6569510  -1.3668371
   0.2021885  -1.4131814  -0.0557477   0.0847098   0.0321405   0.0250547
  -0.9140351   0.3316274   0.1196653   0.1121214   0.0750695   0.3608468
  -0.1639493   0.2370185  -0.0425451  -0.9697116  -0.3571045  -0.2671121
  -0.3282764  -0.3862983   0.2708537  -0.0348646  -0.0985934  -0.2062294
  -0.3279718   1.9356306  -0.3695791   1.0409167   0.2048866  -1.4962024
  -0.3627378  -0.0668708  -0.1747595   1.2315599   0.3707472  -0.4596814
  -0.8653134  -0.5267048  -0.4700173  -0.0104727   0.1631455   0.0088274
  -0.1995966  -0.3620677  -0.1050120  -0.0315737   1.0593992  -1.7839600
  -0.2395701  -0.2132196  -0.4046900   0.3876055  -0.1507567   0.1729020
  -0.0076716   1.6552578  -0.6288331   0.0592142   0.0998164   0.1586042
   0.9568393   0.1721857  -0.0274241  -0.4124399  -0.1089332  -0.5354135
   0.0605576  -0.0129159  -0.2175776  -0.1925631   1.5083884   0.7261835
   0.5901590   0.1514616  -0.5810147  -0.3324571   0.0977893   0.0907561
   0.2413541   0.3858122  -0.4818762  -1.3424583   0.5479380  -0.9766717
  -0.1919958   0.4356297   0.1544880  -0.2149910  -2.3914273   0.9686494
  -0.7308144  -0.2589078   0.3479963  -0.0885409   0.1623400  -0.2776183
  -0.9772904   0.1041283  -0.0182229   0.0962065  -1.0383266  -0.0074826
  -0.0642656  -0.0476330  -0.1240609   0.8369566  -0.4261562   0.5741885
   0.0111120   0.0925199   0.5694043   0.1924065  -0.1106644  -0.1904254
   0.3372041  -0.6038950  -0.4731258  -1.4107187  -0.5117365  -0.3229897
  -0.2326143   0.0054211  -0.1840926   0.3159205  -1.2084410  -0.2909963
  -0.3879381   0.1183444   1.9717263  -0.1966403  -0.0309472  -0.0937898
  -0.0705766  -0.1314704  -0.3098667   0.4928624  -0.1556471   0.2863050
  -0.0438861  -0.0807756  -0.1687117   0.3652473   0.7164944   2.2528683
  -1.5785288  -0.3725560   0.0483542   0.2709926  -0.0389063  -0.1348017
  -0.0829873  -2.0579288  -1.1954109   0.2640234  -0.2673161   0.1753897
  -0.3489214   0.2079926  -0.0343488  -0.3635777   1.2622062  -0.8787232
   0.5077197   0.1717761   0.7724251   0.1173925   0.0498767  -0.3100673
   1.0571899  -0.3467604   0.5727118   0.5593741   0.8752273  -0.9768462
  -0.0147424   0.4723275   0.2566246  -0.1286566   0.7356651  -0.7096190
   0.9758932  -0.6167267  -0.3879710   0.1587704   0.3313328  -0.1168993
   1.6504958   0.0112898   0.7413611   0.8472604  -2.3641361   0.7039484
  -0.0189646  -0.0359853  -0.0011561  -0.3227197   1.3494564  -0.0090927
   0.9038942  -0.7304323  -0.4042096   0.0607507  -0.2285862   0.1356431
   1.3667833  -0.1101056   1.3940950   0.7733205   0.8746859   1.0229482
   0.1754615  -0.0300114  -0.0800388   0.0847398  -1.1297709  -0.1144872
  -0.2414426  -1.1475724  -0.4404752   0.1356899   0.3450080   0.1647356
  -0.3568917   0.4085868  -0.4722653  -0.3512338  -1.3241511  -0.2199706
  -0.2097459  -0.1010959   0.3845743  -0.0093486  -0.5089779  -0.2380262
  -0.5024917  -0.3224388  -1.0450416  -0.0528823   0.0734797  -0.0042324
   1.7249127   0.3402465  -0.3236215   0.4810314   0.0305622   0.5450566
   0.1961133  -0.1463391   0.0141905  -0.8083248   0.6064360  -0.1798212
   0.1549708   0.4172738  -0.2792970   0.1105498  -0.2445471   0.4642915
  -0.2476220   1.2782307   1.3767769  -0.2222093  -0.0568492   0.2800528
   0.0726141   0.1283804  -0.1148151  -1.5409458   0.4757190  -0.0537427
   0.9904256   1.8606944  -0.3026699   0.2199195   0.1829905  -0.1576267
   0.5348221  -0.4415696   0.8264575   0.0462554  -0.2811141   0.1611331
  -0.1551027  -0.1804247  -0.0800971   0.7208596   0.0507928   1.4751780
  -0.6162804   0.6381654   0.5891755  -0.0703116   0.1409469  -0.0863441
   1.0388501   0.4774475  -0.3829308   0.5167078  -0.1682186  -0.1838568
   0.1182834  -0.0558728   0.0602443   1.3386594  -0.3235281  -0.9007417
   0.9120039  -1.0437251  -0.3530162   0.2266005  -0.0423821  -0.1024817
   1.3361993   0.8658465   0.0154980  -0.6554976   0.0411029  -0.3883568
  -0.0661994   0.0580645  -0.1085525   0.0520809  -0.3591825   0.7437184
  -1.2558516   0.2372811  -0.4173814  -0.1624437   0.3110158   0.1129662
  -0.5956642   0.3677950   1.3969982   0.9144424   0.9177883  -0.7458268
   0.2002670   0.0339914  -0.1009776  -0.5161200   0.3699482   0.7354221
  -1.1275141   0.6141166   0.7123264  -0.1046101   0.0199115   0.1811866
  -0.1728690   0.7803743   0.3400354  -0.9055146   0.3378441  -1.1798061
  -0.0758983  -0.0187215  -0.3468594   1.2380072  -0.1841696  -0.6180967
   0.4872827  -0.0063410   0.9473325   0.0476447  -0.0561811   0.1622012
  -0.5726671   1.4804456   0.7267683   0.0660484   0.1706089   0.9291257
   0.0743136   0.0968990   0.0830261   0.4042559  -0.0089992   0.7208746
   0.7371221   1.1165010   1.8961360   0.2108428   0.0989218   0.1610684
  -0.0383752   0.7254575  -0.4338388   0.7055398   0.9550026  -0.2569761
  -0.0887318  -0.2534321  -0.1131585   1.7697323   1.1421558  -0.7232570
  -0.4415391   0.6051178   0.5524908  -0.0270878  -0.1272910  -0.0857431
  -1.5651425   0.3368821   0.8676061  -0.8217685   1.3111155   0.6429062
   0.2052697  -0.0020568  -0.1229275   0.2803953   0.4637009  -0.0492539
  -1.0491525   0.6562517  -0.1009615   0.0206524   0.0034703   0.1732034
   0.6759439   0.5804413   0.4531315  -0.5720907  -0.2641421  -0.2974287
  -0.2624429  -0.3193196   0.0277357   0.4693402   1.1963175   0.1005785
  -1.0256632  -0.8007894  -0.5958054  -0.1430937  -0.2385954  -0.3003347
  -0.1032290  -0.0718355  -0.1438779   0.0604800  -0.0077751   0.4446960
  -0.1795871  -0.4303660  -0.1648502  -1.0703213  -0.6286123   0.3391884
   0.2293168   0.0159192   0.9301974  -0.0851601  -0.0010887   0.1516268
  -0.1390520  -0.6529451  -0.6060966  -0.1167109   0.1231221  -0.4680672
   0.0843707   0.0457812  -0.2135048  -0.2012294   1.0408721  -0.3056402
  -0.3143873  -0.1723404  -0.4376089   0.1141194   0.3838523   0.1063671
   0.0300925  -0.1501753  -0.0343496  -0.1307475  -0.8117737   1.7865996
   0.2309458   0.1457399   0.0903458  -0.4314065   0.8457927   0.2863482
   0.2857559   0.7007722   0.2391023  -0.3870092  -0.1064292   0.1499659
  -0.2595252   1.2453296  -0.4119558  -0.2896001  -0.2215269   0.6561176
   0.3593909  -0.2437130   0.0441710   0.0910259   0.2097732  -0.5996541
  -0.2438657   0.9390572  -0.0471444   0.0118948  -0.0359546  -0.0274384
   1.4604688  -0.6669089   1.2343872  -0.5912002  -1.4413895  -0.7568664
  -0.0621620  -0.3444153  -0.0402701   1.1987520  -0.1783628   0.5013920
  -1.0633491   0.8784150  -1.4229325  -0.1777415   0.5878669  -0.1669167
  -1.3926353   0.5486978  -1.1822206  -1.1848522  -0.3776433   0.6143683
  -0.0371560   0.2168057   0.1535182   0.3961613   0.1555909  -1.6295889
  -0.4902714  -0.6777962  -0.2594754  -0.2959060  -0.1350929   0.2613855
   0.2725978   0.2256523   0.5943566   0.1956568   0.1019529   0.1656649
  -0.1842537  -0.0944148   0.2558495   0.1637112   0.2580292  -0.7275831
   0.2493253  -1.0763400  -0.2951891  -0.0807521  -0.0574152  -0.0294488
   0.1876374   0.5350599  -0.4430336   0.7637358  -0.1515285  -0.4196866
   0.1371822   0.1427817   0.0238411  -0.1333163   1.6232717   0.6706851
   0.7873335   0.1200481   0.7059282  -0.0799640   0.1858828   0.1347927
  -0.3381071   0.4951873  -0.8765391   1.4256565  -0.6545408   1.4336129
  -0.0101441  -0.0318174  -0.0153908  -0.2960895   0.8517945   0.0319410
   0.9352186   0.6600798  -0.2085796   0.0135973  -0.1875098  -0.0517015
  -0.1463119   0.7489736   0.2627240  -1.0509313   0.3114022  -0.4778288
   0.2292369  -0.0908235  -0.0000379  -0.3535305  -1.7789363  -0.3175120
   0.3197298  -1.0379436   0.2113659   0.3357271  -0.0847234   0.0539681
   0.0311676   0.9251804   0.9844761   0.3175198  -0.7820445  -0.1711488
  -0.1519536  -0.0522501  -0.0310455   0.8337399   0.4046221   0.7276202
  -0.3076831  -1.0036274  -1.0305310  -0.0623082   0.1040713   0.0862839
  -1.0366849   0.0104582   0.4362791   0.6550720  -0.5518915  -0.2039682
   0.0645937   0.3499742  -0.5163393   0.0897769  -0.2926125   0.2199925
   0.3906797  -0.5572409  -1.2455024  -0.2183058   0.1238943  -0.0105137
   0.0463669   0.1186913   0.2657984  -0.3179438  -0.0626876   0.1577423
   0.1266762   0.1187230  -0.4130326  -0.9556093   0.4232650  -0.1285471
   1.4289230   0.3776679   0.7508580   0.0189610  -0.0625133  -0.2624475
  -0.6319794  -0.2889143  -0.9385833   0.4528039   0.3412338  -0.4437284
   0.0530603   0.0138725   0.1773672  -1.4903197  -0.4231486   0.0126866
  -0.5875898   0.1960336  -0.9636262   0.2157398  -0.3408804   0.1511794
   1.5860046  -0.2262436  -0.4077855   1.4053210  -0.3400456   0.5970585
  -0.1537772   0.3023409   0.0292809  -0.1547354  -0.6833199  -0.3480691
   0.5611594   0.6847207  -0.3254401   0.0993530   0.1480596  -0.2599408
   0.3922078   0.3091133  -0.5051899   0.8144031   0.6340757   0.1448442
   0.1062701  -0.0819308  -0.0575419  -0.3880782  -0.6457227  -0.3611511
   0.2203245   1.5755106   0.0381441   0.0323393   0.2490751  -0.0718124
   0.5301175   1.4899148   0.5778379  -0.4459567  -0.2191100   0.2177104
  -0.1124242  -0.0750724  -0.0715686  -0.0323495  -0.0638023  -1.1315072
   0.5367898  -0.6877298   0.8309726   0.0596678  -0.2040208   0.0840295
   1.1532867  -1.0960502   0.7365111  -0.4589115  -0.2241444  -0.0757116
  -0.2352871   0.1265780   0.3989095   0.1868904  -0.0221394  -0.0240444
   0.8167505   0.9881768  -0.5306363  -0.2564338  -0.1645394  -0.0261184
  -1.3265321  -0.6582333   1.3313769   2.4760941   0.4956947   0.4671666
  -0.0471489  -0.0758794   0.0860648  -0.8675712   0.5836704  -0.9968515
  -0.2818136  -1.0009114  -0.1238625  -0.0605726  -0.0937843   0.1143945
  -0.7764605   1.0017902   0.9491295  -0.4189538   1.5760222   0.9492050
   0.1682402  -0.3664495   0.0665413  -0.2505170  -0.3511556  -0.1760747
  -1.7017777  -1.4220369   0.7110165  -0.2414957  -0.0337092  -0.0318889
  -0.8270794  -1.1436122  -0.2602716  -1.8033150   0.0483020  -0.1157907
   0.0108698  -0.0500427   0.0031033  -0.8165321  -0.3306173   0.3670355
  -1.0788866   0.4474247   0.4178981   0.1003098   0.3293016  -0.2846049
  -0.0494087   1.4695838   0.2260572   0.8946963   0.9433259   1.6918774
  -0.1372651   0.0094242   0.0926619  -0.5346737  -0.0081823   0.5278785
  -0.6980142   0.7155700  -0.9832982  -0.0244660  -0.0095484  -0.1088447
  -1.2518512  -0.4711695  -0.2813059  -0.5923655   0.2753717   1.3924752
  -0.1258028   0.1411360   0.1877700  -0.7396661  -0.1328311  -0.2039294
  -0.3393410   0.3796113   0.3939634  -0.1348277  -0.0892187   0.1334078
   0.2606381   0.9936713   0.0153579  -0.9454256  -0.9240457   0.5688988
  -0.2582376  -0.2649452  -0.0511228  -0.2990110  -0.6452317  -0.8738239
   0.2238897  -0.2089953  -0.1552900  -0.0123897  -0.1585428  -0.3151808
   0.2060212  -1.0291606   1.0074547   0.3216085   0.6179366   1.6263316
  -0.1178580  -0.0245457   0.0188478  -0.8881720   1.6643630  -0.1880872
   1.0939664  -0.5021575   0.5569883   0.3780274  -0.0991468  -0.2883159
  -0.9562768   0.0660957  -0.6675170   0.1943541   0.4536482   0.8241189
  -0.4389368  -0.3164236  -0.0299930  -0.6100719  -0.7975859  -0.2115523
   0.5348976   0.7131562   1.3876340  -0.0599858   0.0385544   0.2207799
   0.7476597  -0.6680227   0.7394699   0.0679320  -1.1111244   1.0291303
   0.1702635  -0.1440744  -0.0345996   0.2219821  -0.4582747   0.0477436
   0.9674480  -0.5863511  -0.2619545  -0.3459287  -0.1886066  -0.0374876
   0.0975925  -1.4812685  -0.5627468   0.4364613   0.1825152   0.3614963
  -0.1310373  -0.0838488   0.0549367   0.8687152   0.8331749   1.0090276
   0.9235588  -0.8110104   0.9635000   0.0227466  -0.1138146  -0.0312019
   2.4435874   0.0483323   0.0723590   1.2914528   0.4626311  -1.2157825
   0.0235216   0.0833669   0.2194080   0.1774036  -0.2961493  -1.3277917
  -1.0929908   1.1939339  -0.0849133  -0.2199123  -0.0388068   0.1927912
   1.0048123  -0.0991063   0.8957176  -0.0192527   0.6565208  -0.8407718
  -0.2333616  -0.1970546  -0.0822916  -0.0004708   0.1579226  -0.3643272
  -0.3373993  -0.5740614   0.7100137  -0.4476424   0.0695920  -0.0555122
  -0.5966461   0.0919087  -0.7531000   1.1409339  -1.4131503   0.7070907
   0.2012125  -0.0184504   0.0132323   0.1147021  -0.0366546  -0.5448864
  -0.5583771   0.3888607  -0.5429312  -0.0196633  -0.0493441   0.2798833
   0.0345430   1.3474205  -0.5628967   1.0721259   0.0493883  -0.2888819
  -0.0412356   0.0302732  -0.0010495  -0.3361989   0.2144257  -0.2727433
   0.5547162  -0.2756490  -0.0625924  -0.0646869  -0.0623529   0.0631702
  -0.7496705  -0.9590490   0.2352868  -1.2356857  -0.3634515   0.2763358
   0.0785403  -0.1933452   0.0660933  -0.4385681   1.5646814   0.3446168
   0.9279851   0.5963162  -1.0780187   0.1644864   0.0292524  -0.0096570
  -0.6388143  -0.2063887   0.7102521  -0.1582309  -1.3836327  -1.5153479
   0.0986767  -0.1624582  -0.2633387  -0.1082834   0.3715259  -1.2687870
   0.6769434  -0.9022116   0.1646921  -0.0269897  -0.4506925   0.1287791
  -0.7780001   1.0748695   1.0492373   0.3536198  -0.9168926  -0.0712673
   0.0958902   0.0420185   0.2432010  -0.3645681  -1.3164024   0.8012417
  -0.1103693   0.0383980   1.4246755  -0.1203482  -0.1359057  -0.1216719
  -0.5681658  -1.2967030   0.4593403  -0.3571332  -0.8944076  -0.0111295
  -0.5250648   0.0499849   0.0169469  -0.1787157  -0.2814229  -0.7675576
  -0.5188585  -0.4583719  -1.4773242   0.1277620  -0.1937147   0.1302464
  -1.5717946   0.0854470   1.0095356   0.6697627  -0.0915937  -0.5228083
  -0.0026166   0.1066389  -0.1896541  -0.6293747   0.0591072  -1.4777466
   0.1809635  -0.4459439   1.2936548   0.2530317  -0.3051079  -0.1340869
   1.5222693   0.2928751  -0.9546613   0.3355112  -1.4160005   1.0655428
  -0.1593722  -0.1242720  -0.0487521   0.4194311   0.9459763  -0.2327966
   0.0324158   0.1483340  -0.4157391   0.1071979   0.0293339   0.2439225
   0.3129205  -0.2531220  -0.2871052  -0.9739433  -0.2649490   0.1097672
   0.1155957   0.1589878   0.0905956  -1.0067736  -0.1355287  -0.0640154
  -0.4513339  -0.0314539  -0.0663869  -0.1469191  -0.0320464  -0.2188169
   1.0138970   0.1502792   1.4175879  -0.4023777   0.2876309  -0.5047467
   0.1017245   0.0969791   0.2206410   1.5575582  -0.0038857   1.6271993
   1.7771666   0.4293312  -0.2129385  -0.1333089  -0.3786213   0.2692628
  -0.9033402  -0.0229158   0.3509724   0.3253365  -1.4015665   0.4972450
   0.0737330  -0.0747333  -0.3527274  -0.1945485  -0.1258206  -0.5428218
   1.8633633   0.9460321   1.4023680   0.0934280   0.0338011  -0.1000195
  -0.2625861  -0.0978153  -0.9204398   0.2971003   0.2675574   0.5287442
  -0.1110675  -0.2955119  -0.0270034  -0.9756913  -0.7406238   0.0927276
   0.8342335  -0.3642318  -0.5864377  -0.1319239   0.1602076  -0.0688004
  -0.9347289   0.6939477   0.0511091   0.6605299  -0.6688681   0.0532555
  -0.1317714   0.0701247  -0.0458744   0.7488646   0.9207365   0.9118035
   0.1365781   1.8816619  -0.2705619   0.2270705  -0.2479783   0.3878987
  -0.5012173   0.9676801  -0.4471106   0.1873844   1.1634127   1.6368900
   0.3529185   0.1229459   0.1422526  -0.5858891   0.5821937   0.0690375
   0.6227668  -0.3149832   1.3216357   0.2585176  -0.0693989   0.0622815
  -1.3160766   0.7920705  -1.2792501  -0.6194920   0.0275432   0.1731530
   0.0775474   0.1356807   0.1237948   0.5663659   0.1742661  -0.0935961
   0.0202033   0.3835328   0.5379878   0.0328872  -0.2601857  -0.0030926
   0.4985594   1.0744337   0.6307745  -0.3966403  -0.7122520   0.9229490
   0.3040852  -0.0954575   0.1277680  -0.6159549   0.1650207  -0.0126943
  -0.2334560   1.9805881  -0.7059552  -0.0546602   0.0843439  -0.1201490
   2.2772696  -0.6938901   0.2831777   1.5373239  -1.2078925   1.1002096
   0.0755305   0.1600658   0.3880774   0.6766200  -1.8369552  -1.0176087
   1.0944229  -1.2183547  -0.6067691  -0.0968474  -0.2931906   0.0225254
   0.5591169   0.3343921   0.4537804  -0.9889187  -1.1488206   2.3610231
   0.2195535   0.1314030   0.0519824   0.0035781   0.4281844   0.0376740
  -0.0202625  -1.5183667   0.2810616   0.4283292  -0.2717739  -0.1600849
  -0.1001301  -1.4122559  -1.7677410   1.7026946  -0.0942878   0.4150826
  -0.5707392  -0.1437905   0.1697907   0.1383894  -0.1293943   0.9291942
  -0.9186476  -1.0395600   1.0505649  -0.0265855   0.4637214   0.0801931
   0.2556858  -0.6106709  -0.9815407  -1.1793321  -0.6469327   0.0984924
  -0.1200782  -0.1441319  -0.1014025  -0.9066507  -0.0888194  -1.7153958
  -1.5295211   0.9659808  -1.4700810   0.1101324  -0.0500728   0.1372317
   0.0773183  -1.1748356   0.6482205  -0.5195320  -0.3304363  -1.8822194
  -0.1128897   0.0157459   0.3038203   0.7775957   0.1704050   0.1608519
  -0.4087557  -0.4518394   0.9643311   0.0360574   0.0212120   0.0421798
   0.2328606   0.7489977   0.5949611  -0.6921719  -0.1249921  -0.7663740
   0.2554990   0.0855633   0.1001526   1.1092123   0.7531668  -0.3244044
  -0.8352529  -0.9150589  -1.2481443   0.2108573   0.2297308   0.2735675
   0.3809309   0.4776534  -0.7398328   0.8365462   0.8440264   0.2426405
  -0.1532616  -0.0692048   0.0991515  -0.5696768  -0.6226313   0.3749149
  -0.1962356  -0.4558514   0.2046984  -0.1166930   0.0437508   0.1648398
  -0.9413961   0.3821123  -0.6389261   0.2276803  -0.7061991  -0.0442657
   0.0393393   0.0421577   0.0405401  -1.0820967   0.4416747   0.5171610
   0.2399155  -0.3657681   0.1692168   0.0917701  -0.0696153   0.0714964
   0.3128755  -0.7531237   0.7360036  -0.5648830  -0.5051298   0.7456466
  -0.5163748   0.1740095   0.2861455  -0.9991280  -0.7762507  -0.8532027
  -0.1368739   1.6359735   0.3871670  -0.1607808  -0.2172560  -0.0909156
   0.5775142  -0.5379065   0.3009476  -0.7428809   1.7970018  -0.5044127
   0.1722931   0.0138343   0.1882484  -0.3201749  -0.7360398  -0.4250506
  -1.6445394   0.6399772   1.2278030  -0.1704269  -0.2822088  -0.0833505
   0.7175430  -1.1179305   0.4396087   0.6380799   0.0960429  -1.1158696
  -0.1337949  -0.1806541  -0.0036529   0.2153665   0.1751195   1.0011942
  -0.9027565  -0.3987857  -1.6780202   0.2898859   0.1407143  -0.0153188
  -0.3039226   0.0522064   0.1803530   0.4888119   0.4823088  -0.5579222
   0.0417347  -0.0651515  -0.1052349  -0.6322533  -1.1226236   0.1935725
  -0.2151163  -0.8215311  -1.3227768   0.2084339  -0.2585475  -0.0285117
  -0.0416496   1.4864649  -1.9438692   0.6944147   1.9163858  -0.2691528
  -0.0945945  -0.0137670  -0.0401992  -0.8089026   0.7149011  -0.7752380
  -0.0521628   0.5483861  -0.6401863  -0.1869170   0.2704149   0.0417435
  -0.1240699  -0.1786432   0.6786275  -1.7348399   1.0700420  -0.4058017
  -0.3555867   0.1019503   0.0418377   0.2172234  -0.1937100  -0.3836649
   0.4572099  -0.0392346  -1.3262091  -0.0654942   0.0125354   0.2794689
  -0.8872046   1.2682307  -0.4734589   0.5206022   1.2484208  -0.5543672
  -0.4080489  -0.1884140   0.0011889   0.9630862  -0.0846003   0.8351058
   0.6271380   0.6254585   0.4323677  -0.1354001  -0.1250661   0.0866089
  -1.2154551  -0.6922007   1.3403666  -0.3822521   1.3046328  -0.2200756
   0.4293752  -0.1861160   0.0233818  -0.7854166   0.6207946  -0.4206610
  -0.9943418  -0.7363834   0.2193019   0.0473621   0.0078530  -0.0927946
   1.2314756   0.5299213  -0.1320535   0.7775629  -0.9525722  -0.9374134
  -0.2785484   0.0610781  -0.0775327   2.2285727  -0.3709041  -0.0603029
   0.7300277   0.8623520  -0.2664823   0.0105243  -0.0098841  -0.1800955
   0.1490971   0.2663584  -0.8660322  -0.4794014  -0.1091024   0.7485683
   0.1249646   0.1414334  -0.2475239   2.0944212  -1.9893184  -0.7004104
   0.1513701  -0.9627661   0.3652547   0.3534066   0.1072128  -0.2376377
   0.6998186   1.5103242  -0.0209270   0.9614204   0.6208536   1.7788136
  -0.0416586   0.0222125   0.4000550   0.3551350  -0.4719929  -0.8687308
   0.2650363   0.4416073  -1.0343224  -0.1793034   0.1208156  -0.0610100
   0.1844131  -1.4192111   0.1943137  -0.1512392  -0.0411561   1.3247939
   0.0914336  -0.0764651   0.3966236  -0.1297053  -1.5177165   1.0523086
  -0.2002565  -0.0123415  -0.2515956   0.1065770  -0.3148375   0.4323037
  -0.4722856   1.0867757   0.1844123   0.8820801   1.4266569   0.1783107
  -0.2223370   0.1455558  -0.1509290  -1.5348581  -0.5437570  -0.3253872
   1.3774027   0.0996391   0.2781944   0.1083202   0.1746787   0.0826482
  -0.2370968   0.3173050  -0.7359717  -0.1270719  -0.4958988  -1.1211572
  -0.3086586   0.1986509  -0.2815387  -1.1903558  -1.1307778   0.8677724
  -1.2608706  -0.5025243  -0.8064080  -0.3806190  -0.2758938  -0.1422496
  -0.1764289  -0.6537448  -1.2697337   0.7612960   0.4352031  -1.1390382
   0.0206990  -0.0684616   0.0153049   0.7474475   0.3601145  -0.2202332
  -0.4122219   0.6056791   0.3308999   0.0088321   0.0635880   0.1345235
   0.0549883   0.3283483   0.0313484  -0.0178091   0.2262432   0.1355368
   0.1859551  -0.0906149   0.0892736   0.6218831  -1.0584806   0.4264429
   1.2005111  -0.0948451   0.8805623  -0.2183779  -0.0698523  -0.2564447
   0.1802779  -0.8314172  -1.4835991   0.6174694  -0.3904755  -0.8580217
  -0.0102008  -0.0183847   0.1516862   2.1679600  -0.0536228   0.6079763
   0.2801379  -0.8221633   0.1510871  -0.0222742  -0.0735694  -0.0583510
  -0.8362036   1.5265941   0.5336571   0.0456914   0.0513463   1.0091992
   0.1851815   0.1484171   0.1377996   0.4488009   0.1065136  -0.5715282
  -0.5207391  -0.0549997  -1.3450609   0.0056948  -0.2091087  -0.1187570
   0.6347441  -0.1605964   1.1211549  -0.6211229   0.5477061   0.4367399
   0.2178638   0.1140828  -0.0660912  -0.1596761   0.3764075   0.1091796
   0.5265243  -0.0250185  -0.8942455  -0.1682986  -0.2134029   0.3875093
  -0.6103992  -0.1099078  -0.0220600   0.5961684  -0.0680787  -0.3723029
   0.0645989   0.0208773   0.4159601  -0.1506553   0.8566993  -0.5797389
  -0.6596000   0.4455166  -0.0951562  -0.2366585   0.2550364  -0.3310565
   0.6791841  -0.2120393  -1.2507042   0.1587551   0.1597712   0.3226745
   0.0507438   0.3130780   0.0824209  -0.4943271  -0.4384258   0.6156827
   0.1168466   0.9088701   0.6931870  -0.0892620   0.1115442  -0.2034757
   0.5320722   0.6626600   1.1970815  -1.8781621  -1.1214128   0.3034484
  -0.1337065   0.0236622  -0.1732170  -1.9178476  -1.0256665  -0.0368623
  -0.6718603  -1.2196720   0.2579472  -0.4769162  -0.0702498   0.3060822
   0.2464997  -1.3648018  -0.4964500   0.6385164   0.6603269   0.3953332
  -0.0248172  -0.0794763  -0.3354252  -0.1583687  -0.1044196  -0.4441223
  -0.0421316  -0.1832597   0.9186052  -0.3087904  -0.2279571   0.1707365
  -0.1682182   0.4580212   0.6292273  -0.9460974   1.2397775  -0.3504746
  -0.1497769   0.0877571   0.1656652   0.9921262  -0.5217225   1.0948800
  -0.1551928  -0.3165359  -0.7070691  -0.0865447  -0.0630884   0.1147616
  -0.2782260   1.0997480  -1.3011405  -0.9266397   1.2977951   0.5178657
  -0.0219477   0.1748586  -0.0315883   0.1190436  -0.3787606   1.0124291
   1.2807383   1.7165554  -0.4792733   0.1743207   0.0523629  -0.3061735
   0.2989210   0.2083386  -0.6906560   0.5409506   0.1442215  -0.3607367
  -0.1342464  -0.3160126  -0.2133141   0.7995185  -0.1602348  -0.7729055
  -1.4753592  -1.0739599  -0.6826756  -0.0891030   0.0965415   0.0719903
   0.4801657  -1.3731724  -0.6845449   0.3644596  -0.8940250  -0.0932828
  -0.0040750   0.0087434   0.0548243   0.3624508  -0.8278556  -0.5102976
   0.3246920  -0.8561153  -0.5417839  -0.3713256  -0.0598928  -0.3766581
  -0.2734625  -0.2065277  -0.0506940  -1.4298338   0.2641608  -0.9081148
  -0.2014498  -0.1711544  -0.4003863  -1.0264678   0.2580030   0.0092090
  -0.8339150  -0.8867939   0.2933379  -0.2595212  -0.0609936  -0.0097228
   0.5536295  -0.0050674   0.3123106  -1.1225978  -0.3726662   0.3330214
   0.0796053  -0.2479315   0.0813731   0.6262705  -0.4853983  -0.4329323
  -0.5978663  -0.3650311   0.1091433   0.2007074   0.1258492  -0.0823246
  -0.5679005  -0.1163237   0.2931678   0.5438313  -0.5813938  -0.4764852
  -0.0681517   0.2452621   0.1966143   2.1774289  -0.6877624   0.3215754
  -1.3317260  -0.6071807  -0.1803552   0.0916582   0.0586453   0.0474890
   0.3354960  -0.2310336   0.5323450  -0.4858397   0.0871027  -0.5917043
  -0.2072190   0.1064367   0.0958904  -0.2286064   0.1564257  -1.1039112
   0.9214923   0.9043946  -0.9449165  -0.3334396   0.1921781  -0.1035331
   1.0087348   0.3085190  -0.3303978  -0.9996806   0.2276125   0.4996300
   0.1280198   0.1590517  -0.1434419  -0.1590452  -0.5381589   0.3098688
  -0.6212950  -0.6412086  -0.3184745   0.0435328   0.0254267   0.1140377
  -1.3977830   1.6823860   0.1049210  -0.6369417   0.1215140  -0.2966873
  -0.0739843  -0.1364789  -0.0228725  -0.7906340   0.6828483   0.6594167
  -0.1997572   1.3913189   0.1254260   0.0806626   0.0242638  -0.0449263
  -0.0218756  -0.6368481  -0.8268183   0.4711748   1.0486667   0.9845632
  -0.2214434   0.0220105   0.2013010  -0.6495070  -0.1063073   0.3314884
   0.5489141  -0.7986740   0.0746198  -0.2050322   0.2359505  -0.2655768
   1.2337066   0.9486314   0.6554773  -1.1048445   0.6446070   0.3142269
   0.4391574   0.0855000   0.1325600   0.4392967  -0.3658214   0.5339601
  -0.9286279   0.2175103   0.0143603  -0.0606897   0.2632455  -0.2692181
   2.1099326  -1.1425279   0.3628195   0.0874790  -1.5520672   0.3973283
  -0.4291048  -0.3088537  -0.0118065  -0.1932346   0.2950343   0.2525938
   1.3198898   0.5208794  -0.4093501   0.2936635  -0.1638941   0.1812113
  -0.1967487  -1.4029409   1.0842580   0.7305963  -0.8946172   0.3512528
  -0.0214383  -0.0409504   0.0309303  -0.4459163  -1.1397133  -0.7937569
   1.0412552  -0.1374252   0.5412297  -0.0142801  -0.2239088   0.0997057
  -0.3487080   0.1365877  -0.2559237  -1.0122534  -1.2933008  -0.9719565
  -0.0512891  -0.1092213   0.3205856   0.4936351  -1.5884443   1.6382362
   0.0348466   0.1577666  -0.1242478  -0.1734839   0.0254617   0.1882134
  -0.2755310  -0.0737728  -0.4812487   0.0474239   0.5212791  -0.0952653
   0.1971508   0.3490361   0.1129280  -0.9524210   0.7890679   0.7393796
  -0.1914604  -1.3370850  -0.1118392  -0.1074162   0.0652308  -0.0402940
   0.2753645  -0.4424391  -1.1678562   0.8364576  -0.2704590   1.9620824
  -0.1163926   0.0434988   0.1432005   1.5601214  -0.2213275  -0.9888772
   0.0651534   1.1679579   1.6418711  -0.2833355   0.1381870  -0.2399987
   1.0186722  -1.2224359   0.6786710  -0.8245580  -1.2534804   0.4955785
  -0.2757848   0.2130323  -0.4370387  -0.2054134   0.0506807  -1.7021920
  -0.2548473   0.0989472   0.5516995   0.0900611  -0.3190741   0.1516943
  -0.2241665   0.1579538  -0.5056224  -1.1009463   0.7999316  -0.5701831
   0.3201042   0.0150703   0.1251875   0.1575010  -0.3381236   0.5481052
  -0.0825447   0.7607443  -0.6088296  -0.0917613   0.1511375  -0.1410162
  -0.3546696  -0.7124032   0.3637222   0.0060884  -0.2797116   0.1669332
  -0.1797257  -0.0942175  -0.2230458  -0.9944446  -0.7789449  -0.9275787
  -1.2232249  -0.9042463   0.2474786  -0.0035958   0.0220979   0.0781815
   0.1511918   0.8763420  -1.1394625   1.6779671   1.9770867  -0.7041529
   0.0789534  -0.1337349   0.0572452   0.3491575   0.2648907  -0.5450804
   0.9128440  -0.9350634   0.0903260  -0.0169381   0.0537614  -0.0838651
   0.0045000   1.3611797   0.4805296  -0.6839540  -1.3373388  -0.8669325
  -0.3438381  -0.1963226  -0.0202307   0.1042164   0.3335931  -1.4208163
   0.0187951   0.8059078   0.3421548  -0.0363204  -0.2116318   0.2371367
   0.5685450  -0.4065864  -0.9085566   0.3952033  -0.6552804  -0.3738651
  -0.0863558   0.0910561   0.0715624   1.7527560   0.1339888  -0.0996391
   0.3031369  -1.0423354   2.2399142  -0.0077368   0.1485048   0.3906314
  -0.6235683  -0.0999628  -0.6645364  -1.0181737  -0.7137342  -0.3700011
  -0.0056167   0.3381570   0.2259913  -0.0944794   0.4529455   1.1133320
   0.1408493   0.3267179   0.4232070   0.3084547   0.0094107   0.1414833
   0.7843874   0.4854443   1.2494947   1.4944240   0.2164931   0.2258872
   0.3163804  -0.0393908   0.2745256   0.7929111   0.4427223   1.4046093
   0.2493399   1.9608808  -0.1964769   0.0907018   0.1221085  -0.0865961
  -0.3464923  -0.8081095  -0.6841513  -0.7129045  -0.1475132  -0.5116672
  -0.3922434  -0.0622637  -0.1896528  -0.1280309   0.7203653   0.2889179
   0.1450650  -0.6769175  -0.3503333  -0.2259334  -0.1826168   0.1872258
   0.9258028   0.0393765  -0.3895067   0.6133283   0.3184051  -0.9740982
  -0.0641164   0.1448389  -0.1163246   0.3163620   0.0144988  -0.1719302
  -0.7207773  -0.1442968   0.4563552  -0.0140703  -0.2094925   0.1371267
   0.8797436   1.2240898  -0.1418090   0.1278021   0.9488719  -0.9208265
   0.0019628  -0.1033914   0.0391932   0.3157753  -0.2369484   0.3075596
   0.4108087   0.3019490  -0.5941263   0.1714940  -0.0510867   0.1222184
   0.4977187   0.0415818   0.7823021   0.0150583  -0.6738386  -0.2059508
   0.2254270  -0.4466284  -0.0600749  -0.7195775   1.1252891  -0.3318324
   0.4714918  -0.5628145  -0.0388558   0.1601229  -0.1556425  -0.4021746
   0.6835089   1.4065560  -0.6084206   0.4422258   0.1693650  -0.0295001
   0.2304295   0.0962341  -0.2643600  -0.8614233   0.4640817  -0.4587593
  -0.2148998   0.3124354   2.1329777   0.0102025  -0.1944375   0.4149828
  -0.9786729  -0.1456790   0.5381094  -1.6054115   1.4915385  -0.2980185
   0.4176444  -0.1581223  -0.0321463  -0.8967884  -0.6675359   0.3900187
  -0.3674189   0.0854688  -0.0683383  -0.0828520  -0.0162493   0.0957591
  -0.8378373  -1.0040768  -0.1269883  -0.0230706  -0.5717209   1.6065946
   0.0568461   0.2640397   0.1893210   1.3218232   0.2474465  -0.2049362
  -1.2864652   1.1377754   0.5907044  -0.1295770   0.0816856   0.2405109
  -0.3356189  -1.6120142  -0.5990155  -0.3645301   0.0812892  -0.9732444
  -0.0735323  -0.2390847   0.0451360   0.5202536   0.0004594  -0.5574909
  -0.1593226   0.8955181  -2.4402010  -0.2138362   0.1375018  -0.4849253
  -0.3656389  -0.8777401  -1.3329179  -0.1196569   0.3611009  -0.9681685
  -0.1850274  -0.0567086  -0.0716934  -0.7632925   0.4886805  -1.3926073
   0.1157928  -1.0768346   0.0751828   0.2764687   0.0909569  -0.2081102
  -1.1583011   0.6616191   1.9896610  -0.3610648  -0.4311954   0.4814295
  -0.2601568   0.1045687   0.0191941   0.9609341  -0.0720178  -0.3096772
  -2.5088884   2.0745952  -0.8476495  -0.1445196  -0.1720413   0.1271417
  -1.2682680  -0.0482171  -0.2163692  -0.1487835   0.1498440   0.8423883
  -0.2646375  -0.2310082   0.3054085  -0.1682159  -0.6119457  -0.6209521
   0.2433505   0.0451444   0.5631891   0.0588523   0.0601860  -0.0921751
  -0.3816427  -1.1295866   0.2765455   1.4732432   0.5273054  -0.4905972
  -0.0983128   0.0815719  -0.0088073   0.1279770  -0.2118812   1.0772863
  -0.3304325   0.0278787  -1.0829923  -0.3167505  -0.1763894   0.2403809
  -0.9370362  -0.2138346  -0.9097660   0.5040415   0.2688737  -0.4199479
   0.1184675  -0.0474094   0.1862441   0.2083612   1.1267745  -0.1753956
   0.4011871   0.8445716   0.1586218  -0.1202110   0.0088720  -0.4369450
  -1.0657296  -0.1001168   0.7612214   0.1680631   1.3915292  -0.1784877
   0.2989462   0.0277509   0.1818580   0.4452636  -1.0533642  -0.2091370
   0.4323612   0.7370742   0.4350084  -0.1707949  -0.4421558   0.1290420
  -0.8403665   0.0898494   0.1760763   0.0658172  -0.3987000   0.0740281
  -0.0265310  -0.1395925  -0.3513671   0.0961195  -0.7966162  -1.2396044
   0.6934929  -0.5971602  -0.0743823  -0.1017318  -0.1100599  -0.1094212
   0.3234036  -0.1157293  -0.4547975  -0.8540914  -0.2039175   0.2181994
   0.2577413   0.1808475   0.0923193  -1.1122429   0.3237353  -0.4028770
  -0.0907285  -0.2031896  -0.1361760  -0.1589750   0.0455612  -0.2194336
   0.0486965  -0.2217603  -0.4827985  -0.1761527  -0.2175195  -1.0481736
   0.1459876   0.0144852   0.2528851  -0.2857247  -1.2406642  -0.3681698
   0.7534959   0.5529119   1.0488214   0.0247950  -0.1206425  -0.2459464
  -0.6568112   0.9139873  -0.0751104  -0.7545487   0.3739780  -0.1554034
   0.0828747  -0.0727994  -0.1797809  -0.5067782  -0.0685913  -0.0720549
  -0.3902845  -0.7090394   0.0596259  -0.3260953  -0.3415475  -0.2090956
   0.0541886   0.4786519   0.8779715   0.2154714  -0.8251331   0.6364873
  -0.0739838  -0.0181718  -0.0306916  -0.0237188   0.5101596  -0.6792020
  -0.6884948   0.4638321  -0.2389577  -0.1491421  -0.2419596  -0.2943483
   0.6476886   0.1928549  -1.2098078   0.8570683   1.9991136   0.6793513
   0.1158330   0.0911343  -0.1834334   0.3836304  -0.5978909   0.5023817
   0.4330430  -0.5957855   0.5111657   0.4125671  -0.1328143  -0.1364398
  -0.9718220  -1.0640927   0.1617434  -0.5258487  -0.5434306  -0.7573171
   0.3733570   0.0139103  -0.0575961   0.4516489   0.2779872  -0.0086181
  -0.8739326  -0.9328340   0.2756773  -0.1967656  -0.3591215  -0.0075237
  -0.4050820   0.1162119  -0.3563426   0.7560124   0.4131419   0.0331334
   0.1111925  -0.5075898   0.1705890   1.0023864  -0.3558487   0.6171252
   1.3635215   0.5967765  -1.8688418   0.1516329   0.0648778   0.1926186
  -0.7016673  -1.0693137   0.0592117  -1.0071323   0.8903291  -0.9805192
  -0.2435606   0.1879960   0.0769984  -0.4978661  -0.0876750  -0.4469611
   1.0697268  -0.1257273   0.9983077   0.1899698   0.2680309  -0.0697742
   0.0416056   0.4294470   0.5534260   0.0870235   0.1765402  -2.0882529
  -0.1614426  -0.1145384  -0.1716236  -0.7925802  -0.2779005  -0.8196289
   0.0008070  -0.4230394  -0.9300623  -0.1058416  -0.0374047  -0.1295976
  -0.7219722   0.1941871  -1.1293093  -1.2542902  -0.0254762   0.7805697
   0.1281866   0.1191386  -0.2653167  -0.0692790   0.2662759   0.6497893
   0.1549195  -0.0961097   1.2722871   0.0069870   0.0567410  -0.1424177
  -0.7508605  -0.7069936   0.1903576   0.0676319  -0.9419900  -0.2438063
   0.1003239   0.3618185  -0.2279699   0.8499124   0.6744277  -0.5458074
  -1.0378457  -0.6620788   0.1558189  -0.3823774  -0.2999130  -0.1159294
  -0.4006368   0.0874838   1.2653442   0.4640354  -0.6557526  -1.0199628
   0.2078264  -0.0445867   0.1725011   0.0394244   0.1822363  -0.3818153
  -0.1165957  -0.7622676   2.1015324   0.0033736  -0.3915855  -0.1355520
   0.6616657  -0.3969305   0.7910547   0.4940238  -0.0237521  -0.3819471
   0.0363712   0.0656697   0.0593982   0.1531629  -0.0172178   0.6078439
  -1.1143968   0.1022364  -0.2665873   0.2862149  -0.0435917  -0.1686294
   0.2086481  -0.3882047   0.1882425  -0.6477884  -0.7176243   0.7240457
  -0.0327461   0.2490006   0.1772127  -1.6635571  -0.1088349  -0.8319608
  -0.8491141   0.4981894   1.1091075   0.0567200   0.3263594   0.1565742
   0.7661883   0.0442221   0.1897992  -0.5454323  -0.4474377   0.0365949
   0.0176094  -0.0965545  -0.2647853  -0.4548163  -0.3124849  -0.2265744
   0.2447980  -0.9938320   0.4420891  -0.0512367   0.1593634  -0.2931871
  -1.1390043  -0.3815966  -1.4242601  -0.0133211   0.4425049   0.3127403
  -0.2188605   0.1878523   0.0829778  -0.2107855  -0.3207472  -1.1857108
  -1.0522492  -1.1319220   0.1467613   0.2515242   0.0701700   0.5286323
   0.5220169  -0.1989929   0.0471870   0.0610650  -0.1572929   0.4392331
  -0.1834888   0.1803232   0.0286116  -1.0573970   0.3121182   0.3160166
   0.3637136  -0.0328657   1.1128387   0.1585909   0.1784953  -0.0714386
  -1.0862797   1.0373562  -0.0538465   0.1506299  -1.3104802   0.1226842
  -0.1292544  -0.0578106   0.0784883   1.2106133   0.4774191  -0.6161308
  -0.1631059  -0.2168155  -0.5515666  -0.0853443  -0.0042901   0.2579977
   0.5408744  -0.7302635  -0.6482443   1.0329721  -0.8097058   0.0328001
   0.2310665   0.0443432  -0.2194064   0.2619747  -1.3489764   0.1257087
  -1.2778261   1.3832883   1.3314761   0.2924283   0.1939324   0.2821637
   0.0093532  -0.3392610   0.5288368  -0.9573003  -0.3537174   0.1984440
  -0.1346864  -0.0516375  -0.5799552  -0.2682279   0.3558834   0.0923875
   1.3224873  -0.1548948  -0.2276398   0.3181659   0.1084017   0.1061208
   0.4420590   0.5311755   0.3200629  -0.5934980  -0.4531010  -1.1057919
  -0.6990786   0.0905757   0.5042447   0.3528385   0.5618849   0.6313398
   1.1554289  -0.1384317   0.5070932  -0.0115110   0.0665209  -0.3609005
  -0.3001535   0.1770397  -1.2054380  -0.8391511  -0.2333766   0.0672499
   0.0032725  -0.2749246   0.1262075   0.4826680  -0.3445987  -0.4801365
  -0.6543817  -0.4617288  -0.5979836   0.4163449  -0.0962384   0.2832624
   0.3070741   0.5098573  -0.3996692   0.4376708   0.4043749  -1.2161741
   0.0614267  -0.0175258   0.0221620  -0.1706677   0.7249614   0.1314254
  -0.4478899  -0.1203902  -0.4278247  -0.0429191   0.0007693   0.2437467
   0.7992210  -1.1752809  -0.7120527   0.5837665   0.8472773   0.5665525
   0.1244776   0.2361419   0.1425904  -0.1610994  -1.1517165   0.1128872
   0.6130823  -0.4479380  -0.2979391   0.0203987  -0.3466318   0.1980913
   0.6911353   0.0529499  -0.5556082  -1.5921290   0.4994443   0.6436864
  -0.0694081   0.2195483   0.2466160   0.0723855  -0.7886121   0.6736524
  -0.0879693   1.2205037   0.4734292   0.1072652   0.1245686  -0.1569957
  -0.8256764  -0.1261132   0.7790480   0.1655562  -1.3513659  -0.6016286
   0.3038554  -0.4778078  -0.1473293  -1.3916019  -0.4190154  -1.8677226
  -0.8026357  -0.4827199   0.5932462  -0.2218628  -0.1251381   0.0120394
   1.4669238   0.5983971  -0.0649057   1.8787004  -0.2073035   0.8694233
   0.2369189   0.2336843   0.0252588   0.3005831  -0.0323111   0.6910362
   1.3612680   0.3120685  -0.8717677  -0.1943574  -0.0835618   0.1749688
  -0.8371869   2.4063727  -0.0482649  -1.0131007  -2.8312139   0.2639758
   0.1194441   0.0110099   0.0243412  -0.6618459  -0.5395847   1.0701359
  -0.2384286   0.8035868   2.2757474   0.2792125  -0.0214239  -0.0533853
  -2.1014131   0.3626671  -0.5811999   0.7388963  -0.8412022   0.5572750
  -0.0703875   0.1512747   0.3023803  -0.2374137   0.2878832  -0.1290026
  -1.4439896  -0.0438726  -0.8253738  -0.3240707  -0.2438988   0.0004577
  -0.5872716   0.8232378  -1.1885696  -0.3732079  -0.3178259   0.6511414
  -0.1940545   0.0315669   0.0491561  -0.0982681   0.0260365   0.0575734
   0.7809396   0.9980491   0.5451495  -0.0723082  -0.1044960   0.0195299
   1.2226057  -1.6716893   0.0456626   0.7920896  -1.2788232   0.6459445
   0.0369231  -0.0598108   0.4513073   0.4457791  -0.1196311  -0.7634664
  -0.8416608  -0.1769384   0.5490777   0.1562009  -0.3023333   0.2437044
  -1.2980997  -0.1803473  -0.2627824  -0.0441405  -1.1349283  -0.2267651
  -0.2223148   0.0026067   0.1805474   0.2424341  -0.2857867  -1.1218698
   1.1370525  -0.4435141   0.4236257   0.0156351   0.0592195   0.0487215
  -0.6275572   0.7179128  -1.4228942   0.8963539   0.9753604  -0.0500583
   0.1932799   0.0942315  -0.0991548   0.4614530  -0.3884334   0.7803032
   0.4406601   1.0242816   0.2638534  -0.3172257   0.0060779  -0.1635912
   0.3760797  -0.7732211   0.2543016   0.6337502  -1.6115148  -0.0764901
  -0.0586264   0.0864452  -0.0603543   0.9070977  -0.0641542  -0.1468520
   1.6187647  -1.6036085   0.0558160   0.1333051   0.0641198   0.0780987
   0.7518265   0.8240773  -0.7865869   0.3127605   0.4699680   0.1306605
  -0.0979840   0.0427805   0.0293266  -0.1361577  -0.5025770   1.1359304
  -1.3459946  -1.3122077  -0.6026442  -0.0500540   0.1451540  -0.0209249
   0.0752881   0.9471177  -0.4205364   0.9656286   0.2488230   1.1184240
  -0.1598988   0.0456769   0.3770617   0.4714777   1.3449718   0.8930066
   1.3591118  -0.8828558  -0.4051486  -0.0726749  -0.0386390   0.0902250
   0.3935946   1.0640262  -0.5609031  -0.4114742   0.5900141   0.6497069
  -0.0038496  -0.2544401  -0.0625434  -0.5809072   0.5189434  -1.1123444
  -0.7992345   0.4468842  -0.5638401  -0.3015725   0.2678359   0.0335855
   0.0126365  -0.5472203   0.1595195   0.9348360   0.9217779   0.5015356
   0.2065940  -0.0857898  -0.0568492  -0.1079193   0.5250696   1.6558343
  -0.2343130   0.1591945  -0.0337313   0.1533004   0.3685053  -0.2750999
  -1.0393732   0.2732650   0.0755934   0.9253690  -0.2086911   0.0163301
  -0.1249970   0.2226772   0.0550198  -0.0666002  -1.0923714  -0.0650080
   1.1731091   1.6344496   1.2598827  -0.1287367   0.0860176   0.1251354
   0.0436303   0.7487504   1.3329500  -0.6646132   1.2223898   1.2176747
  -0.1458725   0.0562172  -0.0187841  -0.5995347   0.6846802  -1.0849961
  -0.9202440  -1.1092883  -0.4991996  -0.3113302  -0.0406463   0.0907620
   0.7928359   1.5855222   0.0767051   0.1416916   0.4064795  -0.8050840
  -0.1640914   0.1325772  -0.2528913  -0.1852350  -0.1980892   0.2855205
   0.1831815  -1.1317560  -0.3979002   0.3530520  -0.0166622  -0.0155402
  -1.4948130   0.6602023   0.2336668   0.9925448  -0.7329627   0.5008722
   0.1245234   0.0255622  -0.2698929  -0.8900310  -0.2864037  -0.5280634
   0.0941015   0.2842201  -0.2569808   0.0807184   0.1560174  -0.0659075
   0.0672012  -0.1576148   0.9016324   1.6778810  -0.3522213  -0.0920570
   0.2131131  -0.2015563   0.0223107   0.8390900   0.0783869   0.1359493
   0.6084733  -0.7691696   0.8187744  -0.1985139   0.0442054  -0.0245516
  -1.0084760  -0.3235033  -0.4093039  -0.1113990   0.6439363  -0.9507386
   0.0988437  -0.1960547   0.1656635  -0.0880398   0.2686635  -0.5959138
   0.3363262  -0.3280427   0.1310270  -0.0538303   0.0951016  -0.1505927
   0.8067217   0.9543441  -0.3404916   0.5233021   0.5712690  -1.3712914
  -0.0313667   0.1072582  -0.2733801  -1.3569628  -1.1689608   0.5882337
  -1.2839776  -0.0501169  -0.0064128   0.1754527   0.3327716   0.0969128
   0.2646572   1.4878429  -0.3902546  -2.0771487   0.1960606  -1.2392966
  -0.0565584  -0.0951976   0.2183911  -0.5121762   0.2623878  -1.0639299
   0.7231914   1.1580285  -0.0110959   0.0130811   0.1583758  -0.1616602
  -0.4556077   0.2163905  -1.2426635  -0.2307115  -0.0226704  -0.4363328
  -0.1424194   0.1222440   0.4833608   0.9825510   0.1333659  -1.2289467
   0.1529461  -0.5758473  -0.2795440   0.1853315   0.0793510  -0.1401341
   1.6141466  -0.1997830   0.4715186   1.0056288  -0.2404389   0.1124316
  -0.2907831  -0.0298752  -0.3406086  -0.0869239  -0.8906912  -0.1516795
  -0.9899573  -1.3253686  -0.7118937  -0.2307854  -0.2803242   0.1353551
   0.2797295  -0.1954172  -0.7989970  -0.0407491  -0.0868540  -0.9650777
   0.2460133   0.3536281  -0.0069005   0.5958024   1.0287625  -0.1330218
   0.3479251   2.3598871   0.1673728   0.0151941  -0.3049938   0.0350989
   0.7420450   0.7796414   1.0857305   0.8460599  -1.4578515  -0.7169186
  -0.0043413  -0.0720996   0.0650954  -0.2459340   0.7908397   0.0473309
  -0.7210059   1.2331587   0.1546245  -0.1188505  -0.0241522   0.2104082
   1.0804545   0.7764641  -0.1693567   0.8479089  -1.5830758  -0.2317038
   0.0740053   0.1603672  -0.0718616   0.9887965   0.8353014   0.6701170
  -1.0785608   1.1707311   0.6655074  -0.0240270   0.3340195  -0.0109876
   0.9486084   0.2941320  -0.3227866   1.2257781  -0.5082571   0.1847817
   0.3378773   0.2507643  -0.0623435   0.2746399  -0.6765414  -0.0258793
   0.1637676  -0.3934343  -0.4352838   0.2327114  -0.1651037   0.3757000
   1.7754911  -0.0451258   0.1900144   0.6377290  -0.6253271   2.0628461
   0.3333053   0.1648544  -0.0534844  -0.0356605   0.9011031  -0.7218030
  -0.2274850  -0.6884941  -0.4766331   0.3898204  -0.0126636  -0.0587827
   1.5286673   0.0707665  -0.9499841   0.4548053  -0.5955810   1.0813937
  -0.1754062   0.0590932   0.4277385   0.8207398   1.2211965  -0.6293237
  -0.2575925   0.8649309  -0.2817808  -0.1803731   0.0086705   0.0496592
  -0.4587742  -0.1759338  -0.3055444   0.0749421  -0.3538587   0.8711750
   0.1480573  -0.1339761  -0.3430772   0.5004952   0.2727125   1.0149580
   1.2426248  -0.0618555   0.7557183  -0.2528328   0.0162442   0.0071636
  -0.2093488  -0.9717222  -1.0476165  -0.4138193   1.0439438  -0.6994421
  -0.1489758   0.1500206  -0.3984108   0.0529185   0.2714413   0.7667466
  -0.8782353  -0.6760409  -1.2725923  -0.0987615   0.1292189   0.0136938
   0.6277186  -0.8184868  -0.1464288   0.5265389  -0.0620015   0.5414878
  -0.1545059  -0.2164961   0.0805850  -0.6758685  -0.3951024  -0.4130330
   0.3301781   2.1551491   0.4197602  -0.0594692   0.0975619  -0.0920112
  -0.7631030   0.3061391  -0.3785734  -0.1175384  -1.8902344   1.1701720
   0.2494014   0.2457582  -0.0307431  -1.7020895   0.6719170  -1.5382313
   0.9564965  -0.4033166   0.9838018   0.2355360  -0.2328781  -0.1290555
   1.1129868  -0.5476102   0.1570289   0.8131463   0.5796076   0.2773182
   0.0095070   0.1732798  -0.3008457   0.3586570   0.5670800  -0.5097514
   0.6281453  -0.6892132   0.2581292  -0.2775567   0.3566606   0.2230624
  -0.6837804  -0.0557914  -0.4807006   0.6642091  -0.1066553   0.3524685
   0.0868804  -0.0481518   0.0180639   0.5874856   0.6109056  -1.3465345
  -0.4613440   0.4146122  -0.1568536  -0.1754240  -0.0987969   0.4043195
  -0.1476082  -0.1473383  -0.9941605  -1.6239077  -0.1659039  -0.3418006
  -0.1206376   0.3566762   0.0044647   1.2109248  -1.2803674   1.1194505
  -1.3127071   0.2834518  -0.2795635   0.3175122  -0.2990689   0.0432847
   0.1046067   1.0572777  -0.7345392   0.3085141  -1.1951462  -0.1809709
  -0.0247668   0.1700570   0.4737725  -0.3139435  -0.0493425   1.2334885
   1.1064901  -1.3232244   0.0656061   0.4866525   0.0420984  -0.0078363
   0.2663037   1.6027955  -0.7408609  -0.7598820   1.3796269  -0.5140176
   0.5664500   0.0119114   0.0238481   1.0773388   0.8636354   0.8616343
   0.5266290  -2.2731631   0.1367762  -0.1365716   0.2780901   0.1562760
   0.9370733  -0.2683395  -1.1427374  -0.3603959  -0.3493305  -0.0530853
   0.0656968  -0.0367330   0.0669077  -0.6622519   0.3013543   0.2570089
  -2.0387115   0.0575622   0.8016985  -0.0902451   0.1983171  -0.1549407
  -0.6372068   0.3475422   0.1084373   0.5863939   0.3639362   0.6625685
  -0.0695497   0.1029768   0.0844617   0.2184902  -0.8733907   0.7770797
  -0.0284596   0.7622864  -0.1424736   0.2963514  -0.1293890   0.0626720
  -1.0333325  -0.1332217  -0.7424648  -0.8044947   0.2569400  -0.5670926
  -0.2967225  -0.0802968   0.0388488  -0.9951943  -0.4911260   0.9898072
   0.1733444   0.0275241  -0.3270221  -0.1747456  -0.1653512  -0.0240982
   0.8399700  -0.7492837  -0.1182170   0.4787337   0.8362928  -0.7297927
   0.1237742   0.1217588   0.0828785  -0.9975372   0.5673438   0.8844614
  -0.3184710   0.6941792  -0.2272537   0.0932937  -0.3419762  -0.0911894
   0.1212524  -0.6072848   0.1903069   1.3194571   0.3949599   0.3816957
  -0.1812721   0.0257461  -0.1163861   0.1716502  -0.4912980  -0.4172225
  -0.2939679  -0.7328544  -0.7061114   0.1505421   0.1142444   0.2499529
   0.4300030  -0.4021710  -0.8255765   0.8647117  -0.4115659  -0.4960663
   0.2381304  -0.4897902  -0.0918678  -0.6795821   0.0479868   1.1761579
   1.4520257  -1.2723991  -0.7954704   0.0470223   0.0635531  -0.1820934
  -0.6416076  -0.9738349   0.0721994  -1.7276634   0.6235583  -0.1264045
   0.0846430   0.2450906  -0.1000910   0.0163589  -1.1191959  -0.6088914
  -0.2546157   0.2101950   0.2741980  -0.1946786  -0.0520728  -0.1831155
   1.2380656  -0.9232158   0.0154937   0.0763843  -0.9133085   0.2703229
  -0.2062052  -0.2550301   0.3220564   0.9115379   1.0487944   2.0205211
  -0.6355954   1.1862711   0.4470864  -0.0186127  -0.4771154  -0.0391023
  -0.3468629   0.0093433  -1.2510774  -0.0602569  -0.9168634  -0.9796378
   0.2087557   0.0973084   0.0608977   0.0435914  -0.6963212   0.1419408
  -1.0283392   0.3806942   0.7243679   0.2926008  -0.0222948  -0.0733414
   1.3462631   1.1294942   0.6319425  -0.4249374  -0.0048731  -1.6945257
   0.1645776  -0.1222930  -0.0902544  -0.5762629  -0.0352587   1.0414657
  -0.2528776   0.4537754   1.4071593   0.1584253  -0.0975630   0.1468283
  -0.7582198   0.9980243   0.5972712  -0.3273792  -2.5065865   0.5683933
  -0.0434347  -0.1945863  -0.1258973  -1.4895468   0.2162741  -0.2616829
   0.3659076   0.5322040   0.5395269  -0.3525560  -0.2557549  -0.2849792
   0.0460029  -0.4081988   0.3201898  -0.5406796   0.9299913   0.4203024
  -0.1327300   0.2413913   0.0502601   0.4881974  -0.5953826   0.7083899
   0.4875030   0.7671318  -0.2055483  -0.3818948   0.1786288   0.0178541
  -0.0961564  -0.3718475   0.8253715  -1.5452061   0.3266436   0.5347379
   0.0901413  -0.0288636   0.3267705  -0.1305488   0.2413251   0.5566839
   0.3204093  -0.8439997  -0.1967171   0.2348147   0.2178747   0.1727965
  -0.4397661  -0.1333273  -0.5070758  -1.2424977   1.0258668  -0.5673704
  -0.3261070  -0.0170293   0.2053374  -1.2882351  -0.3261306   0.5730523
   0.9580002   1.1690680  -0.0590185  -0.1288272   0.0344321  -0.0248809
   0.3487589  -0.0216669  -0.9145535   0.0169260   1.3357895   0.3296508
   0.1883477   0.0707997   0.0731523  -1.1756690  -1.2125914   0.4439547
   0.3862149  -0.7303880   0.8573342   0.0635303  -0.1109248   0.1212524
  -0.5255981  -0.9409642  -0.4367436   1.1223243  -0.0054300   1.0647711
   0.0228738  -0.2444043  -0.1342018  -1.5485708   1.2917800  -0.5342633
  -0.7794692   1.5666656   1.0543806   0.0714440  -0.3306954   0.1172273
   1.3240492   0.1253821  -0.0597334   0.9436333  -0.2985774  -1.0266255
  -0.2015491   0.1813480  -0.3502719  -1.1165713   1.2443442   0.9598449
   0.3020629  -0.4134029   1.0016049  -0.0324447  -0.0636599  -0.0176269
  -2.1764721  -0.8159186  -0.1557416  -0.1709385   1.3931269  -1.0612237
   0.1478022   0.1182638  -0.0415916  -1.2978136  -1.1500704   0.5249193
  -0.0504003  -0.7465051   0.4443760  -0.0979835  -0.0476302  -0.0172189
  -0.5262702  -0.1696444  -0.6716473  -0.9786529   1.2800344  -1.7229099
   0.2033530  -0.0274986   0.2210512   1.4309326   1.4303401   1.0356078
   1.5352142  -0.3107351   1.0652813   0.2068310   0.0530571   0.0859142
   0.8780428  -0.1068658  -0.2968577  -0.1335681   0.1244172   1.0927486
  -0.0741036  -0.1159934  -0.2475764  -0.4850919   0.1535243   1.0238565
  -0.1244923   0.3228085   0.9524789  -0.1932186   0.1548778   0.1327551
   0.6702689   0.2911715  -0.4189190   0.2881878  -0.6843155   0.7141994
   0.3808509  -0.0739903  -0.1400764  -0.8827002  -0.4653281  -0.9525994
   0.1174697   0.5602991  -0.7834851  -0.0494060   0.2737099   0.1100475
   0.0960846  -0.8867239   0.4608989  -0.6088875   0.6798244   0.4870690
  -0.0960245  -0.0139781  -0.0526637   0.0173681  -0.8506359  -0.7809233
   0.9196614   0.3075948  -0.0218581   0.0419940  -0.0228813  -0.3752148
  -0.7975075  -0.3689776  -0.5602227   0.9244298  -0.1013030  -0.4434462
  -0.2700231  -0.0503550  -0.1550395   0.6520682   1.0331799   0.1539287
  -1.3178882  -1.0075859   0.8856935  -0.0841032  -0.2064818  -0.0217162
  -0.2739042  -0.6567492  -0.1163360  -1.0405287   0.7289896  -0.2063242
  -0.2115738  -0.1628276   0.2930560  -0.5427228  -0.5029864   1.0406536
   0.4373504  -1.0362601   1.5743188   0.1167838  -0.1007440  -0.0397817
   0.3602855  -0.4794823  -0.3162942  -1.1828704  -0.8375645   0.9852631
   0.0908313  -0.0274161   0.1297241   0.2328496   1.3975715   1.4062313
  -0.1534675  -0.1771791  -0.8178551  -0.0761458  -0.2107485   0.0417643
   0.4437932  -0.0387353   0.9219972  -0.1778365  -0.0755844  -0.9883946
   0.2213882   0.0912752  -0.0799775  -0.5663412  -0.9294127   1.2283938
   0.6581021   2.7192407   0.1492442   0.1560001   0.0035513  -0.1124600
   0.3777825   0.8679089  -0.7090323   1.3049116  -0.3916225  -1.6247227
   0.1263373  -0.3634473   0.0715803   0.0511345   0.0465001  -0.5902149
   0.2937160  -0.4152807  -0.0413432   0.3518697  -0.1424165   0.2625265
  -0.1474160  -1.0523829  -1.3705681   0.1839204  -0.3867926   0.6891938
   0.0070485  -0.2725374   0.0088441  -1.4528203  -0.8834936  -0.2980703
   1.4439844   0.5649510   0.3035028   0.1800719  -0.0024538  -0.4271178
   0.1807694   0.4252132  -0.3771615  -0.1262175   0.1670458  -0.7068295
   0.0309236  -0.0353702   0.0532858   0.1638779  -0.3535217   0.7395260
  -0.9760511  -0.8685902  -0.5742431   0.0752830   0.2896618   0.0487748
   0.7151272  -0.0069304   0.2378981   0.2475328   0.3764078   0.4554662
   0.1641673  -0.0060043  -0.0001581   0.3410742  -1.9933581  -0.0827841
   0.1442496   0.6676454  -0.6376764   0.0544122   0.1884490   0.1221819
  -0.4012250  -0.4879581  -0.0079465   0.5515261   1.2460574  -0.7507388
   0.0577463   0.1406891   0.0824413   0.7559291   0.6407830  -0.7056745
  -0.4627249   0.1967057   0.6030697   0.2864738  -0.0806652   0.0874571
  -0.8811139  -0.7851679  -0.8986797  -0.4231033  -0.5596875   0.0151843
  -0.1180799  -0.2419747   0.3027678  -0.5260885  -0.3480853   0.2065090
   0.7799698   0.3510707  -1.3419066   0.0380116  -0.1873115  -0.3603736
   0.4016364  -1.1670823  -0.1682454   0.2585675  -0.7587491   0.2193457
   0.0793848  -0.1181414  -0.3117929   1.1105235   0.0554530   0.5466784
   1.2355263   0.9562582  -0.1835350   0.3079911  -0.0690352  -0.0032476
   0.4308770   0.0960906  -0.6007208  -0.8035928   0.3939728  -1.4491565
   0.1513310  -0.1812626  -0.1080498  -0.0821359  -0.1415731   1.0756885
  -1.2795461  -0.3927153   0.0825126   0.0383004   0.3433697   0.2637438
  -1.6962841  -0.2080150   0.5043891   0.5724650  -0.1936481  -0.7536141
   0.1870735  -0.1294371   0.2134252  -0.4462059   0.7284296   0.3023282
   0.8006440  -1.2558552   0.3603694  -0.1197598  -0.0983824   0.3968795
   0.7738907   1.3997991   0.1620318   0.0296760   0.3868000   1.4161037
  -0.1759869  -0.3231619  -0.0354260  -1.0303165   0.1537113  -0.6363770
   0.1619347   0.2172941  -1.1837275  -0.0352577   0.1853088   0.2686142
   1.6809761  -0.5507109  -1.7340025   0.9444177  -1.0172827  -0.3061839
  -0.0300773   0.4578812  -0.1259496  -0.1437701   0.9931733   0.5367968
  -0.7259645   0.1458437   1.0218100   0.2928835  -0.1329800  -0.0533040
  -0.1956155   0.0132127   0.3096647  -0.4241906   1.4174177  -1.3609446
  -0.0100927   0.0305981   0.1377517  -0.3793506  -1.0658146   0.9765565
   0.5533574   1.3346687   1.2754783  -0.0351295   0.0914145  -0.1020900
  -0.4012216  -0.4029632  -0.0466616   0.4570865   0.2661794   0.2433914
   0.0359199  -0.0382384  -0.0336487  -0.4460476   0.1748056  -0.2098670
   0.2709550   0.8828244   0.7677071   0.1137682   0.0434474   0.0415229
   1.2925752   0.1679242   0.2768173  -1.0105399   1.2713561  -0.8999184
  -0.0148919   0.0857723  -0.4380545  -1.2532815   0.4230948   0.9075152
   0.3241376  -0.3589595  -0.9695297   0.2457049  -0.1641239  -0.0281606
  -0.5605868   1.0978105  -0.4845507   0.6186341   0.0133660  -0.0922775
  -0.1253518  -0.0737284  -0.1815170   0.5742829  -1.1029741  -1.0007745
   0.5159495   1.7282115  -0.5793366   0.0645182   0.0163624  -0.0943072
  -0.5600311  -0.7377340   0.1431408   0.1962275  -0.0699047  -1.0345580
   0.4982879  -0.0286988  -0.0787612   0.8651155   0.5690368  -0.1110704
  -1.2276019  -0.8484257  -0.2155434  -0.2342092   0.3229218   0.0288347
  -0.1181935  -1.5881683  -0.6972131  -0.6655832  -0.0745271   0.3191606
   0.1434889   0.0627057  -0.0684368  -0.8103045   1.2514887   1.0955406
   0.1359631  -1.0953339  -0.5591632   0.4560422  -0.0979471   0.2519671
   0.2467950   0.2478890  -0.1707208  -0.1641212  -1.0061213  -0.5612271
   0.0492212   0.2718999  -0.0127378   0.1164971  -0.7116660  -0.9985477
  -1.5061860   0.7810828  -0.2653999  -0.0622101   0.0355144   0.0798713
  -0.5146792   0.5944869   0.9069939   0.9751022   0.4894030  -0.0724153
   0.0201333   0.1091379  -0.0064327  -0.2573028   0.0327514   0.1106200
  -1.1311680   0.3332796  -0.5243086  -0.1125393   0.0416148  -0.1790076
   0.5005087   1.2059265  -0.3594702  -0.1762695  -0.4120792   0.6428099
  -0.2661532   0.3229001   0.2286522  -0.0053125   0.4731238   0.2625075
   0.8868938   0.2142579  -0.6206917   0.3477457  -0.1527648  -0.2212338
  -1.0107749   0.6857078  -0.2424506  -0.3750648   0.5336044   0.8657042
   0.2912539   0.2674302  -0.0486439  -0.4033457   0.3449053  -1.0675329
   1.7720573  -0.7651925  -0.5299211   0.1287470  -0.2362914   0.2828689
  -0.9231365  -0.4291664   1.4165689   1.5749121  -0.1053830   1.0758840
   0.2591332  -0.3548823  -0.1702727  -0.6776888  -0.1495307  -0.2292916
  -0.2289396  -0.1838762   1.0963994   0.1724428   0.0704020  -0.0377536
   0.8396695   0.7031380   0.7544355   0.3549052  -0.2756859  -0.0258915
   0.0720537  -0.1166777   0.0189930  -1.1723845  -0.7380066   0.3880281
  -0.8533741  -0.3581832   1.5877627   0.3180100   0.1338315   0.1856821
  -1.1579871  -0.6597133   0.3551360  -0.9047510  -0.9839545  -0.0659719
  -0.0496126  -0.5263044  -0.2618023   0.0137382   0.2857758   0.8869559
  -0.3475384   0.2212452   0.7411641  -0.3676678   0.1020642   0.1477646
   0.4530454   1.7587942  -0.1994350  -0.8744924  -1.0137271   1.2193388
  -0.2487372   0.0745639  -0.2712474  -1.7601667   0.9990106   2.0835429
  -0.4343622   0.3382955   0.1150278   0.1472072   0.3209608   0.0578714
   0.1879307   0.3074294  -0.3434937  -0.0347992  -0.1448049  -0.0106320
  -0.2229045  -0.3488779  -0.0616881  -1.5110404   0.9488424   0.8091401
   1.1914357  -0.7454472   0.0992536   0.0025785  -0.0326105  -0.3055698
  -0.4050253   0.4366124  -0.4495674  -0.0160919  -0.1889355   0.2331899
   0.0337440   0.1308508  -0.1145423  -0.3975386   0.2395937   0.2691022
  -0.9418499   0.4177445  -0.4331618  -0.1229486  -0.0170788   0.0286609
   0.1831594  -0.4896245   0.4316139  -0.0695950   1.4240581  -0.2531547
   0.2667840  -0.3580992  -0.3961406  -0.3741708  -0.7013875  -1.6121261
  -0.6643899  -1.0947073   1.6574348  -0.2511825   0.4388700   0.0072970
  -0.5290759   0.2904863   0.3939463   0.0179473   0.1165532  -0.9005765
   0.1081303  -0.0883602   0.0926607   0.0840518   0.1160736   1.3068260
  -0.2463218   1.2342765   0.6117070   0.1873063  -0.0629386  -0.4556162
  -1.0245745   0.0832607  -0.9797219   0.5421932  -1.6936180   0.6881145
   0.2774513   0.2720578  -0.0181538   0.1678889   0.2725124   0.1111120
  -0.7463650   0.4544471   0.0758020  -0.0486945   0.0793309  -0.0254712
  -0.2009232   1.0265150  -0.8532284   0.4029380  -0.4987525  -0.1782640
  -0.1643635   0.1010031  -0.0951832  -0.0525829  -0.6827681   0.0541957
   1.0997476  -0.2478694  -0.9293470  -0.1487461   0.0086242  -0.1457559
  -0.6727557  -0.0636106  -0.5091011   0.2197036   1.3535844  -1.1754726
  -0.1675452   0.0000240   0.0286310   0.4793635  -0.0685976   0.0247923
  -1.1896715  -0.8025725  -0.6767979   0.0072343   0.1458027   0.0745309
  -0.3381381   0.3433049   0.1668978  -1.1101048   0.7476983   2.3716418
   0.2599898  -0.0610658   0.1659823   1.1314750  -0.9317820  -0.6298151
   0.7715594  -0.5275758   0.1231894   0.0589932   0.1930559   0.1406058
  -1.2572439   0.6093521   0.6696850  -1.3110734   0.9297236   0.2477435
  -0.2940028   0.0689792  -0.2332699   0.2992373  -0.4635892   0.5167893
  -0.4081033  -0.2773576   0.0755811   0.0527117  -0.1523016   0.1686276
   0.9565584   0.6302674   0.9459890  -0.0840511  -0.4775173   0.4544891
  -0.4587521  -0.0500070  -0.1128134  -0.6393307   0.2762938  -0.0869170
   0.6936274  -0.5918482   0.6800184   0.2659020  -0.3711795   0.2503823
  -0.1390132  -1.1664282   0.0843717   0.2960034   0.5557050   1.3604260
  -0.2153641  -0.0368463  -0.0881015   0.2038306   0.3490038  -2.0904398
  -0.3659955   0.3262346   0.1116957  -0.3737959  -0.1967152   0.0771037
  -1.0356018  -1.0190707   0.3394254  -0.0328237  -0.1165974   0.0859980
  -0.2736373  -0.0333993   0.2568807  -1.1191031   0.2219937  -0.2732033
   0.2436748  -0.9669462  -0.3865968   0.0263193  -0.4262450   0.3447889
  -0.0077009   0.0806401  -0.4998873   0.8869686   0.0974074  -0.2576975
  -0.0644551  -0.0612798  -0.1624430   0.2720520  -0.2414436  -1.4384294
  -0.7895835  -1.0595678  -0.1667645  -0.1938947   0.1265711   0.1914484
   0.4835577   0.3601085  -0.3159224  -1.2746912   0.8905075  -0.0221363
   0.5931385  -0.1005699  -0.1184914   1.1556819  -0.2246367  -0.2324262
  -0.2627576   0.3224814   0.5727223  -0.2805283   0.0867299   0.2103534
  -0.2348398   1.4573407  -0.4542111  -0.6489729  -1.3161709   1.3102995
   0.1918326   0.1305234   0.1854122   0.2275326   0.1874188   0.7663310
   0.0395569   0.1093779   0.3220654   0.1268045  -0.1390347  -0.1670644
   0.7943479   0.5198438   0.2934625  -1.5886811   0.3463870   0.1585109
   0.4224196   0.2017921   0.2013284  -0.4968207  -0.2688403  -0.5452951
   0.2539811  -0.5379124  -0.6287073  -0.1248089  -0.2282445  -0.2032155
  -0.1062870   0.2997556   0.3704210  -1.7204435   0.6046818   1.1571694
   0.1998060   0.0122876  -0.3340460   0.9605214   0.0307181  -0.1408569
  -0.5556281  -0.2226238   1.2068583  -0.1862734   0.0779925   0.2134328
   0.7472127  -1.3968755   0.4915756   0.2766680   0.1391733   0.0400496
   0.1401960  -0.2151004  -0.0903047  -1.0112293  -0.5866761  -0.7029998
   0.7247110  -0.0679472   0.1004239  -0.1285340  -0.0953680  -0.1074247
   0.5965955  -0.5309560   0.0796691  -0.7295159   0.1101627  -1.1710745
  -0.1737247  -0.0186655   0.0617723   0.1891408  -0.1011939  -0.2422968
  -0.6902401   0.2800276  -0.5688381   0.0454444  -0.0637187   0.0223985
   1.0977980   0.3755626  -1.7065450  -0.0722750  -1.1074853  -1.1547893
   0.1017180  -0.0435845   0.3073247   1.4522973  -0.1778966   1.5406075
   1.0188584   0.7702810  -0.8601535   0.0816967  -0.1912856   0.2549993
  -0.2324400   1.4158857   0.0042441   0.5968378  -0.6102490  -0.5345682
   0.0447132  -0.4178083  -0.2160054  -0.5687432   0.5650176   1.4364229
  -0.6956354   0.0447734   0.5001767  -0.2476648  -0.0143112  -0.2605545
  -0.3761235  -0.1234275  -0.8825170   0.8539011  -0.8253196   0.4242877
   0.1935366  -0.1659347  -0.2705178   0.3481254  -1.2783844   0.0388645
   1.7179955   0.4524781  -0.7881201  -0.2508159  -0.4738067   0.0822449
  -1.3496610   0.0344334  -1.3342390  -0.2860707  -1.0202895  -1.0932676
   0.2649997   0.1597557   0.1490515  -0.9971292  -0.5322924  -0.5424480
  -1.1617473   0.3609237  -0.4798307  -0.0340006  -0.0645352   0.2785786
   0.5984843   0.6821703  -0.2206134  -0.0592865  -0.6215691   0.2578479
  -0.0278373   0.0247110  -0.1012891  -0.4363741  -0.4372131   1.1247588
  -1.1726201   0.0718055   0.5110674   0.4512594  -0.1729888   0.2193316
  -0.0812771  -0.6659463   0.9274978  -1.6101974  -0.2315504  -0.3024964
   0.2854706  -0.4515313  -0.2190564  -0.5799364  -0.2855420  -0.6667523
  -0.7358115  -0.7239347  -0.0244252   0.3289132   0.2231674   0.3098279
  -1.2280581  -0.2717318   0.3223459   0.1929653  -0.0794631  -0.2127846
  -0.1101333   0.1914242  -0.1117040  -0.3888169   0.4787724  -1.7000345
   0.8566481   0.2890495  -0.8719174   0.1221915  -0.1425258  -0.0242776
   0.5291962  -0.2034250  -0.4227483  -0.5927145   0.5698130   0.8489574
   0.0510236  -0.0222107  -0.3944269   1.1178955  -0.2412979  -0.1333029
   0.3076048  -1.0420645   0.4085725   0.3851587   0.0603945   0.1289202
   0.6427351   0.7802746  -1.1710642  -0.8437216   0.3591478  -0.4863360
   0.1359017   0.2534444  -0.1969264   0.5001204   0.3087028   0.0996268
   0.2460242   0.0799867  -0.5067073   0.2423130   0.1663866  -0.1567098
  -0.5535343   0.2058435  -1.1138892   0.9284678  -0.4407822  -0.1812270
   0.2797808   0.0996138   0.0516657   0.2336233   0.4791457  -1.5375768
   0.8299555  -1.0478003  -1.1699722  -0.2921027   0.1284566  -0.2360638
   0.8891033  -0.2746193   1.2630986  -0.7472669   0.4120442   0.7791083
   0.5381096   0.2406510   0.3179307   0.0319371   1.0435433   1.0057606
  -0.8909462  -0.4194610   0.0032585  -0.1740817  -0.2479151   0.2419334
  -0.7192698   1.4587120   0.8081652   0.1815981  -0.0450969   0.0769739
   0.1891176   0.2079699   0.0063245  -0.1202001   0.5105045   0.0489772
   0.7370172   0.2772259   1.3490709   0.3167557   0.1326159   0.3359849
  -0.5683904   0.3009366  -0.5079112   0.0683471  -0.2074515  -0.4263156
  -0.0511873   0.0572745   0.1249010   0.3997036   0.8940317  -1.2677961
  -0.4582146   0.6154404   0.0438757  -0.1006084   0.0034056  -0.1387142
  -0.8027944   0.4486455  -0.4941143  -0.0076468  -0.6479503  -0.0849998
   0.0997332   0.3352748   0.0958500   1.2547507  -0.3804764  -0.1057648
  -1.4340015   0.0244296   0.1421990   0.0564458  -0.0615974  -0.2829682
  -0.7824267  -1.1015102  -0.6657853  -0.4612745   0.1665710   1.6092121
   0.2191796   0.0142852   0.0927044   0.5028546   0.1198186   0.1907313
  -0.7487392   0.0665860   0.0697525   0.1595107   0.1506346   0.2036555
   0.8582812   0.5990919   0.0315277  -0.5975124  -0.3547584   0.3676506
   0.2091648  -0.0867446  -0.0861713   0.1364936  -1.5391407   0.0888407
  -0.1524417  -1.7728916   0.1375248  -0.2619289   0.3118166   0.2615017
   1.0215313  -0.9947480   0.1314871  -0.6109746   0.3477470   1.1582108
  -0.0546406   0.0872243  -0.2651113  -0.3974737   0.3910260   0.7133816
  -0.0936680  -1.0506278  -0.4195769  -0.1693167  -0.0944142  -0.0938676
  -0.6316227  -0.8273081  -0.4523054   0.5991524  -1.3697343  -0.3826110
  -0.1891256  -0.0879918   0.1044257  -0.1904639  -0.4820871  -0.1549960
   0.6761996  -0.0011246  -0.2819863  -0.0214988  -0.1806480   0.2427090
   0.3932812  -0.3890018  -0.4037217   0.3930307   0.9495971  -0.0560377
  -0.0809944  -0.1978060   0.1141128  -0.0316163  -0.5291094   0.5887260
   0.7317954   0.0081169   0.8598393   0.2304618   0.2037465  -0.2531039
  -1.0256716  -0.3161838  -0.3947586   1.5581175  -2.9413975   0.5177024
  -0.0464092  -0.0763466  -0.0904234  -0.4882939   0.8864677   1.1783814
  -1.3081617  -0.2650424  -1.2331003   0.1282778   0.0446700   0.4747456
   0.6030249   1.0393591  -0.4753391   0.6063347   1.3762203   0.4010564
   0.1737885  -0.0033878  -0.2764083   0.5076427  -0.6351592  -0.9614524
  -0.1650467   0.5958803   0.1829312   0.2347218  -0.1955832   0.2184915
   0.4533379  -1.1226884   1.7422118  -0.7449668   1.9002767  -0.2192383
  -0.0115040  -0.3063024  -0.1840816  -0.0019963   1.2520866  -0.1110011
   0.1199372   0.1333091   0.3157265  -0.3007033  -0.0806949   0.0222289
  -0.0972465  -0.9442101  -0.5997593  -0.5233873  -0.8357936   0.1514014
   0.0976135   0.0651453   0.0910010  -0.8823244   0.4262634   1.7710010
  -0.2958867  -1.1188399  -1.1535663  -0.1481410  -0.1615925   0.0085884
  -0.5264061   0.1286659  -0.0610910  -0.5631421   0.6605099   0.5516001
   0.0345494   0.0447244   0.3629125   0.2471440   0.7194883  -0.2191343
   0.1097380   0.9004131  -0.4894648  -0.0133160   0.0645728   0.0439630
  -0.2881138  -0.7759330  -0.7292358  -0.5085489  -0.5726911  -0.3070398
  -0.0637163   0.0347182  -0.0897968   0.1272538   0.9676160   0.1960558
   0.3117256   0.6879249  -1.0981372  -0.0797918   0.0692370  -0.1519462
  -0.6393818  -1.3254142   0.5694240  -0.5438713  -0.2285905  -0.5391773
   0.1733030   0.2306161   0.0539064  -0.9413204   0.4048678   0.6195868
   0.1029567  -0.2976278   0.8617916  -0.0807626  -0.3216193  -0.0794608
  -0.6611063   0.3862665  -0.0036597   0.0333054  -0.4190211  -0.4668872
   0.3667107   0.1415332   0.3293537  -0.8808999  -0.4391031  -0.3567500
  -1.2187340  -0.1780745   0.1112451  -0.0745966  -0.0790320  -0.0606656
  -0.6573655  -0.8693196   0.9609475   0.9062833  -0.3686266  -0.2190458
   0.0341455  -0.0771377   0.0829020  -0.3354160  -1.0039040   0.1328078
  -0.1840586  -0.6233009   2.0880959  -0.1280464   0.0061961  -0.1602826
   0.3549660   0.0468160  -1.1478540   0.7945293   1.1037798   0.1915987
  -0.0022322  -0.0526243  -0.0793775   0.4674498  -0.0479994   1.1505887
   0.3887988  -0.2789832  -0.4935629  -0.3712028   0.1337603   0.0015555
   0.2567056   0.9647070  -1.3835297  -0.4122135  -1.3557640  -0.0077771
  -0.0953327  -0.1380034  -0.0089146   0.5599189  -1.8010937   0.5820494
  -1.8910797  -0.7549145   0.5023430   0.0901438   0.0462786  -0.2201385
  -0.3631756  -0.1322511   0.8852083   0.7712107   0.7646905  -1.2947580
  -0.1856379  -0.0656683   0.0445951   0.3042188  -0.5068949   0.6431895
  -1.3557567   2.1623132  -0.5617094  -0.2078420  -0.5082728  -0.1818318
  -0.6785486   0.7580872  -1.0910929   0.3561677   1.7003797   1.6507550
  -0.1136297  -0.1727290  -0.0451134  -0.5143540  -0.0838053  -1.7717472
   0.8184863   0.1959258   0.3618827  -0.1170861  -0.3480944  -0.2102364
  -1.3085778   0.5963728  -0.8813033   0.5973589  -0.3104474   0.2115550
  -0.1808005  -0.0810797   0.0653328   0.3820623  -0.7479768   0.6755392
  -0.4436103   1.0365146  -0.9372037  -0.3315697   0.1758294  -0.4338113
   0.8433554   0.8195584  -1.4619673  -0.2749247  -1.0726138  -0.8239565
   0.0018624   0.0201104  -0.1460792   0.2878420  -0.1497801  -0.4246194
   0.7347139  -0.8255366   0.4197901   0.1085793   0.3102177   0.1709387
  -1.0971234  -0.1041590  -0.2544542  -0.0254347  -0.5826072   0.0147032
   0.2046547  -0.0757095  -0.3039712  -1.4510182  -0.0518550  -0.0098852
  -0.1200825  -0.2608029   0.9837659   0.3253323   0.0403544   0.0015599
  -1.2758719   0.2820004   0.6960693   0.1797133  -1.2670189   0.3997293
   0.0543080  -0.2715604  -0.1055718   0.1472183   0.0499885   0.5180326
  -0.2807256  -0.8883840   0.1850981  -0.0602644  -0.3426537   0.0788357
   0.3894305  -1.2428423  -0.2222838   0.6648796   0.1430302  -2.1116280
   0.3231181   0.1463861  -0.0582941   0.5636261  -0.6111989   0.3474352
  -0.0479823  -0.3965644  -0.2591141   0.3257487   0.2623308  -0.0332346
  -0.3966828  -0.0349696   1.6083371  -0.2989737  -1.0537623  -1.2952389
   0.0138131  -0.1759830  -0.1313324  -0.5761291   0.2694832  -0.2736675
   0.5417932  -1.1621341   0.5926476   0.3185757  -0.0840691   0.1229696
  -0.6515139   1.1933964   1.8179513  -0.0072003  -0.5049494  -0.3144558
  -0.2541204   0.2148281   0.0400236   0.6985219   0.0912460   0.0906495
   0.8806207   0.7023752  -0.7638717   0.0566382  -0.1408024   0.2937822
  -0.1200200  -0.2492095   0.2515306   0.2465571   1.4309180   0.4958882
   0.0275838   0.2786410  -0.0299905  -0.4234761  -0.1676083  -1.2366254
   0.1408339   0.5250436   0.2547863   0.0302631   0.4303642   0.1234605
   0.5374798  -1.6916477  -0.4977889  -1.1858500  -0.4362542  -0.7093871
   0.1184731   0.1255686  -0.1435310  -0.6408370  -1.7291529  -0.4807266
   0.9533721  -0.1471660   0.3346156   0.2569965  -0.1842983  -0.2824452
   0.3619275   0.0504820   0.7102327  -0.7175874  -0.0666747   0.8828747
  -0.0749903  -0.0896924  -0.2785582  -0.0683710  -0.9246176   0.5105706
   0.0972763   0.1769591  -0.2663957  -0.0261137  -0.1228763  -0.0471769
  -1.0694419  -0.6753479  -0.4953134   0.2202657  -0.5492746  -1.3930781
  -0.3163016  -0.2364713   0.2656143  -0.3062559  -0.1502865  -0.2641891
   0.7384403  -0.0680253   0.7515003  -0.0913137   0.3153683  -0.3243183
   0.2220917  -0.0257419   0.0239115   0.1472344   1.3917852  -0.0613625
   0.1125442  -0.1790946  -0.2279714   0.5213382  -0.0014401   1.2140768
  -0.8640000   0.1118502  -0.8819837   0.1475408   0.1911505   0.2160363
   1.2051995  -0.5228478  -0.4444888   0.5236347   0.4961169   0.8927466
   0.1616083   0.2024664  -0.0345848  -0.5550003  -0.9700398  -0.9709760
  -1.5905535  -1.3457460   0.2767387  -0.1787202  -0.0719432   0.3811536
   0.8805816  -0.1619799  -0.0689792  -0.1934336  -0.8434674  -0.0788832
  -0.2603247  -0.1394458  -0.0977325  -0.1446962  -0.0892981   0.8162326
   0.6472554  -1.6031061   0.1857903   0.0362877   0.0560124   0.2210926
   0.4378911  -0.3987756   0.0478858   0.6315769  -0.2435651   0.4077808
   0.3001239   0.1008212  -0.1561562  -1.0965736  -1.3768245   0.3320228
  -1.5719049   0.3867312   0.2783669  -0.0412961  -0.0454643   0.2296967
   0.4009707   0.9360912   1.3011647  -0.6258075  -0.5620280  -0.8125251
  -0.1690623  -0.1490056  -0.1328667   0.3052679  -0.3904605   1.0230835
  -0.7982885   0.6948229   0.1247483  -0.3552143   0.1930119   0.2680642
  -1.1093125  -0.1581631   0.0968427  -0.5366919   1.0766573   0.3293165
  -0.1533304   0.4505657  -0.1634303  -0.2243560   0.3088973  -0.8311683
  -1.3249695  -0.8469119  -1.2627884  -0.1223420  -0.2467362   0.0901436
  -0.0656939  -0.5413161   0.2585170   0.0119774  -0.0075100   0.2884099
  -0.0285600  -0.2657024   0.1770911  -0.4685709   2.5777489   2.0653478
  -0.1077706   0.4041367   0.4048585   0.0464806  -0.2200510  -0.1759885
   0.7587462   0.1055612   0.5921716   0.4237308  -0.9739030  -0.5387178
   0.0957585  -0.2796973   0.0858526  -1.5062619  -0.2991220  -0.4844072
  -1.3993798  -0.5853052  -0.5302377  -0.1773798  -0.0470331  -0.0379885
  -0.0413845   1.2811247  -0.0393145  -0.6860496   0.3649059  -0.1947983
  -0.2833766   0.0008800  -0.4170119  -1.4820796  -0.8407707   0.5002394
   0.8055871  -0.5225458   0.0030088  -0.1476853  -0.0701066  -0.1029663
   0.3782836  -0.8027619  -0.7986378   0.5116763   0.6195708  -1.1748604
  -0.1493088  -0.1890232   0.3739275  -1.1103583  -0.6731092  -0.1636090
   0.3230406   0.0616610  -0.6589847  -0.0100433   0.2398110  -0.0512121
   1.1034364   0.0626836   1.4551862   0.9496092   1.3559822   0.4622784
  -0.0932672   0.1047217   0.3642584  -1.3016653   0.8964384  -0.3882969
  -0.3697149  -0.2883699   0.0861562  -0.2014652  -0.5208846  -0.1940028
  -0.1630482  -0.8594731  -0.9085431  -1.0692971   0.5496027  -1.0284764
  -0.1280156  -0.2153744   0.1539472   0.1013133   0.9064279  -2.2603272
   0.1620035   1.6174066  -0.2936057  -0.3773728   0.1959223  -0.1671937
   0.4369059  -0.6342935   0.2332588   0.2569868  -0.0334132   0.5921597
   0.0581579  -0.2283224  -0.0294035   0.7640112   0.2023168  -0.2948345
  -0.5196112   0.3536470   0.3786322  -0.2408760   0.2699747  -0.3569197
   1.2482073  -0.7892699   0.1498987  -0.2128192  -0.0656970   0.1454138
   0.1729960  -0.2282690  -0.0094084  -0.4105686  -1.2178181   0.5401917
   0.8320181   0.0298924   1.3589385  -0.2559753   0.0382236   0.0751534
  -0.0742088   1.1382530  -0.3110856  -0.4685565  -1.2000413  -0.8025270
   0.0595606   0.0071590   0.0551428   0.4935061  -0.2877269  -0.0609845
   0.1955816  -0.1289667   1.0680411  -0.1999218   0.2925118  -0.3255788
  -0.9093948   0.0241918   0.7915466   0.3558592  -0.1231925  -0.5632835
  -0.0337301   0.1926136   0.4299144  -0.4105032  -1.0276454   0.0592403
  -0.2313507   0.0696126  -1.5928739  -0.2838897   0.2858751   0.2155897
   0.0585652   1.2554622  -0.5810755   0.3597490   0.2683933  -0.1597981
   0.0393764  -0.2477650  -0.1637011   0.2005975  -0.4388442  -0.5444054
  -0.3493535   0.1153591  -0.4027911  -0.0069153  -0.0543878  -0.3435557
   0.5493274   0.7403242   0.5761573   1.2871701  -1.6527064   0.1333144
   0.2456416  -0.0605864   0.1918322  -0.1803794  -0.8354143  -0.1496174
   1.2344646  -0.4683054   0.4983067   0.0035341   0.1553814  -0.1120728
   0.5289851   1.8885321   1.4206892  -0.6888350   0.3241333   1.2032031
   0.1217149  -0.2149638  -0.3235237   0.2508047  -0.1346040   0.2940555
  -0.1908721   2.0619409  -0.8401966  -0.0211727   0.3415518  -0.2291715
  -0.1944523   0.4243326  -0.2290001  -0.7988826  -0.3701607  -0.5404007
  -0.1054056  -0.0799965  -0.0449420   0.2088227  -0.6851219   1.0415884
  -1.2434285   0.2584963  -0.3707916   0.2639959  -0.0684757   0.0790711
  -1.2952984   0.1419243   0.9137105   0.0214023   0.6234993  -0.0153528
   0.0305486  -0.0468235  -0.0816300   0.6680292   2.3024231   0.1402783
  -0.0087304  -0.3037244   0.3399272  -0.0311666  -0.3045845  -0.0695365
  -0.1320455  -0.2213803   0.0069463   0.0130541  -1.0265987  -0.2154177
  -0.0663349  -0.0487479  -0.1412391   0.2593067   0.3346315   1.3004684
   0.1765472   0.2945374  -0.8790336  -0.2384817   0.2706050   0.2083215
  -0.5670840  -0.6950231   0.3209312   0.1768091  -0.7602497   0.2091070
  -0.0310393   0.1171785  -0.2520157  -1.2239706  -0.1915402   1.2538673
  -0.6445564   0.7747968  -0.9424134  -0.0388650   0.3408614   0.1414972
  -0.2114238   1.3347629  -0.6305866  -0.0462168  -0.6406438   0.5618179
   0.0511238   0.0742341  -0.2464685  -0.1231805   1.0379275  -1.3533822
   1.1053987  -0.2834095   0.4886999   0.4698655   0.0282627  -0.1677658
  -0.5347299  -1.0520916  -1.1572715   0.9313214  -0.1923583  -0.4757841
   0.0289282   0.2796074   0.1664202   1.2336459   2.2274812  -0.2265236
  -0.2113306  -0.0505142   1.9059281  -0.0435773  -0.1257708   0.1184752
  -0.5498910  -1.7364504  -0.6433767   0.5497928  -0.7313181   1.1994950
  -0.0126533   0.3245557   0.2884601   0.2163961  -0.4397661  -1.1779132
   0.9616878  -1.0911173  -0.2826682   0.2931513  -0.2882294   0.1575863
  -0.5907429  -0.0610867  -0.0495110  -0.0072774   0.3982139  -0.3440854
  -0.1045547   0.0975466   0.1718665  -0.0731026  -0.0845996   0.2920983
   0.9524446   0.3561045   0.2482831  -0.2054021   0.1036226   0.3610410
   0.5030863  -1.3362472   1.4995572  -2.1154778   0.2930227  -0.2096076
  -0.0266527  -0.0611502   0.1273490   0.0416617  -0.0605190  -0.8962494
  -1.6368835  -0.4231188  -0.1472828  -0.0060897  -0.1333894  -0.0824688
  -0.8357091   0.6888597  -0.1121550  -0.3949519   0.1721247   0.7534592
   0.2045464  -0.1472193   0.0612177  -0.3235021  -0.2219053  -0.0566759
   0.7473283  -0.5142992   0.2289679  -0.0439359   0.2002252   0.0626899
  -0.3018089   0.8339064  -0.3410192   0.2553660  -0.2073550  -0.7737818
  -0.0379882  -0.1196911  -0.0197185   1.5047701  -0.7616985  -0.1665043
   1.8341606   0.1536505  -0.4140010   0.1739036  -0.1490037   0.0409346
  -0.4586058   0.6096226  -0.3806540   1.2642672   0.7696325  -0.7301433
  -0.0778981  -0.0189471   0.0941079  -1.0906779  -0.9121128   0.3985080
   0.2338732   0.8932137   0.1131135  -0.0668512  -0.0134732   0.1424525
  -0.1195394   1.4728329  -0.9557780   0.8544646  -0.3153832  -0.0321450
   0.1361715   0.2419649  -0.1140030   0.5176325   1.3592295   1.2699528
  -0.5623469   0.5371067  -0.2906705  -0.1994433   0.1688827  -0.2427545
   0.4468046  -0.4995279  -0.0174031   0.6686895  -0.6540146   0.2189099
   0.0454863  -0.0135803   0.1432810   0.0528213  -0.4528857   0.5748260
  -0.8820307  -1.1928015  -1.1292226  -0.0677475  -0.2265305   0.0916335
  -1.1019723  -0.3159026   0.3942920   1.8050676   1.0073688   1.1438724
  -0.1851504  -0.3908501   0.2659616  -0.0391803  -0.0591261   0.4498780
  -0.7381692   0.8448714   0.6299752  -0.1136455   0.0761406  -0.1267515
   0.7013122   1.2590199   0.7586012   0.3893882   0.4659388   0.1707985
  -0.0831717   0.0001409  -0.2683218   0.2809490  -0.1794907  -0.5270184
  -0.5881576   0.1270496  -0.3380622   0.1610161  -0.1886427  -0.2202336
  -0.9938770   0.0336040  -0.6118231   0.5415196  -0.1491338  -1.6551606
   0.1274230  -0.0770074   0.2587526   0.7070911  -0.0118150   0.5091141
   0.0380747   0.9394699   1.0806691  -0.0529123   0.1241776   0.4767235
  -0.3696900  -0.4582490  -1.9828145   1.6283462   1.0468070  -0.7874838
  -0.1744427   0.0054944   0.0004901  -0.2562817   0.5247204   1.0300315
   1.3319758  -1.6365994  -1.5595132  -0.1601872  -0.1553058  -0.0510694
   0.7174682   0.2299409  -1.2832945  -0.8767977   0.4197477  -0.1759566
   0.4708242  -0.1932283   0.1763193   0.0284044  -0.7069156  -0.5201399
  -0.8291710  -0.3134352  -0.4667763  -0.1692657   0.1953866   0.2375955
   1.0042231   0.1245599  -1.7288234   0.2783867   0.1083258   0.0763089
  -0.1170169   0.1082447   0.1019467  -0.1429370  -0.2428874  -1.2151503
  -0.6319911  -0.1295097   0.1284298   0.1756081   0.4221382   0.0509312
  -0.9256104   1.0018360   0.1358286   0.7299931   1.1184401   0.4219694
   0.1364510   0.0385121  -0.0294443   0.8698084  -0.7557311   0.7511338
   0.3747637   1.1846751   0.1113983  -0.1034476   0.2020519   0.0799866
   0.0495223   0.5091463   0.2405582   0.3143049   0.4245314   0.6073821
  -0.1012493   0.1401063  -0.0400685   0.2462185  -1.0472553  -1.2307713
   0.2678998   0.6775327  -0.2578046   0.0430260  -0.1141067  -0.2359861
  -1.5113818  -0.7430504   0.1303366   0.8926284  -0.5388666   0.8450844
  -0.2456426   0.0447895  -0.3558681  -0.6800305  -0.7804053  -0.5181344
  -0.3897373  -0.9810324   0.1019837   0.0536816   0.1304641  -0.2792340
  -1.7193529  -0.6093406  -1.3894422   0.0771915  -0.0594067  -0.6056877
   0.1611408  -0.1869839  -0.3127063   0.5364691   0.7989949   2.1210692
  -0.1700911  -1.1365883  -0.5527352  -0.1854241   0.3756763   0.1914469
   0.0267207  -1.1103840   0.2442342   0.5266647   1.1802984  -1.4974175
  -0.1044125   0.0399803   0.0109695   0.9464389  -0.4010855  -0.5430619
  -0.6747922   0.4729843  -0.5465559  -0.1033320   0.1231803  -0.4185268
   0.3555575   0.4437779   0.4639575   1.7564822  -0.5963767  -0.3437263
  -0.2715501  -0.0318133  -0.2513020   0.2405975  -0.0588699   0.3007892
  -0.3103174   0.8957953   0.5137877  -0.0109414  -0.4043472  -0.1470090
   0.2491068  -0.2382394   0.3210854  -0.6577036   0.4717198   0.1868810
   0.1963927   0.1742006   0.0683705  -0.0412794   0.3922109   1.1134120
   1.4902076  -1.3717839   0.1691566   0.3151893  -0.1522907   0.0307558
  -0.2180993   1.1428672  -0.2804864  -1.2630719   0.8160446  -0.3931878
  -0.0329982   0.1285682  -0.0487783  -0.1643985   1.3815759  -0.1754661
   0.9263980  -0.3381504  -2.1409098   0.0914119  -0.0763230   0.3385708
   0.3716879   1.2390646   0.2535517   0.5423888   0.5382644  -0.1243714
  -0.1950351  -0.1816367   0.0084154   0.4965307   0.8476117   0.8797891
  -0.3339179  -0.5442975   0.2282068   0.1641023   0.2164139   0.1895981
  -0.1771101   0.7609065   0.1918430   0.0730003  -0.9125515   0.3256624
   0.1819994  -0.2251311  -0.0650973  -0.0506803   0.1280277  -0.5280112
   0.7120978   0.4878707  -0.7695272  -0.1746817  -0.1037944  -0.3027721
  -0.6413336   1.2330805   0.5724809  -0.4263430  -0.5802491  -0.8249449
  -0.1592300  -0.0475384   0.1886725  -2.0019816   0.6791699  -0.4605454
   0.0133911  -0.0764134  -0.0402690   0.0038218  -0.0681610   0.1287527
   1.3174603  -1.0023803  -1.0382320   0.3395162  -0.5315042   0.1746991
   0.1750070   0.3727815  -0.1565422  -0.3539481  -0.1408815  -0.4297158
  -0.0072698   0.0484469  -0.0984104   0.1477870   0.1623610  -0.0492273
   0.3474938   0.4421329   0.4310416  -0.4759368   0.6149167   1.4400045
  -0.3230467  -0.2237578   0.1466051  -0.9554189  -0.4531882   0.1036151
   0.7370698  -0.2332508  -0.2863516   0.2239534   0.0712657  -0.2354099
  -0.4689544  -0.5121234  -0.2962758   0.2091430   0.3642016   0.5112754
   0.0419187   0.4419817   0.0215308   0.5364976   0.2065534   0.2916560
  -0.1521555   1.3895795  -0.2751588   0.1127651   0.2305415  -0.0925394
  -0.1619577  -0.9555785  -1.8000461  -0.5477186  -0.0946689  -0.3951224
   0.0933162  -0.0418828  -0.0523890   0.0945693   0.5692141  -0.5174606
   0.7361415   1.2431038  -2.2630400  -0.1589853  -0.2026847  -0.1203919
   0.3138169  -0.9514450   0.5276462   0.2425478  -0.4431188   0.8440032
  -0.4871007   0.0358195   0.2218013   1.8330830  -1.2104955   0.1389143
   1.7603294   0.5884382  -0.3461399   0.0759714  -0.0558317   0.0122366
  -0.9313553  -0.1101360   0.4655657   0.3780409   0.5033962   0.2116375
  -0.2119523   0.3514963   0.1132914  -0.2247712   0.6553719   0.3879447
  -0.4448441  -0.4371822   1.0869381  -0.0647476   0.4585498  -0.0779599
  -0.8151894   0.6270895  -0.3688550  -1.0103817  -0.8989392   0.0645933
  -0.1308185   0.2291503  -0.0457379  -0.2709655  -1.2495536  -0.6675051
  -0.4032150  -0.0151507   0.1982795   0.1502576   0.0773151   0.0887856
   0.4441665   1.5772903  -0.0332396   0.3856645  -0.7651078   0.1942626
   0.1315207  -0.0023156   0.1030478   0.3579264   0.6335031   0.6974977
   0.0323912   0.0632386   0.3388045   0.2514157   0.0989545  -0.0106294
   1.2991238  -0.5415817   0.7718444   0.6763863   0.1469383  -0.1814100
   0.0043008  -0.1676321  -0.0080006   0.8582365   0.6468263  -0.9546423
  -0.9793026   0.9529731  -0.0847705  -0.1064820  -0.0360415  -0.1052289
   1.5751971  -0.7690443   0.6303081  -0.4809294   0.5042115   0.7459678
  -0.0584345   0.0998297   0.0777043  -0.1148248  -0.3569124  -0.0461938
   0.4867170  -0.9767407   1.0938617   0.1968898   0.1871258  -0.1647510
  -0.5098260   0.9627212  -0.1884039   0.6403952   0.5000225   0.1280496
  -0.3465091   0.0213074   0.0842784  -0.0407118  -1.2860347  -1.0897316
  -0.7333099   1.1187728  -0.7943866  -0.0501025   0.2816990   0.1184951
  -0.2019527   0.3387983  -0.9468242   0.5555265  -0.3804019   0.6765873
  -0.3254884   0.0217397  -0.1687837  -0.2226835  -0.0002501  -1.8955231
  -0.8909797  -1.1077468  -0.1404696  -0.0451224   0.0428375   0.1744869
   0.0060383   0.4411816   0.8746583   1.3802081   1.3168844   0.7233759
   0.3442199   0.0607553   0.0796449  -0.2121056   0.6364324   0.6914557
   0.9255752   0.3888948   1.0068251  -0.2746584  -0.0439147   0.0621195
   0.8981463   1.6212738   0.5157308   0.5957774   0.8000694  -1.1953606
  -0.0088291  -0.3092266  -0.1289577   0.2076836   0.3914889  -2.2782721
  -0.6796120  -0.6868068  -0.5162690  -0.0022569   0.1241258   0.0164243
   0.3485902   0.9635359  -0.6622701   1.2449871   0.5078621   0.0839883
   0.0836558  -0.0709922  -0.1116106   0.6451522  -1.6314993   0.2522663
  -1.3828879   0.2803447   1.0834635   0.0611863  -0.2521181  -0.0263606
  -0.2726029  -0.0247637   0.5824748   0.5598722  -0.2639627  -0.1214196
  -0.0916704   0.2699434   0.2492714   0.7183333  -0.3326362  -0.5626566
   0.7701147  -1.0512477  -0.1534885   0.2467815   0.2802954  -0.0014939
  -0.3501922  -0.5600018   0.3586770   0.1974371  -0.4862204   0.6359647
  -0.1559089  -0.1026184  -0.2388691   0.3949713   0.5720905  -0.3031154
  -0.1916971  -0.7560075  -2.5862800   0.1969931   0.0678899  -0.0731246
  -0.1427947  -0.1967563   0.1965235  -1.3555947  -0.5268663   1.0750789
   0.1845649  -0.3964906  -0.0982510  -0.8938534  -0.7668006   0.8392373
   0.3295835  -0.9776418   0.9279328  -0.2016816   0.0798899   0.1101967
  -0.0613800   0.4848557   0.0366093  -1.7413932   0.1256095  -1.3245300
   0.0026648  -0.0749714  -0.1958790   0.2792458   0.4111135  -1.8459678
  -0.3079177  -0.7323295   1.8775287   0.1706582   0.0284352   0.1444671
   0.9466041  -0.3350925  -0.5616150   0.6820184   0.2358686   0.1974599
  -0.1531272  -0.1120950   0.0949680  -0.8753543   0.6472873   0.4497969
  -1.0712619  -0.2676176  -0.1419335   0.2674441  -0.0436509   0.2612462
   0.7588656  -0.1855092   1.9499869   0.0837836   2.1182266   0.4185254
  -0.2257981   0.2500125  -0.0823170  -0.2888847  -0.0365643   0.1666473
  -0.4816513   0.8328938   0.5819424   0.1349626   0.2147687  -0.3898139
  -0.2203634  -0.8727958   0.0151932   0.1266728   0.9363644   0.4656147
  -0.0556781   0.0470691  -0.0892718  -0.1502457   0.4566825  -0.8934899
  -0.1182402  -0.4705035  -0.5843742   0.0610478  -0.0083357  -0.1669332
  -0.0683500   0.0303574   0.0597061  -0.6686951   0.2708706  -1.7955982
   0.0732645  -0.1325286   0.1647223   0.7838312  -0.0400699   0.7457518
  -1.7668383  -0.1209659   1.0795963  -0.2756993   0.0849838   0.2071388
   0.6749239  -1.7622622  -0.3967824  -1.2335169  -0.3843021   0.6236615
   0.2539003  -0.0900084  -0.1449520  -0.4281936  -0.5557532   0.1481525
   0.7701457   1.2210861  -0.6708242   0.2560900   0.0310499   0.1181587
   1.4712924   1.0729256  -0.3083094  -0.7299217  -0.3069793  -0.3154028
  -0.0245673  -0.1547337   0.2116433  -0.2697579  -1.6312015   0.3449064
   1.4746395  -0.7708711  -1.0788048   0.2013644   0.3043534   0.2104246
  -0.4955634   0.1558966  -0.9624471   0.3243528   0.3196161  -0.4721467
  -0.3329755  -0.2226313   0.3342513   1.1046503  -1.0189520  -0.2308399
  -0.5395777  -1.2139231   0.3627377   0.0354929   0.2261637   0.0395849
   0.8975790  -0.6726742  -0.1344181   0.6438286   1.0243771   1.1613544
  -0.1508568   0.0324710  -0.2203813  -0.3913583   0.1121743  -0.6243448
  -0.1099191   0.2849241   0.2927188  -0.0901992  -0.0344242   0.0660182
   0.7779022  -1.8890408  -0.1770514   1.8553425   0.5847195   0.3642781
  -0.0247153   0.0684204  -0.1798812   1.0098638   1.0370980  -0.3923588
  -0.4249230   1.4843425  -0.3704923   0.0387133  -0.1385670  -0.1234916
  -0.1720473  -0.5213323  -0.9701882  -1.3641567   1.0923795   0.7127423
   0.0125440  -0.0622299   0.4747061  -0.6698249   0.4729136   0.8333559
  -0.5664791   0.7201074   0.9388100  -0.3797386  -0.3534309  -0.3387017
  -0.0975910   0.4858424   0.8616201   0.6002813  -1.0587997  -0.7165623
   0.1970098  -0.2542173   0.1817058   0.3552059  -0.2462996   0.9897207
   0.3234291  -0.8828853   0.8497938  -0.0303584   0.1437748   0.0974061
   0.2889642  -1.5053760  -0.6639851  -0.8992637   1.1451033  -0.1092151
   0.1355860   0.1355745   0.0567445  -0.5138697   0.4613747   0.9690584
  -0.8812160  -0.3458099  -0.4955652  -0.2579275   0.0127424   0.0264742
   0.2916888  -0.1890219   0.1527346   0.9067618   0.9170699  -0.8074093
   0.1141705   0.3385839   0.1676287   0.1218063   0.4567818   0.0594061
   0.4510136  -0.6212726   0.6123781  -0.0277606   0.0759669  -0.1415625
   0.0421594   0.6068099   0.2703253   1.2227240   0.0998822  -0.3625535
  -0.1592056  -0.0176297  -0.1699649  -0.9864233  -0.7260736   0.4895254
   0.5783427  -0.2056125   0.0912419   0.0500105   0.0840135   0.0873385
   0.5885543   0.2568975   1.2909822  -0.6316330   0.5314485   0.0664259
   0.0355539  -0.1176448   0.3105365  -0.3638943  -0.2582081  -0.1667239
   0.4874324  -0.2545494   0.0187856  -0.3222523   0.2879895   0.0025258
  -0.8121475  -0.2156639   1.2615047   0.3302375  -0.1371901   1.0759935
   0.1785424  -0.0181365   0.0042832   1.7686906   0.3805145  -0.1982245
   0.6465204  -1.3769507   0.8046903  -0.1096851  -0.2134110  -0.3469324
   0.3987776  -0.1943778  -1.4896045  -0.0427207  -1.1523522   0.3141284
  -0.0806352   0.0679727   0.2624010  -0.3053712   1.4585347  -0.6153869
  -0.2605539   0.9911217   0.8489883   0.3132640  -0.1540936  -0.2847771
  -1.8198821   0.3908138   0.8949090   0.1641457   0.3506331  -0.0256775
   0.2363012   0.2892338  -0.2288200  -0.9396928  -0.2751697  -0.5193103
   0.3017810   0.0728799   0.2930753  -0.2985886  -0.0447995  -0.0592530
   0.9433381  -0.3474311   0.2028936   0.5624501  -0.8859650   1.3371651
   0.0154072   0.1422184   0.0049900   0.6820280   1.1881883  -0.8725683
   0.1146313  -0.1602704  -0.3057108   0.0720675  -0.1322734   0.0311027
   0.1398640   0.0268523  -0.0465374   1.2018275  -0.6355490  -0.3973395
  -0.0112941  -0.2239529  -0.0930077  -0.7176496  -1.5132192   0.4438243
  -1.5592466   0.3178447   0.8612000   0.0680265   0.0834369  -0.0356642
  -0.3038080   0.0129564  -0.4444879   0.2862222   0.8614873   0.8793786
  -0.4641076  -0.1449134   0.0158825   0.4303114   0.7567348  -0.8653400
  -0.3286818  -0.1162019  -0.3889616  -0.1132112  -0.0116552   0.0709233
  -0.9686970  -0.6918392   1.3075736  -0.4752467   0.2730084   1.4167044
   0.0075527   0.1933987  -0.3506718  -1.6210918   1.0706291  -0.8735011
   0.6349885   0.2818049  -0.3665258  -0.2515157   0.1014030   0.0144471
   0.3628541   0.6896775   0.6776027  -0.0919450   0.4764368   0.3973062
   0.2987091  -0.0289024  -0.2647225  -1.5160288  -1.0103982  -1.0124938
   1.3788696   0.8133850  -1.1484915   0.2003570   0.1979101  -0.2302794
  -0.1018036   0.2214195  -0.0418618   0.7175248  -0.4738432   0.3989274
   0.2540521   0.0439514  -0.0295156  -1.3410384   1.1518701  -0.9006373
  -0.5630160  -0.1022866  -0.3695035   0.1623161   0.3742888  -0.1251067
   0.5221291   0.2133235   0.8366971   1.0097328  -1.0927721   0.3119268
  -0.2014387  -0.5250983   0.0108086   0.6815525   0.0014913   0.0713241
   0.4432023   1.7379155   1.1418116   0.0685819  -0.1771087   0.1886857
  -0.3004133   0.0969771   0.2292691   0.2423748  -0.2982833  -0.0551088
   0.1553956  -0.1604669  -0.0764925  -0.1293836  -0.9994174   0.7110740
   0.5937021  -1.0705246   0.9995665  -0.0411061  -0.3211968  -0.0250938
   0.4318639   1.2974823  -0.2252109  -1.8972882  -1.0580848  -0.5196988
   0.0308549   0.0217974   0.2347224  -0.3374306  -0.5447812  -1.8377277
  -0.7494311  -0.7579552   0.7345980  -0.0422658  -0.0642256   0.0483357
  -0.4332165  -0.0698331   1.8129872  -1.9481009   0.2777591  -1.1018936
   0.0728761  -0.0853635  -0.2830252   1.1861109   1.0378136  -0.8037051
  -0.6351630  -0.0970108  -1.4197440   0.3735104   0.0337250  -0.1738774
  -0.9370989  -0.0063260  -0.7910930  -1.5448778  -0.1603507   0.4565033
   0.0698640  -0.0311085   0.3150881  -0.6405077  -0.7705160  -0.8112462
   0.1533444  -0.4254146   0.9717166   0.1417605   0.1697755   0.0595305
   0.3892601   1.4756299  -0.1233685   0.1774454  -0.6709164   1.1754483
   0.0362920  -0.2178674  -0.0279964  -0.0572981  -0.6498822   0.9361729
  -0.4943642  -1.5399991   0.3517166   0.0229379   0.0489661   0.2645088
   0.0016903  -0.0359976  -0.8990254   0.5908725  -0.3830089  -1.5128582
   0.1335420  -0.1815803  -0.2658626   0.4210656  -0.4350926  -0.4364894
  -0.2852771  -1.0750440  -1.1997270   0.2323088  -0.0606137   0.3184415
  -0.0125817  -0.5672689   1.0289914   0.3294898  -0.4640926  -0.3890879
  -0.0747360  -0.0288366  -0.0217530   1.0223865   0.5807710  -0.5958127
   0.1106429  -1.4780257  -0.3693771  -0.1298812   0.3673485   0.2419869
  -0.3156657  -0.2544413  -0.1759802   0.5451847   1.3598153   1.1852497
  -0.0809168   0.0501118   0.0306913   0.0512949  -0.0268521   0.0326068
   0.8158436   1.3943807  -1.0029413  -0.2314433   0.0236744  -0.3140598
  -0.0743477   0.5636854  -0.5722012  -1.1285307   0.7735010   1.3253487
   0.2287313   0.3721792   0.0171533  -0.8320343   0.1214410  -0.8101970
  -0.5375617   0.3592058   0.6163062   0.4694524   0.1343348   0.0078576
   0.8980411  -1.2472578   0.5487758  -0.2651435  -0.7503409  -0.3758157
  -0.0635471   0.1005483  -0.1896683  -0.8025797   0.2444192  -0.9684341
  -0.3118616  -0.6339169   0.1136693   0.1170067  -0.0354253  -0.1035515
  -0.2166231  -0.0808929  -0.3915165   0.3403780  -0.5569993   0.5331673
   0.3633873  -0.2598063  -0.3660020   0.1568196  -0.9296519   0.9865155
  -0.4678601   0.7464747  -0.2659817  -0.0815030  -0.0756521   0.3180588
  -1.2448978   0.8620739  -0.0261508  -0.1724639  -1.2816316  -0.1643646
  -0.0773000   0.0811128   0.1007964   1.1587745  -0.8306034   0.3531096
   0.7757948  -0.1144643  -0.6389769  -0.2809109  -0.0179679   0.4171578
   0.2023334   0.4479475  -0.7982340  -0.2936802  -0.6023603  -0.4176344
   0.1807589   0.0632513   0.3060019  -1.1124049   0.9034665   0.4451777
   0.5010259  -0.3655596   1.7390289  -0.1035637  -0.1824668   0.2785520
  -0.6838437   0.5105406  -1.5599294   0.7698495   0.2080884  -0.3011863
  -0.5161262   0.0317069  -0.2605550   0.7327708  -0.0483965   0.3903441
   0.6608824  -0.5986617  -0.9466645  -0.1164886  -0.1753783   0.0705742
   0.8613112   0.4811288   1.1327012   0.4069945   0.3198220  -1.1436079
  -0.4830811   0.0362804   0.1602643  -0.5465275  -0.6874574   0.1975483
   0.1886876   1.2762488   0.5001572  -0.0649943   0.0527451   0.2611067
   0.3275349  -0.4910589   0.4964696   0.1999725   0.0200848  -0.0001088
   0.2142715   0.2342214   0.0378315  -0.5914018  -0.2103429  -0.3891220
   0.4446936   1.1715427  -1.5558564   0.0149849  -0.3401227  -0.1451343
   1.0437923   0.5119620   0.4177467  -1.8028597   0.2652825   0.3622290
  -0.3520042   0.1021204  -0.2018896  -0.0870278  -0.0928069   0.7234775
  -0.4656105   0.1278669   0.1162392   0.1988827  -0.0638641  -0.0323859
   0.2262440   0.5608985   0.4067620   0.5330110  -1.2535296  -0.3665496
  -0.4839398   0.0330231   0.0222348  -0.2497036   0.8309668   0.6942459
   0.6811564  -0.2788099  -0.8104251  -0.0666236  -0.0996263   0.0794972
  -1.5721745   0.3263150  -0.5399591   0.7855766  -0.1917697  -0.0333030
   0.2742372   0.2774680  -0.0591876   1.5090632  -0.0396790  -1.1142057
   1.1371541  -0.7606492  -0.8133422  -0.3387700  -0.0123328   0.0835996
   0.9477605   0.7713936   0.3363171   0.0422526  -0.5463460  -1.4004391
   0.1479047  -0.1055764   0.1499661   0.0047646   1.1923929  -0.7600294
   0.2596571  -0.6334537   0.4967781   0.1652343  -0.0714719   0.1968051
   0.5047915  -0.3830850   0.4099613   0.3256452   0.0228826   0.6674265
   0.2798584  -0.1268341  -0.1458804  -1.6183205   0.8722936   0.2166979
   0.0618635   0.4503262   0.6995741   0.1631475  -0.0015994  -0.1046634
  -0.5982652   0.4722176   1.0146417   0.2755525  -0.0899344   0.5916775
  -0.1041612  -0.2145191   0.0935356   1.2666497  -0.6418421   0.0036344
  -0.5053317   0.6515706   1.3174933   0.0131008  -0.0277076   0.2993861
  -0.4657084   0.3712088  -0.1871088   0.3055848   0.3836770   0.0679430
   0.1368394   0.1936044  -0.3709677  -0.3689413  -0.6964412   0.5956228
   0.0152721   0.1767303  -0.1053652  -0.3780523  -0.0566887  -0.2161497
  -0.1699536   0.8733105   0.1406410  -1.8081031  -0.5381201   0.2787069
  -0.3686355   0.0507075   0.0775075   0.4737976  -1.3593873  -0.0708777
   0.7267159   0.1925566   1.5969404   0.0160154   0.3093252   0.2186228
   0.5772902   1.7166767   0.4920573  -1.5373180  -0.5570640  -0.1900854
  -0.0801579   0.1298649   0.0850670  -0.0253575   0.9140329  -0.5700180
   0.7393537  -0.8247362   0.6682422  -0.1209089  -0.2348049  -0.1473262
  -0.7945783   0.7305919   0.1734113  -0.6343538   0.8027247  -1.8797688
  -0.0392686   0.2671517   0.4002330  -0.7980062   0.0420240  -0.6834814
   1.0156392  -1.6389610   0.4850592   0.2757475   0.1487197   0.0424338
   0.3126637  -0.4720484   0.3722028  -0.6841990  -0.8270591  -0.0470018
  -0.1570180   0.2229091   0.1153963  -1.0046970  -1.6067289   0.6897374
  -1.3173777   0.5159314   0.8567662  -0.0946402   0.1463975   0.2537929
   0.3744182  -0.1701524   1.1558251  -0.0520730  -0.8546124   1.1260239
  -0.2933702   0.0570697  -0.0274882   0.3472669  -0.2038039  -0.3136868
   1.2934262   0.4136690  -0.0427918   0.0734661   0.0869439   0.1344234
   0.7507305  -1.1876393  -0.0334672   0.1465811  -1.2415507  -0.3225116
   0.0090505  -0.1710516   0.1915240   0.5700117   0.0247844  -0.9796422
   0.0492271   0.2828479  -0.3635045  -0.3341515  -0.0123556  -0.0173515
  -0.1625304  -0.3428660  -0.3201578   1.3187782   2.4412959   0.7135627
  -0.1372849   0.2514252  -0.2493986  -0.9036159   0.3923295   0.8056908
   0.5025835   1.6861623  -0.7428469   0.0825128   0.0923442   0.3780466
   1.0391804   0.7852057  -0.5652776  -0.3931339  -1.0932298   0.1962174
   0.0584414  -0.0969383   0.1065945   0.4985343  -0.2784733   0.1804695
   1.0453891   0.1699981  -0.0478220   0.1693419  -0.3090736  -0.1378850
   0.6693139  -0.1459416  -0.2242119   0.3511453   0.5245349   0.3374241
   0.0167550  -0.0619564  -0.0503486  -0.0686429  -0.0486972   0.2571602
   0.0524152  -0.9597593   0.2680626  -0.1738704   0.1965275   0.2924489
  -1.0269682  -0.6397641  -1.3682103   1.5205937   1.9132142  -0.7075275
  -0.1110235  -0.1407390   0.3218077  -1.3669672   0.8098730   1.2486789
   0.1557301   0.6692332  -0.1177352  -0.0583426  -0.0918267   0.4806755
  -1.2333606  -1.0927396  -1.0211999  -0.4062784   0.8173180   0.7745583
  -0.2169381  -0.1781432  -0.0705764   0.2464856   0.0311701   0.5513171
   0.2351406   1.0284527   1.3965629   0.1977256  -0.0012041   0.1335947
   1.1666612  -0.9018430   0.3668835  -0.4979962   0.2841654  -1.2421798
   0.0508765   0.1336059   0.1244296   0.0611955  -0.7139834   1.1225075
   0.2050610   0.3063566   0.0300729  -0.1556356  -0.3627588   0.0409091
   0.3891518  -0.2739849  -0.6291934   0.2543057   0.5138697   0.9320909
   0.1838511  -0.0776371  -0.0840600   1.6861278   0.0777009   0.9420457
   0.2487953   0.5442402  -0.3661581   0.3604535   0.2600840   0.0441219
  -1.5979079  -0.2848539   0.8012274  -1.6777132  -0.0146417   0.3099889
  -0.1914386   0.2318041   0.1092301   0.7500439  -1.2667262   1.0299991
   0.5736629   0.4371074  -0.1586608  -0.2080338   0.1770521  -0.0132322
   0.6587378   0.6833263  -1.2709661   1.7984519   1.0751139  -0.3915378
  -0.0748197   0.1444156   0.1961261  -0.9715270   1.1279840  -0.2100591
  -0.7812630   1.0723915   1.3137828  -0.2489087   0.1110201  -0.2011826
  -0.3003340   1.6260729  -0.0920012   0.0994733  -2.3001787   0.4758535
   0.2145600  -0.3732621  -0.0159337   1.3712586   0.4905501   0.2499975
  -0.5977251  -0.3676344  -0.6209700  -0.3156923  -0.2674690  -0.3343384
  -0.1810505   0.5233744   0.3549478   2.2319869   0.2305360   0.1839902
  -0.2626546   0.0080428  -0.3199623  -0.0342156  -0.0402904  -0.5374657
  -0.6018755   0.1505468   0.6291478  -0.2785244  -0.2462053   0.1748304
  -0.7741244  -0.3658202   0.0309941   0.5936313  -0.1573961   0.1040532
   0.0705370  -0.2394710   0.1331172   0.5220108  -0.2745868   0.1553686
   0.3332112   0.0030624  -0.1988047   0.0879053   0.0033288   0.1350566
   0.0723144   1.0585299   0.3889120   0.2503988  -1.1595001   0.8905738
   0.0491566  -0.2550418  -0.0840532   0.8868209   0.2892137   0.5542065
   0.8369051  -0.9295156  -0.9715683  -0.2068140  -0.0989841  -0.0845722
   0.2974648  -0.1340343  -0.7627145  -0.4145960  -0.1429797  -0.4547062
  -0.5434001   0.1244009  -0.2010814   0.7151642   0.7753580   2.5590283
  -0.2864698  -0.1293595   0.6392894  -0.0787871   0.0722073   0.1382936
   0.0044810  -1.3566757   0.9283554   1.1395398  -0.3139913  -1.5525083
   0.1316752  -0.0576317   0.1177095  -0.5260704   0.8015777   0.4942342
  -0.9134465   0.3534781   0.1564416   0.0952194  -0.2335352  -0.1466879
   0.5797978   0.3270521   0.0473611  -0.2857109   0.2396967   0.1003451
  -0.2874810   0.2909095   0.0651560  -0.4744715   0.7664074   0.7681168
   0.0734476  -1.0019334   0.3731406  -0.1929278   0.1200379  -0.1769165
   0.2236071  -0.2615199   0.2164351   0.5599685   0.5067440   0.8336184
   0.1490242   0.0807633  -0.1911559  -1.9354266  -0.6155383   0.2051369
  -0.9827950   0.2257752   0.1102738  -0.0151963  -0.0703325   0.0146448
   1.6982332   0.8850578  -0.0142289   0.1757883   0.1749724   0.8279925
   0.0991644   0.2328634   0.1502817  -1.3091732  -0.3674776   1.1409267
   0.9307145   0.6329926   0.8426783  -0.0033139  -0.0549834  -0.0297339
   1.2130013   0.1021781  -0.0279418   0.9484897   0.2827605  -0.5318574
   0.1861280  -0.0597439  -0.0384220  -0.7837610   0.9906903   0.4270836
   1.1756390  -0.0456580  -0.4392856   0.1166764  -0.1665789  -0.2974458
   0.5045315  -0.4522097  -1.3508566  -0.9865713   0.0207354  -0.7855971
  -0.0735145   0.0542278  -0.0017290   0.5816185   1.4138263  -1.3286207
   0.4576134  -0.0070395  -1.4308925  -0.1680226   0.0400068  -0.2077262
   1.4248552  -0.9157977  -0.2709742  -0.6896338  -0.5408002   0.5208595
   0.0406929   0.0151314   0.0652038  -0.4525444   0.6404038  -0.6456691
   0.4934415   0.7774646   0.2031438  -0.0488945   0.1977472   0.2078513
  -2.5069229  -1.4905187  -0.9359475   0.8560808  -0.7836985  -0.4534441
   0.2802397   0.0186607  -0.0323904  -0.9362552   0.0150301  -0.3659799
  -0.7468737  -1.3526003   0.0220659  -0.1856429   0.2938145   0.3317620
   0.8181196   0.0752776   0.7493274  -1.0455583   0.2680203  -0.1285130
   0.5109920  -0.1147849   0.0504305  -0.7906124   1.4580129   0.3907947
  -1.0480818  -0.0656986   0.7259840   0.1768076   0.0570149   0.0887004
  -0.7747993   0.1014428  -0.2046438  -0.6363046   0.2380507  -0.4195345
  -0.0571293  -0.1103726  -0.0775307   0.3985308   0.4574857  -0.1303106
   0.1654036   0.2283485   0.8850688  -0.2074844  -0.0089459   0.3878519
  -0.8254047  -1.2196781  -0.9035998  -0.2670216  -0.0035058  -0.0767418
   0.0664230   0.0597703   0.0927637  -0.7049236   0.0945078   0.0764727
   0.9602429   0.2380667   0.2019411  -0.0758164  -0.1012820   0.0742370
  -0.1142157   0.6473107   0.6271144  -1.9878803  -0.6773501   0.5395111
   0.1730838  -0.1016973  -0.0736599  -0.7145300   0.3113632   0.0441338
   0.0627418  -0.4758657   0.3558646   0.0343561  -0.1399535  -0.0722480
  -0.0785265   1.1530158   0.2571637   0.8313764  -0.4280589  -0.6924091
   0.0333613  -0.0121054  -0.2587657  -0.6131045   0.2786544   0.7962260
  -0.1343656   0.3648974   0.8537684   0.1158722  -0.2930986   0.2050075
  -0.8912153   0.4459358   0.8003196   0.8633872   0.6864355   0.0433158
  -0.0780032  -0.2581958   0.1273643   0.1433881   0.6202305  -0.5674147
   0.3354729  -0.8939422  -0.8902949  -0.0193132   0.4070422  -0.2579168
  -0.7324825   0.1618988  -0.1875631   0.8549599  -0.1227339  -0.1412957
  -0.1564674   0.2047848  -0.1794141   0.9325029   0.2669534  -1.0300581
  -0.9977453   0.6584882  -1.1464135   0.0978547  -0.1939487   0.0785569
  -0.6223937  -0.4852539  -0.6600058  -0.3988333   0.5859130   0.7057976
  -0.3469387   0.1011644  -0.1907224  -0.5424072   0.1115784   0.6406992
  -0.6381512   0.3325084  -0.4471812  -0.0995405  -0.1121227  -0.1704262
   1.0207201  -0.4454952   0.3337323   0.3991842   0.9591012  -0.4739008
  -0.3900856   0.0116705  -0.0783874   0.1232304  -0.0465927  -0.3317658
  -0.7491853  -0.1437615   1.0910448   0.0233346   0.3020421   0.2430171
  -0.5420282  -0.7672327   0.3227155  -1.3861721  -0.2417967   0.0532789
  -0.0464357   0.1818540   0.0229426   0.4392054   0.9124434  -0.1279250
   2.2502249  -1.1057449  -0.3931854   0.3171425   0.0350500  -0.1685784
   0.0194236  -0.5637188  -0.1693319   1.5881056   0.0745510  -0.1884232
  -0.0990784   0.1322878   0.1347107  -0.0502705  -0.6854134   0.2117681
   0.7383966  -0.6171229   0.0400312  -0.0955692   0.0475815   0.2962823
   2.0908186   0.1344218  -0.0034703  -0.9139311  -0.2377594   1.1493618
   0.0507767  -0.5065685   0.3177114   0.1845765  -1.0175518  -0.0506695
   0.1337730  -1.3301102   0.4496165   0.2279429   0.2898024  -0.1381662
  -0.8272700  -1.2222797  -0.5123336  -0.3317449   0.3287245  -0.7068679
  -0.0379137  -0.0052720   0.0603124  -1.4565983  -0.7910310   0.9579671
   0.5007253   0.2529272   0.3793515  -0.0280727  -0.1907100   0.1780666
  -1.3829405   0.0090736   2.1837006  -0.0842278  -0.3467668   1.0633787
   0.0866978  -0.0298378  -0.0507669   0.0686566   1.4467577   1.1141951
   0.0113287   0.8214387   0.4856766  -0.1709589   0.1096900  -0.2870662
  -0.7295788  -0.4797446  -1.2959938  -0.8790427   0.4220590   0.0923810
  -0.0483624   0.0547231  -0.1829229  -0.5709325  -0.4458940   0.2972457
  -1.0414996   0.6632338   0.0260589  -0.0146778  -0.0435618   0.1587566
   1.5180089   0.4313282  -0.4471875   0.5189292  -0.0472643  -0.3261823
   0.0145496   0.0946363  -0.2778125  -0.1734283   1.7827362  -0.3831791
  -0.8898507   0.0994353   0.6033220   0.2246666  -0.0730325  -0.0484752
   0.4074448   0.2311064   0.1803237   0.3367724  -0.6217810   0.4552958
   0.0894290  -0.0703890  -0.4976798   0.3584617   0.7203706  -0.2750919
   0.0917211  -1.6478822  -0.0261494   0.1771184  -0.0386902   0.2464775
  -0.4803263  -0.7639609  -0.1421530   0.2291569   1.2811370   0.5427470
  -0.2648962  -0.0082240  -0.0068319  -0.4908621   0.2948589  -0.0746523
   1.2762674   0.5231998  -0.1348049   0.0688862   0.0028747   0.0146898
   0.3406458   0.6133501  -0.1606189  -0.4440984   0.2282020  -0.2500986
  -0.0434425  -0.2030850  -0.1447371   1.2345060   0.4127290  -0.4616774
  -0.4892849   0.2681031  -0.1533506  -0.0490495  -0.4471530  -0.0236950
  -1.0191309  -0.3990215  -1.0843054   0.5531558  -1.0462473  -0.9883827
   0.3021844   0.3386052   0.2940836   0.4755800  -1.0448450   1.5107505
   0.4093500   1.0333986   1.0578946   0.0957486   0.1231195   0.0999945
   0.2432155   0.0353941   0.3176004   0.3985229   1.1456450  -1.0282621
   0.2579916  -0.0082065   0.0818650  -1.2598089   1.6733509  -1.7386072
  -0.5005777  -0.2596808   1.0674427   0.1126723   0.1979030   0.0068495
   0.0356053   1.0192850   1.1375719   0.0816162   0.2154807  -0.4699033
  -0.1380735  -0.2735135   0.3687527   0.1870488  -1.2401325   1.4140495
   0.3532288   0.1009113   0.3237610   0.2494766  -0.0468579   0.0773798
  -0.4285716  -0.6006700  -0.7536868   1.0858455  -0.1109607   0.3757964
  -0.0936330   0.0049652  -0.0367929   1.3725177  -0.2631273   0.8495703
  -0.1298106   1.2692417  -0.2587025   0.2224112   0.3713216   0.2512298
  -0.0114605   0.2955987  -1.4396386  -0.3735591  -1.6459779   0.7891248
  -0.2301328   0.0266298  -0.0212421   0.9768471   0.3199101   0.6207212
  -0.5590091   0.3836201  -0.2149018  -0.0840179   0.0007646  -0.3871335
  -0.3237710   0.6814018  -0.0287320  -0.6818975   0.3212813   0.1951143
  -0.0111200   0.2695362  -0.2736515  -0.7203163  -0.0047256  -1.3222681
   0.9467607   1.8402881  -0.4265903  -0.1022552  -0.0167361   0.1576732
  -1.3365693  -0.2466082   0.5912489  -0.0192352  -1.5527281  -0.0967682
   0.0694853  -0.0414400   0.1436333  -0.7616621   1.8709604  -0.3999584
  -0.1852917   0.4089328  -1.6623085  -0.0546472  -0.0938874  -0.3192680
  -1.2580352  -0.0929357   0.8120861  -0.2087442  -0.1136102  -0.4881089
   0.2219909  -0.3447213   0.2113145  -0.0843362   0.5416857   0.7546101
   0.8355761   0.1221680   0.8525742   0.0174903   0.1003553   0.3488917
   1.4528074  -0.7644371   0.0820775  -0.6395925   0.4410388   0.9337255
  -0.1683004   0.2401818   0.4454513  -0.0928806   1.1501623  -0.7358068
  -0.7813914  -0.6512338  -0.7461273  -0.1404960  -0.0273416  -0.1299216
  -0.0884910   0.4791900   1.1232815   0.2188376   1.9123054  -0.5352062
  -0.0292926  -0.0420523   0.4864587  -1.6335709   0.1216245   0.9732588
  -0.7487347   0.7707194  -0.5605527   0.0614138  -0.1816145  -0.1411928
  -0.5269955   1.8298629   0.5390019   0.5232203  -0.5489590  -0.0934711
   0.1208044   0.3113281   0.3084277   0.2064306   0.4810292  -1.0653322
  -0.5064008   0.2894902  -0.7414928   0.1941938   0.1330613  -0.2653742
  -1.0505824   0.5297430   0.7056802   0.2120832  -0.8217819   1.2764594
  -0.0374159   0.0580519  -0.4865080  -0.2881168   1.1329233   0.9169111
   0.1045417  -0.1360544   0.4435722  -0.3584787  -0.1627212   0.1909162
  -1.1308327   0.3631805  -0.1397108   0.1682451  -0.3287582   0.2808841
  -0.0756403  -0.0475255  -0.1078973  -0.5128904  -0.3217301  -0.4485930
  -0.2472807   0.7450921  -0.1189892  -0.1058022  -0.0259341   0.0647204
   0.5099630  -0.5942868   0.8289698  -0.1287624  -0.1068688   0.9305952
  -0.2235776   0.5241509   0.1569899   0.6947837  -1.4379827  -0.6933416
  -0.6525584  -0.0808231  -0.2905318  -0.0179451  -0.0032631   0.1078389
  -1.4874987  -0.3132911  -0.2283285  -0.2840683   0.8700274  -1.0442981
  -0.2214871   0.4632535   0.0498751   1.2853983  -1.1290625   0.3234073
  -0.2560916  -0.4996920  -0.4538005   0.2168579  -0.2474056   0.0858353
  -1.0606348   0.4331112  -1.6111683   0.3760581  -0.6614925   2.1070277
   0.3170660   0.0522203  -0.1261017  -0.2416753   2.7973165   0.6709954
  -1.5899846  -0.1183199   1.5652349   0.0574297  -0.0583313  -0.1477368
  -0.9232728   0.4770614   0.0435089  -0.2191983  -0.8704036   1.1773536
  -0.0824367   0.1361523   0.1668920  -0.2704611  -0.0010008   0.2260219
   0.7599486  -0.7369265  -0.0671657   0.0167074  -0.4209199  -0.3234052
   0.0608049  -0.0237372  -0.6601760   1.5108760  -0.1796196  -0.7312288
   0.0353835  -0.0492414  -0.1109048  -0.6490319   1.5127352  -1.4319477
  -0.1618848   0.4501569   0.2755240  -0.0322888  -0.0092729  -0.0585782
  -0.0894814  -1.0441671   0.1425296  -0.4176501  -0.0443748  -0.5700509
  -0.0319740   0.1659669   0.0872084   1.7604786  -1.3593239  -0.2484057
  -1.1241521  -0.1872607  -0.1145909   0.2251122   0.2397157   0.2968938
  -0.2644494   1.5688960  -0.3125180   1.0544531   0.0640520   0.9758276
   0.1334333  -0.2792845  -0.0690748   0.4002395   1.6918942  -1.7561473
   0.1841212  -0.7765070   1.0882638  -0.2943528   0.0649147  -0.0830146
   0.4772853  -0.4081104  -1.0943008  -0.1103967  -0.6743871   1.5686318
   0.1714164  -0.3048370   0.1088740   1.6661089   0.2794038   0.5288122
  -0.5879384  -0.9554451   2.3357560  -0.1999882   0.2858505  -0.0698462
   0.8297854  -0.4713665  -0.4464049  -0.5691656   0.6647295   0.6255973
  -0.0769689   0.0539153   0.1499417   0.0988886  -0.0241522  -0.2833283
   0.3349699   0.9022874  -1.0596136  -0.1639005  -0.1268932   0.1252808
  -0.1539294   0.2255376  -0.9248636   0.0407744   0.4772556  -0.0687802
  -0.0294542  -0.1523909   0.0151711   0.5918251   0.0447748  -1.6757708
  -0.4873237  -1.2647248  -0.5978133  -0.2404989   0.0546788  -0.0099099
   0.1841354   0.5685262  -0.2882783   0.2058536   0.3560166  -0.2487110
   0.0642008   0.0221192  -0.0282463  -1.0106847   0.7084153   0.4404668
   0.1849752  -1.0326657   0.7608488  -0.0822183   0.0530937   0.0694216
   0.0034224  -0.0248491   1.3359688   0.1926627  -0.5257484   0.8854880
   0.0374119   0.3080988   0.1284109  -2.3119249   0.0321255  -0.0193335
   0.2019517   0.0028097   1.1223418   0.3558214  -0.1911119  -0.0418499
   0.2914898  -0.5572907  -0.1784441  -0.1803553   0.7026148  -0.4217469
  -0.0668144  -0.0559828  -0.2247460   0.4478908   0.1932326  -0.3282010
  -0.8348432  -0.5554881   0.1364747  -0.0598926  -0.3328437   0.1657647
  -0.3224136   1.6059260   0.1635898   0.6037929  -0.4353862  -0.5855408
  -0.4488633   0.0363998  -0.0719191   0.4807218   0.3143648   0.0930511
   1.4167174  -0.3975273   0.1675918   0.2263410   0.3048312   0.0945796
  -0.6449140  -0.1727870  -0.7176899   1.1593482  -0.8904509   0.5789301
  -0.2104596   0.0232739  -0.1239783   0.8025235  -0.0825370  -0.7357853
  -1.3897695   0.6151263   0.2285838   0.0525645   0.0756343  -0.0680626
   0.0357939   1.1369273   0.5311098   0.7125093  -0.8056413  -0.6342332
  -0.3958995  -0.1378943   0.1202393   0.9308093  -0.0722186   1.4030112
  -1.6656838  -0.2760757   0.7694774  -0.2498057   0.5032505   0.0658238
   0.9357439   0.5010291   0.7633412   0.0751761  -0.4180675  -0.4058098
   0.1407102  -0.1150677  -0.2436265  -0.8937734   2.1016402   0.1170831
   0.1406738   1.1798096   1.0101091  -0.2434591   0.1898195  -0.0341228
  -0.3422395  -0.5296877   0.4427490   0.4118677   1.3046827   0.2844833
  -0.1520175   0.3083494   0.3903134  -0.7773826  -0.9295947  -1.7661307
  -1.7134009  -0.1176871  -0.2591045  -0.0271333  -0.3768267   0.1638784
   0.0516497   0.2105733  -0.8011989  -0.0870711  -2.2051326  -0.0451210
  -0.1491909   0.0392923   0.2255496   0.0773260   1.5429166  -0.0522827
   0.7881804   0.1001776  -0.9682470   0.0453926  -0.1010567   0.0048785
  -0.5227575  -0.2440477  -0.3014048  -1.0571536  -0.6486111   0.6478620
  -0.0088538   0.1992815  -0.0614236   0.6307543  -0.0108373   0.6821884
   0.5853379   0.1410361   0.3050066   0.1920592   0.1868071  -0.0652629
   0.6971978  -1.6090572   0.2792781   0.5823126   0.9673176  -0.7441365
  -0.2889361   0.1979514  -0.0519999   0.3084824   0.0243680  -0.1294590
  -1.4296239   0.2775214  -0.3359309   0.3249135   0.0872127   0.0228847
   1.0134726  -0.7157128  -1.1821623  -1.0061428  -0.1920752   0.4088182
   0.3811898  -0.0881817   0.2037030   1.1355129   1.0038892  -0.9411395
  -0.2370487  -0.0907003  -0.3141134   0.2976685  -0.2410636  -0.0368599
  -0.4105802   1.4103032   0.5713456   0.8376378   0.8170211   0.7386269
   0.0573214   0.2021286  -0.2318992   0.9095503  -0.0904771  -0.0842530
  -1.2802547  -0.1434456  -0.1001648   0.3376349   0.2719425  -0.5367754
  -1.1827245   0.1738446  -0.0763038  -0.4142625   1.3819140  -0.7199721
  -0.1344019   0.1947333  -0.2644301   0.4061948   0.4608169  -0.1637397
   0.1954064   0.1820911  -0.2011932  -0.2626291  -0.1424250   0.0165648
  -0.1199057  -0.6779057   0.4579966   0.3995896  -0.4877329  -0.0281550
  -0.0636810   0.4633257   0.0615595  -0.1907479   0.4135032   0.9924401
   0.5125377  -0.9682738  -0.9218214   0.0783537  -0.1986337  -0.0965571
  -2.3819948  -1.2983961  -0.8190821  -0.6500909   0.2356212  -0.5298360
   0.2631148  -0.0012665   0.0258038  -0.2387913   0.0711902   1.3396791
  -0.0381545  -0.4537726  -0.1260648   0.0461818   0.1502640  -0.0830633
   1.2766887  -0.4994418  -0.5691809   0.4815746  -0.2034252  -1.5875451
   0.1744510   0.1600510  -0.0755503   1.2379736   0.0066213   1.8929130
   1.3537093   0.9273603   0.1651582   0.0653697   0.2572622  -0.0967612
  -0.5658773  -0.0391822  -0.4696970  -1.2298551  -0.3011011  -0.7809980
  -0.2216309  -0.2530116   0.0622666  -0.9609641  -0.3316871  -0.7078667
   0.2630676   0.0519297   0.2346950  -0.3077528   0.2858903   0.1504410
  -1.7402569  -0.1984903  -1.0873398  -0.4073268  -0.4388084  -0.8367861
  -0.0585536  -0.0205851  -0.1501047  -0.5616287  -1.1036123   0.7813186
  -0.1699208   1.2012053   0.3480092  -0.0497281   0.0447838   0.2101909
  -0.7905196   0.7127743   0.4810735   0.4474815   0.2532960   0.3734356
   0.2104188  -0.1297263   0.1399042  -0.3279844  -0.3365437   0.1230454
   0.5080540  -0.8664171  -1.2480072  -0.0964148   0.2703247  -0.5210078
   0.2357755  -0.7925173   0.0659563   0.1052414   0.1359192   0.8010021
   0.2471791  -0.3476183   0.1604062  -0.4402881   0.9491574   0.6937745
  -0.8302546  -0.7485598  -0.5990369  -0.0129596   0.1958401   0.0651857
  -2.0572378   0.3841068  -0.0199612  -0.5017816   0.0854693   0.0060159
   0.0399376   0.1431141   0.0852335  -0.2579597  -0.4548746  -0.1247502
  -0.5447193  -0.4785464  -0.9885784   0.1615123  -0.0603055   0.1086403
  -1.6208776  -0.4223484  -0.2110069   0.8122792   1.0909886   1.1405464
   0.1153405  -0.2650964  -0.0999370   2.0123907   0.1611964   0.6610108
  -0.2399584   0.4843708  -0.5159491  -0.1913107  -0.2432567   0.1527318
   1.2965371  -0.5212963  -0.7775697  -0.1352162   0.1742518   0.1172036
   0.2005134  -0.2419620   0.2880301   0.0358827  -0.6183898  -0.3132899
  -0.1397081   0.0649408   1.0695885   0.3106024   0.0504908  -0.3256584
  -1.2038519  -0.3978151  -0.3246672  -0.4041099  -0.3591996  -0.6932689
  -0.0915236   0.0022218  -0.1274498   0.5000371  -0.5707412   0.2579319
  -1.3189844   1.2262996  -0.6699432   0.0628733   0.1377062  -0.0382936
   0.1945263   1.4286818  -0.4051011  -0.1776184   1.4346445   0.1199498
  -0.0156001   0.2371986  -0.0142108  -0.9230654  -1.9343684  -1.1615820
   0.3571131  -0.1589211   1.0945568  -0.0105851  -0.1411846  -0.0329595
   1.3715598  -1.6066095   0.2678617   0.5480685  -0.1300877   0.2095232
  -0.0687944   0.1323749  -0.0766184   1.4575915  -0.1587016   0.0878778
   0.2234928   1.0063094   0.1842855  -0.0080709  -0.2907922   0.0685992
   0.4352650  -0.7207340  -1.6432380  -0.0018272  -0.1802894  -0.1999181
  -0.0087380   0.1044419  -0.1818929   0.8117379   0.2350883  -0.7532670
  -0.3832939  -1.2480491   0.4646033   0.1687076   0.0820750   0.0043146
   0.2827997  -0.0866463  -0.4718513  -0.7695517  -0.0535176   0.1285454
   0.0926253  -0.2283760   0.2312746  -0.2776740   1.0764421  -0.7643381
   0.4109396   1.4123447  -0.2024457   0.2659940  -0.0996629  -0.1483955
  -0.2501777   1.3754904   0.4262316   0.1959728   0.6956420   0.1044508
   0.0762713   0.0574512  -0.0819205   1.4544628   1.2878245   0.4459393
  -0.8795987  -1.5295216  -0.7942520  -0.1093635   0.0429079  -0.1269331
   0.2113354   0.8738863  -0.2299744  -0.1008230  -0.1290816  -0.0953786
   0.0441732  -0.0360557  -0.2260582   1.4684609  -0.0068603   0.5240688
   0.2011847   0.4975364  -0.6426458  -0.2633576  -0.0332173   0.1599992
   0.4454249   0.2320288   0.8258914   0.4387802  -0.2496899   0.2492746
  -0.1695694   0.3342601   0.0485025  -0.7376452   0.1726267   0.5762812
   1.0092066  -1.0684991   0.2698506   0.2464370   0.0368423  -0.1451965
   1.8472325  -0.0311880  -0.3123712   0.3310777   0.7513517   0.1261278
  -0.0124022   0.1239606  -0.1357951  -0.5633817   0.5683190   0.6034022
   0.2138322  -1.1200813  -1.7531233   0.2077972  -0.0941695  -0.2816194
  -1.2113410   0.2427916  -0.4304000  -0.0116153  -0.9353237   0.8768062
  -0.0153028  -0.5433560   0.1081792   0.0667524  -0.4115007   0.1902891
  -0.7047291   1.1158631   1.2835980   0.1812519   0.4025912   0.3418510
   0.1084882  -0.1120859   0.2633925  -1.8343545  -1.1084675   0.7688553
  -0.2350193   0.0588121  -0.2615399  -0.6419453   0.7868642   1.5106070
   0.7513813   1.3078290   0.1628380   0.0504313  -0.2351277   0.2632277
  -0.0758054  -1.5368655  -0.7932065  -0.4504567   0.7521312  -0.0721264
   0.2663101   0.0546514   0.2500967  -0.5285826  -0.4390064   0.5299925
   1.1219316   0.7824286  -0.4032233  -0.0961926  -0.1945547   0.2031931
   0.5384978  -0.4298889  -0.2779527  -1.0217693  -0.8069718  -0.3120185
  -0.2659580   0.2049606   0.5232046  -0.9833053  -1.7837506  -0.8055476
   0.3817212   0.0730696   0.7231116   0.1255299   0.1804308   0.0264277
   0.6847400  -0.0381804  -0.7396243   0.3286570  -1.3073910   0.6847226
   0.1478885   0.0115294   0.0057202   1.0604820  -0.5444396  -1.5791456
  -1.3291511  -1.0348990   0.0856901   0.2052234   0.1239906  -0.1662769
   0.8565623  -0.1231977  -1.6921856  -0.3043803  -0.1751394  -2.1190951
  -0.2311367   0.3548516   0.3196342  -0.3312947  -0.4094203  -0.5099486
  -0.3857844   0.2657706  -0.0750110   0.4227599   0.0560947   0.0395918
  -1.4392932   0.2726565  -0.8564118   0.3177793   0.5894296   0.7569907
   0.1117658   0.1474471   0.0557358  -0.7538663   0.3461343  -0.8399181
  -0.2051434  -0.5294411  -0.4348735  -0.0145570  -0.0352120  -0.2197555
   0.9013008  -0.9658041  -0.4548146  -0.6786731  -0.8878539  -1.0820758
  -0.3461237   0.1757534  -0.4318643  -0.9231708   0.0070652   0.5880157
  -0.5318147  -0.6820746   0.1518659   0.1307067   0.1352213  -0.4108531
  -0.0604419   0.2299780   1.1772846   0.5430062  -1.3519863  -0.3239850
  -0.0001549   0.0469069  -0.3846762   0.6899018   0.0804912   0.7359859
  -0.0580936   0.3674390  -0.0479535   0.3504614   0.0093974  -0.0884447
  -0.7590506  -0.0912612  -0.1718163   0.7464844   0.1301470  -0.2186996
   0.0144211   0.0282258   0.0019266  -0.8089024  -0.9496069   0.3372491
   0.4215911   1.0216132  -0.7206086  -0.1284479  -0.1202563  -0.1531144
  -0.6613834  -0.4831331  -0.3920739   0.9233732   0.1410256  -0.4435882
  -0.0381276  -0.0103181   0.0862387   0.5716490  -0.7106494   0.0329429
  -0.7957764  -0.5297021  -0.7534301   0.0313324   0.1135855   0.4680651
  -0.1134401   0.3433637  -0.7623358   0.4666769  -0.7287488   1.1794317
  -0.1678519   0.0044844  -0.2314524  -0.9840569   1.2985767  -0.8250022
   0.5057042   1.0431576  -1.0871027   0.2347895  -0.2787980   0.1500552
  -1.1453038  -1.4154997  -0.4578210  -0.2981471   0.3418950   0.6693156
   0.2351577  -0.2383125   0.1647285  -0.5555915  -0.1181611  -2.5156307
  -0.2164264   0.4797235  -0.6503376  -0.4767033  -0.2791696  -0.1240462
   0.5696112  -0.8954699  -0.2946547   0.0930143   0.6124326  -0.6323512
  -0.2011051  -0.1026564   0.1759067   0.1659845   0.3847242  -0.7682159
  -1.1022086  -0.9419998  -1.0183689   0.0224606  -0.0908588  -0.0362983
  -0.8342331  -0.4015646   0.1688485   2.2585416  -0.0618001   0.6155778
   0.0148071  -0.1154713  -0.1915136  -0.0423515   0.3319874  -0.4519259
   0.4503812   0.5786455  -0.5957737   0.2391909  -0.0691761  -0.1412357
   0.1350110  -0.9565507   0.1310640   0.3542541   2.2695223   0.6203403
   0.1383235   0.2506153  -0.0715619  -0.0915091   0.9949028  -0.0171976
   0.9347526  -0.5115691  -0.6298645   0.2641039   0.0125975  -0.0309617
   0.2298981  -0.2240540  -0.5759273   0.2272693   0.0655958  -0.4119090
  -0.1904223  -0.3054612  -0.2669609   0.7079981  -0.5383789   1.0174190
  -0.2554292  -1.6279067   0.2147588   0.1571304   0.0027611   0.2558964
   0.8335756   0.0792715   0.2373653   0.9570647  -0.6924303  -0.6458251
  -0.0715456  -0.1139908   0.0114919   0.7342710   0.9213398  -0.4673475
  -0.4420656   0.2605067  -0.5566306   0.0276366   0.2738361  -0.1734202
   0.4529715  -0.5049499  -0.9616404  -0.1971066  -1.4509175   0.4256938
   0.0044124  -0.1708761   0.1851204   0.1088230  -0.4887485  -0.5864691
  -0.2337191   1.4529592   0.3325698  -0.0487865  -0.1226973   0.2556431
  -0.6578301  -0.5701488  -1.1306656   0.9386472  -1.5618912   0.4897338
  -0.0500527  -0.0284586  -0.1357646   1.7384925   0.9817637   0.0308337
  -0.7066416   0.8820068   0.5200845  -0.0442502  -0.3250454  -0.0357888
  -0.4643814  -1.2274280   0.6168447  -0.8107069  -0.6393272   0.5095945
   0.1172506  -0.0964297  -0.4530516  -0.1491766   0.2003405   0.9935342
   1.6767795   0.0313347  -0.5259271  -0.0472572   0.0442586  -0.1401392
  -0.1052382  -0.8303914   0.9991880  -1.2295782  -0.3620504   0.2721305
   0.1785637   0.0421491  -0.0450550  -0.5048580  -0.3552518   0.2907599
   0.5241480  -0.1012517  -0.3325782   0.1700307   0.0217784  -0.1108006
  -0.6341342   1.1809031  -0.1187943  -0.5333954   1.1439701  -0.1886755
   0.1261663   0.0749643  -0.2916678   1.7368099   0.0287755  -0.4224480
  -0.8114673   0.3997338  -0.3461366  -0.0568541   0.3170061  -0.2737980
   0.2168758  -0.5912851   0.5507415  -0.4430516   0.2085143  -1.5271743
  -0.2097869  -0.2424008   0.1024677  -0.2413967  -0.6590923   0.1950656
  -0.2093290  -0.9661239  -0.3744043   0.0048826  -0.0636613   0.0390756
   0.5118335   0.8479670   1.2724976  -0.7991584   0.4181608  -1.2189593
  -0.2539648   0.0658908  -0.1796427   0.5974611   0.4070186   0.9626160
   0.2802835   0.1228866   0.3954136  -0.1113218  -0.3271825   0.1363573
   0.0685933  -0.9310881   0.4937069  -0.9283559  -0.3018204  -1.3946456
  -0.0407770  -0.1480455  -0.0165862  -0.7194127   2.4036121  -0.2146970
  -1.5074566   0.2682845   0.7344207   0.1025456   0.2044636   0.1814051
  -0.6210710   0.9036506   0.5880116  -0.6663424  -0.5073888   0.9475247
   0.0677916   0.1497264  -0.0617909   1.5102100   0.1107315  -0.8275558
   0.3591519  -0.4453683   1.0744649  -0.0411437   0.2525234   0.2346678
  -0.7757569   0.5552511  -0.9370632   1.0631842   0.1909745  -0.2804035
   0.1704533   0.0016847  -0.0075620   0.6202318   0.0610356  -0.5682714
  -0.1139035   0.5199809  -0.2873964  -0.2255547   0.4960283   0.1938365
  -0.3554220  -0.3528280   1.3256875   0.0782428  -0.2893305  -0.5039786
  -0.1872490   0.1083928  -0.1294743  -0.4721256  -0.0214378   0.3434070
  -0.2153656  -0.3030632  -0.6523232  -0.1051304   0.0143036   0.0858644
  -0.2885452  -0.2976231   1.0643971   0.7107159   0.2835201   0.1620114
   0.3785875  -0.1580122  -0.1838852  -0.1880781  -0.2277307   0.6500175
   0.6539743   0.0808192  -0.5298430   0.1645689  -0.1263895  -0.1373228
  -0.6706488   0.8069771   0.5960841   0.6081945  -1.2305718   1.0944511
   0.0107697   0.4354690  -0.0333633   0.9328817   0.9703205   0.6840342
  -0.3963937   0.4783664  -0.2397546  -0.3443817   0.0759743  -0.0901545
   0.2546163  -1.7643744  -0.6954061  -0.7393388   0.7672462  -0.3746012
  -0.1649507   0.2000078   0.2335829   0.0436954   0.3269622  -1.8155484
  -0.4215878   0.1151584  -0.1239116   0.1996366  -0.0179853   0.0440546
  -1.1238679   0.3918509   0.4315051   1.2445492   0.0601846   0.3671886
  -0.2625991  -0.0707410   0.1488855  -0.2441781   0.3481865  -0.1611282
   0.1665124  -0.8454689  -0.3751248   0.1204083   0.0684161  -0.2171909
   0.4229145   0.4776525   0.7049762   1.5980877  -0.6270686   0.6839724
   0.1737332   0.0909910   0.3439185   0.1070689   0.1362293  -0.8203477
  -0.4715884   0.5893126   1.1571681  -0.0269144   0.3004936   0.2122641
  -0.1769128   0.1443508   1.0574162  -0.6215296   0.9579144   0.9097384
   0.2901297   0.3756306   0.1250135  -0.3349334  -0.3339272  -1.4236973
   0.5136873   0.9745091   0.0809051   0.0865850   0.3941584  -0.1062682
  -0.7521486  -1.0075525  -0.1572001  -0.3767804  -0.5901007  -0.2869121
  -0.0136503  -0.2609853  -0.0606652  -0.9501257  -0.1365269  -0.1812988
  -0.2946113   0.6043714   0.1154168   0.2488427   0.0611546  -0.0229643
   0.8079806  -1.4703409   0.8749408   0.2714606  -1.3829084   0.6419235
  -0.1145803  -0.0341651   0.1577066  -0.3950536   1.7812680  -0.0877405
   0.2150960   0.1322246   0.2838711  -0.0493871   0.0132304   0.2851167
   0.1374895   0.0444571   0.0989123  -0.6361392  -0.3869624   0.3450514
  -0.4169494  -0.0676504   0.2177725  -0.5319847   0.5721328  -0.4326232
  -0.6836066  -0.1296054   1.8378823  -0.0328603  -0.0151022  -0.1161162
  -1.6264168   0.7762692  -1.1824918  -0.0039987   1.2785815  -0.7029841
   0.0353373  -0.0795056   0.2358663  -0.8501060  -0.5924932   0.2906376
   0.9688667  -0.8564637  -0.2212530  -0.0052156   0.0239483   0.3055456
   0.5566257  -0.1173924   1.0922155   1.3041826   0.1023586  -0.6754242
  -0.2138228   0.0989393   0.3231589  -0.1866746   1.8352509   1.3487152
  -0.2577359  -1.1697881  -0.2457138   0.1422162  -0.4967116  -0.0516127
  -0.2417100  -0.2071862   0.4400899   1.2527856   0.1527875  -1.7102066
  -0.1297200   0.0149554  -0.1974152  -0.4212200  -0.5419563  -0.0246165
   0.8218872   1.5341990  -0.0245898   0.0257905  -0.2624993  -0.1110948
  -0.5687169   0.7183759  -0.8264736  -0.9594767  -1.0333088   0.1329035
  -0.0287738  -0.1320890   0.1826655  -1.1589239  -0.5562283   0.1294416
  -0.2857472  -0.5245095   0.0813010   0.3308667   0.3830992   0.2464846
   1.6743921   0.0163642  -0.8129851  -0.2262963  -0.2405123   0.5882372
  -0.4216435  -0.1426436   0.0886138   0.0868171   2.0653924  -0.4883361
   1.4955780   0.8661978  -0.1369305  -0.1529119  -0.0976794  -0.2142656
   0.2479715  -0.4307543  -0.3568653  -0.5032191  -0.4060438   0.0622587
   0.1263191  -0.1564346  -0.1957274  -0.0342669   0.6945996  -0.2603427
  -0.1098494  -1.0842473  -0.5904765  -0.4371728  -0.1980673   0.0657104
   0.2133484  -0.7613026   0.1798835   0.2299961   0.0976055   0.7042684
   0.0171482  -0.1819466   0.1638436   1.6948197  -1.1569428  -0.7428799
  -1.0438347   0.9357422  -1.5115855   0.2649202   0.1070736   0.0114944
   1.5755556   1.2772715  -0.4928715  -0.8897020   1.1341361  -0.0458391
   0.0888760   0.0360454  -0.2550117   0.0457323  -0.4210199   0.8657938
   0.1018539  -0.5972198   1.5469499  -0.2030442   0.0108618  -0.3326066
  -0.1155936   0.4903631  -0.7216298   0.7718693  -0.6888091  -0.0043592
  -0.2138235  -0.0060369  -0.0216480   0.6807857  -0.6193500  -0.7128348
  -0.2399035  -0.1359647  -0.6994600   0.2801805  -0.0286074  -0.0924329
  -0.2740841  -0.1099821   1.2245365  -0.4623479  -0.2104842   0.2172664
   0.0120359  -0.0387848  -0.3212482  -0.4841067   0.7351229  -0.9942941
  -0.3345778   0.0291851   1.4629124  -0.2007454  -0.0601804   0.0660137
  -1.0203502   0.2032671   0.2832440   0.3383113   0.8708053  -0.3653657
   0.0468753  -0.3011552   0.3152886  -0.3967647   0.6787883   1.2232533
   0.8299832   0.2835252  -0.8780503  -0.0126188  -0.2065326  -0.1646070
  -0.2506603   1.0402195   1.2973345  -0.5594040   1.2863727   0.5446436
  -0.3472255   0.4767320  -0.0822359   0.1115959   0.5898258  -0.1044609
   0.3858161  -1.2910487  -1.1069277  -0.2543129   0.3593730   0.0088600
  -1.9062145   0.5263630  -1.2193716   0.5724009  -0.1469444   0.7108291
   0.2021805  -0.0982764  -0.0307535  -1.9488407  -0.5967537   0.2809218
   2.0483693   0.9639030  -1.1394744   0.2023085   0.1726002   0.2497051
  -0.6918140  -0.1671848   0.0620421   0.5289902   0.3066897   0.7505704
  -0.2204652   0.2267485   0.1412450  -0.1579127  -0.8841656   0.6751739
   0.3120788  -0.4904244  -0.1063923  -0.2234190   0.1075486   0.2434519
  -0.8245063  -1.1589868  -1.2549392   0.8051458  -0.3982834  -0.1103217
  -0.1126528  -0.0771342  -0.2123494  -0.0539840  -0.3777422   0.1713144
   1.5099563   1.3793752   0.6839683  -0.1211033   0.0906878  -0.1913703
  -1.2448001   0.5830215   0.3045686  -0.4667844  -1.2354185   0.2852860
  -0.0008803   0.4886884  -0.4939011  -0.3431362  -0.4930407  -0.2200950
  -0.7927528  -0.2522160   2.0768739   0.0226694  -0.2319781  -0.1403900
  -1.5255214  -0.9154840   0.7586465  -0.7017973  -0.8237771   0.6051089
  -0.1539238   0.0016682   0.3797956  -0.4362956  -0.1825926   1.0694126
  -0.2501333  -0.5167957  -2.5122927  -0.0540564   0.2945102   0.3433463
  -0.4828746  -0.0662719  -1.3787263   0.0443676   0.2232269  -0.5556306
  -0.3336733  -0.0632898  -0.0031668   0.6853871   0.2749412  -0.3766184
   0.1141516  -0.4423412   0.2559738  -0.0485785   0.2160839   0.0228591
   0.8244919   0.8446628  -1.8043012  -0.4357470  -0.5957909  -0.6252455
  -0.2793981  -0.3958310  -0.2860872  -0.9868682   1.2491523   0.5447227
  -1.5142749   0.5851539   0.8794882  -0.1508203   0.1380227   0.0435544
  -0.0327838   0.2571476   0.0729059   0.9048929  -0.5101704   0.1550753
  -0.2031308   0.0838072   0.1044123  -0.3768875   0.6082699  -0.7502996
  -0.1845702   0.0527894   0.1060456  -0.1970185  -0.0193618   0.1180861
  -0.5129634  -0.8875919   0.2302178  -0.2423594   0.8839995   0.1232856
   0.0426531   0.5130431   0.0343206  -0.9241556  -0.4090025   0.6792988
  -1.2356119  -0.0871082   0.1141066   0.1862285   0.3203213  -0.0896832
  -0.2716327  -0.0954798  -0.3490701   0.6555629  -2.6209364  -0.9945454
   0.0264622  -0.4349604  -0.0651883  -0.3677980   0.5352465   0.9484299
   1.2229462   1.5217945   0.6499196   0.0998492  -0.0848767  -0.1327290
  -0.2568665  -0.4589224  -0.8439343  -0.2665183  -1.0072837  -0.5438388
  -0.2553742   0.1388752   0.0863526   0.1648980  -0.4448739   0.3924238
  -0.8324507  -1.2604559   0.1952971   0.0965741  -0.1288842  -0.3510450
  -0.1171109  -0.2233725  -0.6929797  -0.9582446   1.0008510  -1.1432697
   0.0281906   0.1681497   0.2562538  -0.6004185  -0.2249513   1.1364151
  -0.3388651   0.1301644  -0.4007220  -0.1952237  -0.1184860   0.2167095
  -0.2263936  -0.3910518  -0.0044926   0.7389290   0.2417919   0.3826415
  -0.2817718   0.3232398  -0.1659659   0.2607733   0.6068272   0.0953367
   0.4288087  -0.8787353  -0.5048316  -0.1246080  -0.0942423   0.1164856
  -0.3645274  -0.1677816  -1.1473592   0.8906373  -0.8689056   1.3730717
   0.4408836  -0.1125379   0.3201689  -0.8852654   0.6585080   0.1626908
   0.4343203   1.0048827  -0.4092917   0.0752316   0.3784205   0.1075152
  -0.1258391  -0.9888585   1.8390520  -0.0003027  -0.1495132   1.0237142
  -0.1269157   0.1515058  -0.3141593  -0.4049041   1.1209471  -0.8479108
   0.1262729  -0.4532866   1.7491129   0.0055879  -0.0281252   0.1356323
   0.2870270   0.4196962  -0.1011024  -0.6878309   0.5557291   2.0182674
  -0.2729618  -0.0145924  -0.0187045   0.1567787   0.0294921  -0.0452621
   0.5411105  -0.7931700  -1.1064104   0.1252344   0.0188817   0.0173515
   0.0240579   1.1188182   1.6789111   0.5292689   0.7243175   0.2535366
   0.1124168  -0.2576273   0.0135426   1.1422404  -0.6397604  -0.2689512
   0.3466377  -0.9207636   1.9797894  -0.0619693   0.0267883   0.1896366
   0.1616788   0.6348442   0.5595297  -0.8313212  -0.2554889   0.9907418
   0.0076259  -0.1621977  -0.1689097   1.2789561   0.9825028  -0.4108621
  -0.4926926   0.9779932  -0.6566764  -0.0764379   0.1010611   0.0489999
   0.1174181   0.7491722  -0.4390961  -0.4590483  -1.1949242  -1.8713687
   0.0349321   0.0707528   0.0087572   0.1803832  -0.4881275   0.9308571
   0.0546241  -0.8831092   1.1838220   0.1060220   0.0741919   0.0280969
  -0.8698391  -1.1776896   1.2037110   0.2537550   0.9334668   0.3454950
   0.1379134   0.1261908  -0.3079142   0.3168178  -0.9950851  -0.4039632
  -0.9534320   0.2552213   0.6046170   0.1633046  -0.2382335   0.0794695
   0.5217376   0.0625408  -2.1555443  -1.0315914   1.2197647   0.3376871
   0.2509881  -0.1080512  -0.2306063   1.5938110   0.9804715   0.3872662
   0.3720588   0.4083590   0.4366274   0.2723403   0.0228651   0.0104124
  -0.6400798   0.4638523  -0.2163627   1.1416059   0.5374231   0.9140430
   0.1340388  -0.1177291  -0.1030315  -0.6921441   0.5907028  -1.2241422
   0.4515610   0.5816042   0.5667529   0.1454601   0.2032353  -0.3662046
   0.4844143   1.1173564  -1.0563045  -0.5156592  -1.0581349  -1.6074533
  -0.1072817  -0.2753943   0.0640167  -0.2979974   0.1058673  -1.3136805
   0.0608692  -0.7976429   0.7533608   0.0101854   0.1498721   0.1670060
  -0.0198185  -0.4840454  -0.0515237  -1.2505765   0.5630418   0.0143764
   0.1092104  -0.0301249  -0.1486529  -0.8642725   0.8493746  -0.9031497
  -0.2460181  -1.2432921   0.1248029   0.1277025   0.0292292   0.4867340
  -0.2764664  -0.8023854  -1.3086572  -0.2087973  -0.5457532   1.2594879
   0.1216424  -0.2638959  -0.0254174   0.7682516  -0.3446541  -0.8436778
  -1.4153310  -0.7386620   0.4146961   0.0962698   0.2832122   0.1941093
   1.2180694  -1.2021556  -0.7003828  -1.6590292   0.3602420  -0.7886667
  -0.0125201  -0.1088562  -0.0079049   0.1836085  -0.9314295  -0.1770646
   1.4229463  -0.8783809  -1.1512584   0.2661004  -0.1496854  -0.0230665
  -0.0132716   0.9543519   0.5210087  -0.8908799  -0.5421070  -0.2905767
  -0.1899805   0.0157907  -0.0856207   1.0874861   0.9072924   0.5668909
  -0.5767927  -0.8509327   0.3653830   0.0098010  -0.2725993   0.1527844
   0.6320798   0.6952670  -0.8501000   0.2115621  -0.2629213   1.2478417
  -0.1952160   0.0832588  -0.0077189  -0.0269724  -0.5454975   0.7173061
   0.1760262  -0.8398980   0.5696105  -0.0861487  -0.3333746  -0.1721333
   0.3302555  -0.2689793  -0.4240484  -0.7949534  -0.7431161  -0.1843850
  -0.1503094   0.0963687  -0.2498586   0.8311889  -0.7388609  -0.2906249
  -0.0692453  -1.3277126   0.6108270  -0.1034611  -0.1328588  -0.0915396
  -1.3863177   0.4213523  -0.1047216  -0.0208962  -0.1984181   0.0628545
  -0.0399347   0.2605401  -0.1530166  -0.8356636  -0.1613580  -0.9210350
  -1.0407061  -0.1336693  -0.8958661  -0.1865736  -0.0245336   0.1824228
   0.0774039  -1.0720680   0.0715735  -0.2178254  -0.9923536   1.0753561
   0.1762039  -0.1160646  -0.0164247  -1.3275301   0.0127773   0.4302690
  -0.9378263   0.1046739   0.0675217   0.1201734   0.2220966  -0.1605356
  -0.9950279  -0.7911703  -1.1751353  -0.4682073   1.2599721   0.4346962
   0.1415867   0.0638936   0.1541986   0.0923817   0.4165398   0.7010577
  -0.1787720  -1.0704049  -1.4711420   0.1295337  -0.3297901   0.0826553
  -0.1964051  -0.1856824  -0.3359342  -0.6251695  -0.4785791   0.8818720
  -0.2876615  -0.1693217  -0.2159623   0.7443469   0.1730998   0.9133501
   0.1606479   0.2585656  -1.6113673   0.2703273  -0.1994159   0.1062281
   0.8185337  -0.1125763  -1.4936642   0.3117344  -0.3109364  -1.5882645
   0.0456054   0.1952245  -0.0118602  -0.0479217  -0.4238487  -0.5265085
  -0.2793375   0.6001649   0.3836278  -0.0607991  -0.2890277  -0.0590848
  -0.1295360   0.0634353   0.9016722  -0.0165285   0.7519349   0.2162087
  -0.2202797   0.2478833  -0.0068149   0.0899944  -0.0045910  -0.1950618
  -0.6125668   1.1407373  -0.9121996  -0.0804730   0.0218477  -0.2030464
   0.7034108  -0.4937595  -1.9074844  -0.1836392  -0.1575546   1.2762532
   0.0972825   0.0061372  -0.0174248  -0.4685251   0.1688170   0.5897191
   0.1547126  -0.5486359  -0.5881043   0.1211196  -0.1771267   0.1946713
   0.0314519   0.4004193   0.5573694   0.1032077  -0.0554534  -0.3637259
   0.2057553   0.1233050   0.2077479  -0.4418681  -0.3397000  -0.6714725
   0.7003939  -0.0846087   0.4734587  -0.1383655  -0.3061383   0.2438614
   0.1348094   0.4035145   0.7642253  -0.0430520  -0.4824083   0.1360312
  -0.0652465   0.0403643  -0.2787346   0.4101082  -0.3421158   0.6650926
  -2.0026876  -0.0836952   0.6471756   0.0858400  -0.4006341  -0.1033139
   0.3670658   1.0973175  -0.4040363   0.7861112   0.6493297  -0.0369452
  -0.1047901   0.1942017   0.0723878   0.5344675  -0.1945554   1.8577094
  -0.7968095   1.0991220  -0.5345890   0.0530462   0.1643907  -0.3855798
  -0.8317641  -1.4063739   0.4776786  -0.5089201   0.6490374   0.0928070
  -0.2782763   0.0326373   0.0685543   0.0643610  -0.7158593  -0.4387837
  -0.8107618   0.9835224  -0.3105213   0.0606174   0.0221338  -0.0922060
   2.0685683   0.1009763   0.8682227   1.5830445   0.4143643  -1.3220065
   0.0492906   0.2081298  -0.3576188  -0.4425548   0.9004987  -1.5502001
   0.0160951   0.2642210   1.0201735   0.1645551   0.1997845  -0.2027307
   0.4880040  -1.6455560   0.1910503  -1.0726049  -0.0655683  -0.7230627
  -0.0140111  -0.0271203  -0.1470468   0.2077840   0.2330880   0.6072621
   0.0180106   0.1558124  -0.7616049  -0.0163630   0.0525391  -0.1470334
   0.6730955  -0.4071096   1.1024929   0.5107986   0.7928357   0.2764922
   0.1771996   0.2469620   0.1122127  -0.2420159  -0.2317743  -0.6816004
   0.2358557  -0.5579767  -0.1848362  -0.0407381  -0.1820106   0.0350233
   0.7520954   1.1105890   1.2770748   0.9190254   0.9257783   0.0550183
   0.2060093   0.1591136  -0.1457657   0.2291496  -0.5349304  -1.1006367
   0.4219956   0.8490500   1.1064722   0.1045690   0.2115167   0.1203220
   0.3798026   0.4450801   0.0354638   0.2047706  -0.4279897   2.3411335
  -0.1236640  -0.2593407  -0.0553542  -0.0688717  -1.5934653  -0.0791632
  -0.0552311   1.3790434  -0.4139828  -0.3310810   0.5042531   0.0111964
   1.7247480  -0.5718596   0.0544199  -0.4113842   0.8664555  -0.3911196
  -0.2330637   0.1061691   0.0050711   0.0761991  -0.2455487   0.3974571
  -1.3190392  -0.2239548   0.4601865   0.2754475  -0.2165442  -0.0535762
  -0.7875734   0.0498554   0.3516701  -0.3132225   0.1195638   0.0468272
  -0.0066266   0.1386413   0.1098306  -0.9627612   1.7116222  -0.1105084
   0.3421568  -1.2923072   0.1732462   0.0540979  -0.1795675   0.0398176
  -0.5806366  -0.5683658  -2.2557686  -0.2836317  -0.0263399  -0.1345024
  -0.0523018   0.1158428  -0.0675248   0.2204483   0.5323149  -0.2264075
  -0.4875215  -1.6537197  -1.0635091  -0.0543763  -0.1052170   0.1520959
  -1.2648044   0.6269332  -0.6973090   0.2078989  -0.7631927   0.3829524
   0.0589198   0.2584598  -0.1969426   0.1041937   0.5691166   0.8063186
   0.9037962  -0.0110264   0.4024254   0.1637106   0.0765390  -0.0054727
  -1.0911963   1.1694146  -1.6807965  -0.5771905   0.7837471   0.3310003
   0.2863992  -0.0019608   0.1617703   0.7042910   0.1622120  -0.0116925
  -0.5448515   1.7457367   1.2123619   0.1059916  -0.1555297   0.0129562
  -0.9866727  -0.1018702   1.0103487   1.0075256  -0.6980354   0.6053989
  -0.1570203   0.1717288  -0.0063266  -0.0726976  -0.1727417  -0.8180577
  -0.6538276  -0.1859999  -0.1025666   0.1941837   0.4313899   0.0791747
   0.8917480  -0.0052706   1.0004574  -0.1340454   0.6098176   0.2700281
  -0.0671733   0.0430335  -0.0372577  -1.7765315   1.4930917   1.5449196
  -0.1538968  -0.0172174  -1.6265101   0.1750720   0.2428396   0.2096240
  -1.0165121  -0.4542104   0.2753870   0.6373055  -1.1926902  -0.6819944
   0.0747395  -0.4039319  -0.2235951  -1.1514623   0.2281816  -1.3776654
  -0.0027909   0.9122929   1.0689546   0.3005708  -0.0368542  -0.1267752
   1.0887966   0.9856040   0.7321195   0.6110064  -1.0715798   0.0439757
  -0.1311196  -0.1823173  -0.1551048   0.3683141   0.2000116   0.5036953
  -0.0820847  -0.5716909  -0.1882917   0.1585432  -0.0899237  -0.0552386
  -0.9484642   1.4817825   1.5227730   2.1379830   1.1479152   0.3814734
   0.3270103   0.1631510   0.1582446   0.0166608   0.8454723   1.3422224
  -1.0322900   0.2674413  -0.4381413  -0.0826002  -0.1711887   0.1485687
  -0.0961510   0.9692596  -0.6074023   0.2090396   0.3910930   0.2826976
  -0.0099231  -0.1415758   0.2027671   0.9232224   0.4381369   0.2217915
   0.2630926  -0.8168011  -0.3580504  -0.0226561  -0.0552506   0.0120582
  -0.3837632   0.3748585  -0.5504946   0.8053924  -0.9936864  -0.1350002
  -0.1891386   0.0362531  -0.0273093  -0.1374358  -0.5372034  -0.9287227
   0.9998178  -0.5627410   0.3318493  -0.1291718   0.0289838  -0.2303085
   0.4719920  -0.7136264   0.4794575   0.7144232  -0.4849743  -0.5353769
  -0.0423265   0.2373102  -0.2727313  -0.1794461   0.1085911  -1.2977510
   0.3767135  -0.0433609   0.0533948  -0.0032974  -0.2028171  -0.1073025
   0.0024730   1.7235114   0.3652142   0.2124288  -0.0548544   0.8263461
  -0.0363637   0.1047875  -0.0874708  -0.0678179   0.2501199  -0.4415340
   0.3081706  -0.9843963  -0.0241239   0.0821756  -0.1182184  -0.1475806
   0.3333778   1.1927496   0.0256077  -0.8421282  -1.1235968   1.1773171
   0.0483080  -0.0660336  -0.3732795   1.0510421   0.1555748  -0.0257398
  -0.7807475  -0.2833358   0.8011971   0.3962252  -0.0850570   0.1344191
   0.5185533  -0.1346305  -0.2919319  -0.2099391  -0.6002242  -0.3803195
   0.1447192   0.0076399   0.0389526   1.0697054   1.1460839   1.4631911
   0.2737822   0.1961762  -0.5687355  -0.1368250  -0.1435902   0.1301864
   0.2072602  -0.0234595   0.2315999  -0.6607072  -0.0074614  -0.4130666
   0.1066167  -0.2633032   0.1247017   0.9309382   0.1560096   0.1724048
  -0.7191101  -0.2835166  -0.6964592  -0.2143348  -0.0398458   0.1774001
   0.3190185   0.5601172   0.1866974  -0.9154874  -0.9792030   0.2307086
   0.2153563   0.0384343   0.3138708   0.5817364  -0.7010729   0.8090005
  -0.5304318   0.0529103  -0.8435965   0.0973749   0.2015145   0.1303326
  -1.5424228  -0.0354357  -0.8957054   0.5128194   0.2086400  -1.3646798
  -0.0555763   0.1427338   0.0978859   0.7591038   0.9564445  -0.7518007
  -0.5818800  -0.1430482   0.7775388  -0.0680564  -0.0175694  -0.1011766
   0.0101675  -0.6219663   0.7114443   0.5307358  -0.9259994  -0.9010632
   0.3608255  -0.4462478   0.2313530   0.9175105  -0.3360720  -2.0466860
   1.2362613   0.4096143  -1.2995955   0.2694958   0.0441133  -0.1558006
  -1.7543851  -0.6191027  -0.0125294   0.3307301  -1.0941785  -1.1912937
   0.0299472  -0.1379161  -0.0172957   0.1956926   0.1321008  -0.0331290
  -1.5075037  -0.9871668   0.3069458  -0.2764060  -0.2874236  -0.0845671
   0.0189261  -0.0313515  -0.1297485   0.4224974   0.1579361  -0.6575745
   0.3872937   0.3897281  -0.2866399  -1.1250999  -0.2269900   0.1569018
  -0.4222065  -0.1368105   0.0962811  -0.2131789   0.0745588   0.0437083
  -0.4113350   1.1235208   0.3818510  -0.1756297   0.3648910   0.4870318
  -0.2054618  -0.1178101  -0.0066004   0.1392378   0.4116203  -0.5720352
   0.3818508   0.4078225   0.2463634  -0.2919065   0.1176216  -0.2349645
  -0.6685634   0.5579144  -1.9062111  -0.3158907   1.0114371   1.1876557
   0.2712340   0.1723516  -0.0140806  -0.0383929   0.9382051   0.4232707
  -0.0955454   0.3028859  -0.2853980   0.0378161   0.1184998   0.1036793
   0.4057365   0.4795372   0.0522104  -0.3678084  -0.5269920  -0.0679131
  -0.0909965   0.2527931   0.0614764   1.0056529  -0.5434539  -0.7203769
   0.7684151  -0.1678770   0.8282588   0.2430900  -0.1047742   0.2018995
   1.2604459   0.5735920   0.2658306   0.6690044  -1.0421513   0.0098166
  -0.0487621  -0.1358840   0.0398652  -1.3998791  -0.0234925   0.4892069
  -0.5077870  -0.1142615   0.9474764   0.3055892  -0.2959455   0.1707765
   0.2541464   0.3243935   0.0673825  -0.7701119  -0.3310339  -0.4519875
  -0.0924544   0.2505549   0.3248172  -0.3976996  -0.6318894  -1.1092637
   1.8499277   0.5225076   0.5024318   0.3004042   0.0582178  -0.0060467
   0.1941394   1.1624482  -0.1648999  -0.3095626   0.3035397   0.8366471
   0.1419681   0.0136830  -0.3452338   1.0980021   0.0462723   0.9645285
  -0.8358336  -0.4694627   0.3879487  -0.2124174   0.2238570  -0.4214535
   0.3692387  -0.4510671   0.2923220  -1.1040698  -0.3190672  -0.8691976
  -0.0686515   0.3279476   0.0817258  -0.1932035  -0.6514746   0.8443168
  -0.6724582   0.7497911  -0.7294758  -0.1727931  -0.0922268   0.1536713
  -0.2411996   0.0434198   1.9468439  -0.1756736  -0.2015000   0.6922058
   0.0976214  -0.1078582   0.1095583  -0.6614418  -0.3884679   0.5721750
  -0.0907650   0.0883280  -0.5272969  -0.1068117   0.4690888   0.2552509
  -1.0570159  -0.2740645   0.1153149   0.6670171   0.4013281   0.2658442
   0.0852250   0.2525004   0.2094388  -0.0914987   0.0732656   1.1977171
  -0.2826691  -0.2642710   0.1757175   0.0364058  -0.0113916   0.0849449
   1.3519597   0.9484478  -1.2400663   0.3569057  -1.1334857  -0.0565387
  -0.0899935   0.0769276  -0.2720511  -0.8410279  -0.8826817   1.3461681
   0.7993720  -0.5358088  -0.5412597  -0.4621569  -0.1732860  -0.2679679
   0.0392965  -0.1714160   0.4565360   0.4490134  -1.0281159   1.4647985
   0.0155135   0.0552194   0.0813135  -1.0045719   0.3961466   0.3842675
   1.2189542  -0.2380995  -0.9139477  -0.1347746  -0.1084141   0.1513905
  -1.4031655  -0.7482103   0.5904671  -0.8501492   0.3405147  -0.5832405
   0.0382189  -0.0713249  -0.1565118   0.4759780  -0.0702895  -1.6041419
   0.0829400   0.7257499  -0.2301521  -0.0563540   0.2495054   0.1962801
   0.4915988  -0.6426259  -1.6917400  -0.2397953   0.3579859  -1.7238173
   0.2788918  -0.2106559  -0.4347415   1.7548798  -0.8142153  -0.5531132
  -0.1893427   1.1132143   0.0669263  -0.1660339  -0.1657515  -0.1968115
   1.1303173  -1.7097757   0.5890930   0.6395438   1.2213618  -0.0842101
   0.0295066   0.0599716   0.0777548   0.7719661   0.7234170   0.0735231
   0.7015765  -1.2905700   1.4584761   0.3225390   0.0474483  -0.1274752
   0.8586550  -1.1621863  -1.2791589   1.0229588   0.4664501   0.8508992
   0.0661495   0.0748645   0.0852850   2.2139898   0.3453768   0.1889856
   0.7849808  -1.2220550   0.2994470  -0.1871535  -0.3602340  -0.2725227
  -0.3775000  -0.2357365   0.2821955   0.0034301  -0.9608054   1.4702261
   0.1083229   0.3307981  -0.0757022   0.9575013  -1.0193608   0.1574761
  -0.5382879   0.7881765   0.7403070  -0.2209807   0.1705849   0.1559187
   0.1673394  -0.8749640  -0.0558627  -0.1211795   0.6031947  -1.0405843
  -0.2175828   0.2770383   0.0556567  -0.7904401   0.8372409  -0.4610434
   0.0091654   1.4740597   0.0736650   0.0921472   0.0670919  -0.0573406
   0.8063391  -0.4688642  -0.2284576  -0.0000178   1.2991421   0.2778620
  -0.1259900   0.1471537  -0.1244208   1.1081939   0.7083624   1.2084870
   0.5150212   0.3387060  -0.2287648  -0.0072329   0.2117682   0.2165797
  -0.0234521   0.6023655  -0.1553012  -0.3333273  -0.5492242   0.5141997
   0.0575727  -0.0045161   0.0946965  -1.0038222   0.1637770   0.8202816
   0.7852294   0.2275885  -1.5356052  -0.0763750   0.2740642  -0.1321109
   1.6815991   0.2003849  -0.6439227  -0.2483767   0.6793807   0.2996204
  -0.4118314   0.0770529   0.1621669  -0.9456772   0.3039712  -0.6280193
   0.2937292  -0.3521391  -0.8710868   0.2145406  -0.0317892  -0.2199754
   0.1785896   0.0504602   0.0986675   0.4134122  -0.0741709  -0.7189750
  -0.0580444   0.0231107   0.1409551  -1.4002391  -0.1131543   0.5248881
   0.6222248   0.6766509  -0.3262483   0.2470955   0.1105840   0.1869754
   0.1710808  -0.4183214  -0.8086767  -0.9737672  -0.5634164   0.8056622
   0.1936902   0.2349146   0.4432434  -0.5022104  -0.0382868  -0.6787299
   0.6464905  -0.5113689   0.0313262   0.2500890  -0.0979582   0.1027789
  -1.3858326  -0.5889660  -0.0763631  -0.3732469   0.0363108   0.7194960
  -0.0283844  -0.0164326  -0.0587490  -0.0139767  -1.3169612  -1.0067688
  -0.0157861   0.2619843  -0.0396151  -0.0892889  -0.1016443   0.1368986
   0.9895430   0.3209163  -0.7093730  -0.5365841  -0.6502223   0.9638500
  -0.2254009   0.0370011   0.0424596   1.2768901   0.0776275  -0.3482258
  -0.2735769  -0.1906210   0.3626770  -0.3520581   0.0525136  -0.2177120
   0.8333867   0.0931810   0.5170281  -0.9159614   0.0989864   0.5046599
   0.0258221   0.0581489  -0.0400297  -0.4271176  -0.1840817  -0.9849356
  -0.0890981   0.8733743  -0.7512441   0.3275378  -0.1491437  -0.3513345
  -0.1769107   0.6831414  -0.5431315  -0.0479684  -0.0269888  -1.2127446
  -0.1973171   0.0581269   0.2495681   0.0296038   0.1920576  -0.8395925
  -0.4204901  -0.0507792   0.3343391   0.2833642  -0.2861072   0.0435149
  -0.6043575  -0.4102744   0.7956544  -0.2014424  -1.6330481   0.7904777
   0.3243534  -0.1406604   0.1827837  -0.1032116  -0.1895954   1.2028599
  -0.4131076  -0.1725964  -0.2474369  -0.1682630   0.2909245  -0.2496156
   0.1848196   1.1507239  -0.6339714   0.2259463   0.1371421  -1.4713819
   0.1603682   0.3073826   0.0204006  -0.0357498   0.6047114   0.7930081
  -0.3184727   0.1184825  -0.1015720   0.3552812   0.1772038  -0.0004691
   0.7713430  -0.3573590  -0.3961943   0.9657812  -1.1337404  -0.2843621
  -0.0843536  -0.1224880   0.1479529   1.1207038  -0.4259332   0.2687549
  -0.7967865  -1.0056819  -0.4889449   0.0256986   0.2246352  -0.3000654
  -0.5745493  -1.1713525  -0.7625748  -0.3028082  -1.7598027   0.4241662
   0.1764834   0.1059145  -0.1202576   0.8129208  -1.3762555   0.9089100
  -0.8606031   0.1006251   1.6130165   0.1296960  -0.1302102  -0.1136281
   0.0252762  -0.1750755  -0.4253772   0.3286343  -0.6481714  -0.9334285
   0.2705073  -0.0022691  -0.0393173   0.0852585   1.0296003  -0.1309467
   0.4469034   0.8030715  -0.4990802   0.1406678  -0.2633960   0.5335275
   1.5714486  -0.4838202  -1.5955337   0.6956576  -0.5653678   0.7265516
   0.4698928  -0.2439049   0.2235597   0.0509145   0.8679464   0.5970308
   0.7416579   0.0405310  -0.1555799   0.0686940  -0.1568979  -0.2353451
   1.9950903   0.4672262  -0.2665200   1.2894110   0.2705345   0.7405251
  -0.1067958   0.0820534   0.0120229   0.1194078  -0.1259158   0.7475315
   0.2259682   0.5306887  -1.2041138   0.0299482  -0.1137940   0.3857225
  -1.4776935  -1.6647900  -0.3765022   0.9709347  -1.3293594   0.3604176
  -0.0775281  -0.3756627  -0.2603578   0.0062051  -0.2019709  -0.6154700
  -0.6103196  -0.7864671   0.0111840   0.1562708   0.0362897  -0.0469335
   0.1782782  -0.2935889  -0.0250130  -0.3578416   0.6156642  -0.6865527
   0.0587679   0.1822063   0.0298151  -0.7629235  -1.1091296  -1.9146792
  -0.2215238   0.6258320  -0.6848476   0.1119594   0.0100822  -0.2352061
   0.9571239   1.4321313   0.7294534   0.2367334  -0.6930472  -1.0909278
  -0.0327075   0.0612922   0.0854569  -0.2589690   0.4077934   0.0325505
   0.0498038  -1.0704654   1.1704461   0.2732615  -0.3115333  -0.1301076
  -1.6133724  -1.0599535   0.5693616  -0.4383979  -1.0500807   0.0513513
  -0.0991007   0.0774020   0.0405966   0.9864685   0.5239915  -0.4502131
   0.7912059   0.1785432   0.2818148  -0.0043160   0.0424490  -0.1822257
  -0.4625848   0.9475109  -1.4192556   0.7194686  -0.0200487  -0.1511499
  -0.0027898   0.0633198   0.1203920  -0.7213665   0.5366614   0.1408347
   1.3438095   0.0697230  -0.6733914  -0.2070702  -0.1469398  -0.2725542
   1.3980134  -0.9445932  -1.5187902   0.8210896  -1.0568578  -1.5166898
   0.2033329  -0.3062036   0.2003005  -0.7173453   0.5650138   0.2473993
   0.7028525   0.2917251   0.8706266  -0.1432979   0.0969604  -0.0428972
  -0.6414241   1.0729160  -0.4199787   0.4183626  -0.9716908   1.0574144
   0.2464960   0.1998344   0.2419004  -0.2442009  -0.5736373   0.3942063
  -0.7665553   1.2175680   0.7264478  -0.0720525  -0.0176289  -0.3483851
  -0.3393907   0.5033821   0.4838775   0.2293075   0.2569483  -0.3664894
   0.2026116   0.0364451   0.2486990   0.9344348  -0.0927781   0.5470305
   0.4525273   0.2045146  -0.4408854  -0.0487078   0.5300353  -0.0469772
  -1.4026482  -0.4621456  -0.7427724   0.2412989   1.0487398   0.6877742
  -0.1138286  -0.2285837  -0.0207955   0.7765279   0.4167669  -0.0803230
  -0.3327775   0.2331869  -0.2049320  -0.2670718   0.2072592   0.3503582
   1.4007236  -0.5811074  -1.2199752  -0.1650432   1.2117905  -0.9412776
  -0.0539500  -0.3342067  -0.2461544   0.1668314  -0.7044219   1.5128968
  -0.3781964  -0.4433313  -0.4451476  -0.3091613   0.2608151  -0.2873146
   0.0755893   0.3880411   0.7930286  -0.7830544   0.4610497   0.4001451
  -0.0060897  -0.2199898  -0.4262593   0.1341059   1.0423587  -0.6855675
  -0.0041197   0.2450798  -0.5823165  -0.1382086  -0.3952650   0.2187760
   0.2382275   0.1649602  -0.0093206   1.3701002   0.7344618   0.5998604
  -0.1696155   0.1912113  -0.0963079  -0.4557555  -0.6799881  -0.6435371
   0.3622909  -0.2305818  -1.2046604  -0.0520292   0.1664744  -0.0622047
   0.9688563   0.6700239   0.3221419  -0.5815168  -0.5172337   0.5231958
  -0.1154273  -0.3907669   0.0037923   0.4131322  -0.8650191  -1.1246902
  -0.7609754  -1.1249627   0.9020059   0.1923381  -0.2247014   0.0651085
   0.3587794   0.7082888   0.2102946   0.4471808   0.0473522   1.1164979
  -0.0595871  -0.0761749  -0.2079962  -0.1827758   0.7476639  -0.1444527
   0.0471456   0.5882901   0.0805055   0.4701888  -0.3033257   0.2885263
  -0.7669268   0.4199242   1.0026943  -0.0344734   0.0602199   0.1514766
  -0.3925653   0.4930490   0.0480545  -0.1378149   0.0888247   0.3349923
   0.6925647  -1.5717026  -0.1607166  -0.0735693   0.0919087  -0.2660308
   0.3542124  -0.0634377  -0.4537788  -0.0444244   0.3321734  -0.0658035
   0.1196482  -0.1015653   0.0060190  -1.4131013   0.2178848  -0.2584076
  -0.5061806   0.9776938  -0.7828317  -0.0847869  -0.0084438  -0.0112331
  -1.1112605   0.2756833   1.0024261   0.3223319  -0.0689440   0.4845039
   0.1738588   0.0182100  -0.0019238   0.3309544   1.3765216  -0.2657639
   1.1939942  -0.2645901  -0.8881205  -0.0485885  -0.2010792  -0.4533007
  -0.3933857  -0.2795349   0.1191056   0.4366283  -0.2739593   0.8400229
  -0.0841077  -0.2237842   0.0381564   1.0917210   0.0321455  -0.0345069
  -0.9442994  -0.1707469  -0.0784903   0.1071999  -0.0735346   0.5878591
   0.4931032  -0.4492545   0.1079350  -0.0454423   0.1131500   1.1850202
  -0.0379644  -0.1355006   0.1090744   0.2312229  -0.9282661  -1.0552333
   0.2076880  -0.0600073  -0.2151342   0.1292930   0.1121693  -0.1141079
  -0.3433756   0.5894164  -0.7761851   0.8765230  -0.8663446  -0.3696296
  -0.1323259   0.4511482  -0.2827070   1.4926218  -1.2151875  -0.6335775
   0.5466767  -0.9740737  -0.3469198  -0.0530912   0.3547939   0.1611759
   0.1253052   0.9179159  -0.0856195  -1.0578676   0.2088906  -0.7101607
   0.0631761   0.2108767   0.2050913   2.0183156   0.9675238  -0.4642892
   0.7914493   0.1502152   0.0607279   0.0396301  -0.3689715   0.0060047
   0.3821619   1.1020544  -1.4144716  -0.8996174   0.6940241  -0.8910889
   0.0846663  -0.0103867   0.2249338  -1.8386110   0.1173134  -0.8064254
  -0.3876396  -0.3188271  -1.1529404   0.1241284   0.1151830   0.1478429
  -0.3692260   1.0457277   0.1261368  -0.3032131   0.4296264  -0.1038491
  -0.0796722  -0.0041629   0.1393185  -1.3678642  -0.1512850   0.5277898
  -0.2515693  -0.9062237   0.5286748   0.2797055  -0.5071517   0.3076814
  -0.2297130   0.6006872   0.5469072  -1.0758749   1.0004768   0.5958302
  -0.0006871  -0.0671496   0.1296097   0.4600474  -0.5197787  -0.8097554
  -0.5048658  -0.4909237   1.2740621   0.0458851  -0.3755383   0.1917519
   1.3575388  -0.6072004  -0.0669674  -1.2938775   0.0349360  -0.6263555
   0.1592921  -0.2618207  -0.0403680  -0.8585167  -1.1455524  -0.1031307
   0.0220073  -0.0253353  -1.4840018   0.1231418   0.1328484   0.3216306
  -0.2245918  -0.5300814  -0.2081104   1.0638199  -0.1560767  -1.1551655
  -0.0530477  -0.1987667  -0.0497537   0.0407896   0.3909193   0.1268240
  -0.5686714  -0.5939115   1.7473064   0.0074142  -0.3542286   0.1294677
  -0.1810665   0.4811675   0.4336518   0.0763431  -1.0974442   0.7812073
   0.0563221  -0.2299721  -0.0763537   0.0323028   1.6049465  -0.5496318
   0.4677690  -0.8124019   0.3080021  -0.0417273   0.2200398   0.3964675
  -0.1241143  -1.1215348  -1.2882803  -0.1862708  -0.3457751   1.3298779
   0.0110939   0.1780834   0.4415514  -0.0750308   0.0682087  -0.1588660
  -0.5836950  -1.0069206  -0.3577246  -0.0371976  -0.3614397   0.1085290
   0.5593137   0.4417625  -0.8490960  -1.2542544  -0.4018802  -0.0817574
  -0.2113160  -0.0872252  -0.0384826  -0.6584980   0.7387729  -0.0929913
  -0.6715150   1.8768523  -0.4227604   0.0171345   0.1627474   0.1203209
  -0.0423169  -0.0592739  -0.9017209   1.0442567  -0.7217537  -0.2229984
  -0.2519272  -0.4462162   0.0648070  -2.3297721  -1.2362791  -1.3076411
  -0.3748623  -0.3883311   1.4806959  -0.2354617  -0.0116774   0.2899880
  -1.3600900  -0.9280894  -0.9413036  -0.9929160  -0.4852717  -0.3615877
  -0.0185855   0.1617461  -0.1069450  -0.6668227  -0.0676230  -0.1133922
   0.2140930  -0.7385868   0.1150435  -0.2587007  -0.0677368   0.1784980
   0.3901861  -0.0353697  -1.0359958   0.7270964  -0.7946945   1.0270758
   0.0493222  -0.2731472   0.3350767  -0.2958750  -0.2210934  -0.4640851
  -0.9687739   0.4751074   0.7968433   0.0225793   0.1638336   0.1242241
   0.7754022   0.4251959   0.5822077  -0.0283694  -1.0351309   0.4643266
  -0.2079858   0.1589691   0.2143726   0.4987893   0.1620575   1.2493936
   0.6873124   0.2678475   1.7974273  -0.0023733   0.0038581   0.2036484
  -0.4545146  -1.0048236   0.6509966   0.6719655  -0.0113430  -1.0674669
  -0.0403367   0.1652627   0.0504783   0.7136482  -0.0745902   0.7643006
   0.0672675  -0.5333625   1.1994664  -0.1408601  -0.0883059   0.2231860
  -0.4838641   0.1354851   0.1268541   0.3208024  -0.3020429  -0.9710007
  -0.6045325  -0.4652212   0.0937461   0.9206643  -0.1374573  -0.6472831
  -0.9538113  -0.2602133  -1.1734804  -0.2087524   0.1492451  -0.2719063
  -0.2713279  -0.4242408  -0.0718149  -1.0096139  -0.9162296  -0.9049945
   0.1943729  -0.2637953  -0.4187275  -1.4149855   0.0474400   0.7350956
   0.5143062  -0.3555234   0.1981386   0.1127659  -0.1513842  -0.2769406
   1.2483390  -0.1367416   0.2803990  -0.8413544   0.8756143  -1.4823516
  -0.1946159   0.1930025   0.0815130   0.5299317  -1.2560561   0.4179229
   0.1944245   0.2988317   1.3975982  -0.2926840   0.0290804  -0.0425195
  -0.4310187  -0.4926647   1.4626033   1.4008563  -1.7433389  -0.9826958
   0.2739198   0.1339954   0.0055212   0.5459988  -0.0741418  -0.8278223
   0.1292813   0.2277015  -1.0855694   0.1066692   0.0947189  -0.3535313
   0.8504462  -0.3700552   0.9557577   0.2895871  -0.8719620  -0.5260821
   0.1807517   0.2309734   0.0535935   0.2501702  -0.4710299  -0.3012678
   0.1434009   0.5779194   0.6135961  -0.0652983  -0.1830690  -0.5494426
  -0.5292175   1.5332229  -0.6451975  -0.9835074   0.1376917   1.4529338
   0.0837244   0.2816528   0.1954225  -0.8632713  -0.2283292   0.4468381
  -0.5483649   0.0634632   0.3710558  -0.1918342   0.0041460  -0.2933046
   0.9759446   1.1511031   0.0843880   0.3545429   0.0586459   0.5866171
  -0.1617919  -0.1060151   0.1500866  -0.6961595   0.0471719  -0.9327273
   0.2348179  -0.7173990   0.3832206  -0.0444957  -0.1998509   0.1400769
   0.8408439  -0.7695616  -0.8603631  -1.4253678  -0.7064529  -0.3573054
  -0.1224188  -0.1260371  -0.0340652   0.2719391   0.7337044  -0.1142284
  -1.4053457  -0.6127769   0.4200063   0.0372171   0.1553729  -0.0832310
  -0.0650934  -1.0878159  -0.8082080  -0.4331783   1.0378759   0.8694439
  -0.1312174   0.1281260   0.0295265  -0.3130351  -0.0847721  -0.1781663
   0.4644016   1.4174023   0.1234053  -0.0612750  -0.0632965  -0.0594325
  -0.6143155  -0.3124448  -1.4765604   0.9701628  -0.2654920   0.5052481
  -0.1723218  -0.4434817  -0.3114150   0.4949792   0.1043389   0.1965937
  -0.0142622  -0.2330031   0.7169550   0.0342388   0.2821888   0.0987492
  -0.8863497   0.6246281  -0.3523592   0.4525290   0.7807478   0.0544744
   0.0933368  -0.1003593   0.0355628   0.9004821  -1.2236515   0.0766775
   0.8429953  -1.6289481  -0.4391521   0.0744540  -0.0206547  -0.1117950
  -1.0186575   1.6956010   0.0869104  -0.3381186   0.5361702  -0.0679749
   0.0366850   0.1870516   0.1536132  -1.1336380   0.7834759   0.8293876
   0.6385032   0.0141538   0.0684224  -0.1598935  -0.1280765  -0.0364183
  -0.0968875  -0.0161510  -0.2486291  -0.9706169   0.0218316  -1.3565139
   0.0926598   0.1702607  -0.0200529   0.3705316   0.0371876  -0.3536877
   0.2351733   1.0664846   0.2785215  -0.1030587  -0.1473802   0.3722661
  -0.4354143  -0.5295565  -0.1150543  -0.3045296   0.6649798  -0.5762927
   0.2234636  -0.1646902  -0.0170502  -0.5705682  -1.3476843   1.7362882
   0.4044870  -0.5675069   0.4101018   0.1439873   0.1279008  -0.1685202
   0.1802516   0.8960536   0.9556374  -1.1799250   0.7786897   0.8327916
  -0.0808358   0.2389966   0.0726415  -0.2189902   0.7577978  -0.5531367
   0.5756805   0.5717557   0.5740877   0.5024451   0.0424954  -0.1635675
   1.1184666   0.2612746   0.7315762  -0.3314474  -0.1037427   0.0357705
  -0.0182463  -0.0024833   0.0530766  -0.3723031   0.4485546  -0.4003341
  -1.4381401  -2.1266806  -0.8159684  -0.0381292  -0.1292085   0.3647867
  -0.2512043  -0.5518006  -0.6021155  -0.0910388  -0.0035701  -0.1373340
  -0.1751398   0.0571134   0.0500463   2.2032634   0.4360749  -0.4841983
   0.5845427  -2.2998217   1.3421824  -0.0120186   0.0059868   0.0801334
   0.4108930  -0.8471286  -0.1955251   0.3334824  -0.1242134  -1.2606838
   0.1884940  -0.3089041   0.0081977  -0.9067190  -0.0524162  -1.3943214
   0.7810287   0.8304267   0.2166303  -0.3202370  -0.0006139  -0.2592136
   0.3989812  -0.7902983   0.4883454  -0.4141661   1.3798546  -0.5551082
   0.0091386   0.1249303  -0.1830441  -0.0318519  -0.9580148   0.3737185
  -0.3682447  -0.2237242  -0.3514826   0.0699992   0.0765691   0.1763831
  -0.6886374  -0.6607578  -0.6295559   0.5142261   0.3855493  -0.3467461
  -0.0009172  -0.3139898  -0.0420799   0.7915850   0.3905217   0.1121423
  -1.1692010  -0.8464964  -0.6745213   0.1206172   0.0572563  -0.1024633
   0.2789783  -0.4078833  -0.4230182  -0.4059233   0.3545794  -0.1830748
  -0.0308802   0.0734601  -0.1537588   1.6551600   0.8853853   0.6579765
  -0.5591148  -0.4810057  -0.5523009   0.0259670   0.1312352   0.2706225
  -0.4228750  -0.1652899  -0.3931412   0.1108567   0.2072100  -0.8622474
   0.0168710   0.0114387  -0.2630390  -0.3346354  -0.1256757  -0.1205969
  -1.6720960   0.4090130   0.5863368   0.1132753  -0.1685020  -0.0514307
  -1.1766938  -1.0199032   0.8691893   0.0360041  -0.4884967  -0.6931818
   0.2779733   0.1662579  -0.3002837   0.2508099  -0.5581100  -0.0482997
  -1.2416059   1.2541996   0.0529391   0.1153699  -0.0881141   0.4978655
   0.8985193   0.8889405   1.2336955  -1.0396204   0.1882589   1.6707177
   0.2745268   0.4707157   0.4123500  -1.6106170   0.4737104  -0.6461182
   0.5063393   1.1209934   0.0337002  -0.2200354  -0.2041530  -0.1616424
   0.4409768  -0.4775722   0.8716531  -0.6217586  -1.3539813   1.6115897
  -0.1583784   0.0401683  -0.0473079  -0.4961077  -0.1197709   0.7783088
   0.0543482  -0.0601152   0.0089130  -0.1623116  -0.0495014  -0.0062283
   0.6456557   0.4193393   0.5187358  -0.2389323  -0.0785133  -0.4545377
  -0.0297914   0.0553987   0.2035178  -0.2958656   0.4124072   0.5334648
   0.2347714   0.0250761   0.1567837  -0.3595566  -0.0774272   0.0267614
  -1.2729738  -1.5394620   0.2725570  -1.8063000  -0.8566781   0.4996712
   0.0824008   0.3621310  -0.0880968   0.5143024   0.1037744  -0.8589729
  -0.5371171   0.8108274  -0.0501690   0.1301603   0.0927664   0.4650351
   0.3702579  -0.4358081   0.9448161   0.2888945  -0.3150433  -1.2156667
  -0.1371815   0.1488970  -0.2299783   0.2955966  -1.2103953   0.6733202
   0.6216553  -0.1613293   1.6567663  -0.3293643  -0.0035468  -0.3441664
   0.4074905   0.6134121  -0.2528596   0.6791984   1.0141406  -0.8982030
   0.0110411  -0.2723508  -0.0719184   0.4173653  -1.0866626  -0.4725939
  -1.0912114  -0.1230339   0.9715703  -0.0784682  -0.0944441  -0.0991658
  -0.2524858  -0.0013985   0.7877657  -0.9811962   0.1019392  -0.5829009
   0.0636789   0.1632983  -0.1737822   0.3923697   0.9038530   0.0314864
   0.1233607  -1.9969107  -0.2167767  -0.3440338  -0.1893723   0.1315488
  -0.5636420  -1.1288327   0.5395628   0.2509720  -1.6631417  -0.3823576
  -0.3101629   0.1506732  -0.3360396   1.0960878   0.3611604   0.0301268
  -0.9533494   0.8880712   1.0681962   0.0083803  -0.2392103  -0.1903333
   0.4554967  -0.8882190  -0.8742920  -0.3158086   0.1998048  -0.4547583
   0.0910838   0.0205858  -0.1375591  -0.0435501  -1.7626299   0.1788074
  -0.7118490   0.2333555  -0.7641557  -0.1954677  -0.1722776   0.2904758
   0.5450198   0.4248789  -0.1458131  -0.2250177  -1.0199846   0.4374354
   0.1884498   0.0515774  -0.1993451   0.0026717   1.8672551   0.3779448
  -0.6289143   2.0232465   0.1796623  -0.0535039  -0.4153785   0.5265244
   0.6073119  -0.1473548   0.6019495   0.0616173  -0.4722586   0.7419588
  -0.1225651   0.1597071  -0.4510511  -0.1293742  -0.4551256  -0.9639318
  -0.9406148   1.8814555   1.1837847  -0.1969753   0.2766814  -0.0712550
  -1.0226727   0.0095566  -0.2922149   0.4782873   0.6892773   0.2561463
   0.0361297   0.2028361   0.1089733  -0.7063751  -0.3253908   0.1325621
  -0.4246763  -1.4437338   1.1987611  -0.2232730  -0.2989432  -0.0332733
  -0.3690168  -1.5652841   0.4315520   0.5657156  -0.9494609   0.1201919
  -0.0924687   0.0763391  -0.0747395  -1.0317172   0.0150204  -0.0475435
  -0.4387815  -0.0017527  -0.1494967  -0.1315982  -0.2936005  -0.3149549
   0.0543196   0.9576517  -0.8220363   0.4308709  -0.3536873  -0.6698012
   0.4391460  -0.1237238  -0.0726824   0.8620576  -1.1481341   0.0151602
   0.6535785   0.8687971  -1.1402724   0.0678293  -0.2086119  -0.0324263
  -0.0114263  -0.2376765  -0.9761512   0.8076306   0.2059537  -0.6865941
   0.1148835  -0.0669690  -0.0605016  -1.3782803   0.1243995   0.3214311
   0.4242435   0.5344146   1.6358155  -0.2935847  -0.1461156  -0.0739192
   0.6548432   0.0947951   0.0103160  -0.7908651   0.8393053  -0.1211428
  -0.0974936  -0.1338780   0.2845610  -0.2469025  -1.2077614   0.6257538
   1.3621024   0.6886093   0.0588469   0.1418348  -0.1188261  -0.0452267
  -1.0706879   0.2482200   1.4663219   0.2964850  -0.9450242  -1.1236222
   0.1059836   0.0457755  -0.3549262  -1.1376546   0.8619342  -0.0518582
   1.0745116  -0.4322067  -0.7726686   0.0411702   0.0824981   0.0871211
  -1.4945804   0.3060009   0.3045987   1.4328875   0.7728852  -0.1775172
  -0.1777693  -0.0144712  -0.1467975   0.0277600  -0.7465108  -0.1314223
  -0.5889587   0.9266607   0.3305362   0.1232210  -0.0723119  -0.1013713
  -0.9614984   0.7006783  -0.1946530  -0.7623682   0.4304473   1.0599487
  -0.0236868   0.0907129  -0.0197619   1.1570240  -0.1373633   0.9649472
   0.4074938   0.9961994  -0.7584017  -0.1778237   0.3537051  -0.0113779
  -1.1148141  -0.6512805  -0.4690708   0.1285338  -0.3143492   0.2320418
   0.0130364  -0.0178499   0.0315936   1.3445214  -0.1478232   0.7585123
  -0.1858727  -0.0199765   0.8669366   0.1153527   0.1612364  -0.1350792
   1.0844745  -1.0268796   0.0428749   0.3923645  -0.8528458   0.3309843
  -0.0203124  -0.0537162  -0.2256017   0.3296300  -0.9043243   0.2653728
  -0.1127863   0.2803612  -0.1520688   0.4220491   0.0419044  -0.4818533
  -0.7897051  -0.2269023  -0.0767312   1.5836796   0.1444542  -2.0824851
  -0.1781807  -0.4317675   0.0956565   0.3250156  -1.2193138   0.6499346
  -0.3174217  -0.3656834  -1.1253683  -0.1447443  -0.0835971  -0.0960524
   0.8298042   0.0304544   0.6929476  -0.2278731  -0.9170074   0.2564874
  -0.1769407   0.1642013  -0.0964675  -0.1230355   1.5106089   0.1961640
   0.4463388  -1.2911829   1.3350153   0.1871951   0.0782270  -0.1252272
  -1.0316123   0.8211602  -0.3160716   0.2265218  -0.5841208  -0.5142597
  -0.2158081  -0.3175885  -0.1562931   0.3957446  -0.8716043  -0.2064481
  -0.9397317   1.5079345   1.4201521  -0.1228132  -0.0119856   0.1096134
   1.0324073  -0.1688962   0.2438333   0.4002116  -0.4240868   0.1595087
   0.2390226   0.1481014   0.0652371  -0.1826444  -1.9530027   0.3289652
   0.4594315  -1.9126325  -0.6713343   0.1206392  -0.0537643   0.2363016
   0.0903356  -0.4418657  -1.0805204   0.6643357   0.1297930  -0.1394440
   0.0456380  -0.1453564   0.2778067  -0.5551139  -1.0478234   0.3366461
  -0.2472617  -0.6552816  -0.3365325   0.1263783  -0.0293969   0.1241730
  -1.8498826   0.0163823  -1.1588287  -0.5223563  -0.0692407  -0.4480364
   0.0764998  -0.2392659  -0.0692796   0.9189495   1.6660090  -1.1771294
   0.0255612  -0.2350886   0.5411350   0.1174060  -0.0535103   0.0730650
  -0.1520169   0.4046984   0.7857242   0.1984623   0.6634216   0.2740914
  -0.1728384  -0.1440835   0.0732855   1.3496992  -1.1405693  -0.2701680
  -0.2845557  -0.5705099  -0.5097701  -0.0069010   0.3122871   0.3357403
  -0.5619691  -0.2099757  -0.9013852   0.8441388   1.3247043   0.2739919
   0.1452186  -0.0684609  -0.3532980  -0.2538691  -0.6872905   0.0500324
  -0.5650737  -0.0860733  -2.1984645  -0.0864938  -0.0682701  -0.0510908
  -0.7569442   1.1386025   0.9882673   0.4859419   0.0811729   1.1748941
  -0.2225103   0.0528653   0.2858567  -1.8692551   0.8076185  -1.1172491
  -0.0448216   1.6232977   0.3716253   0.0358386   0.0419716  -0.0607415
   1.1419580   1.5709639  -0.2870830  -0.8423319  -0.5659140  -0.0414000
   0.0040048  -0.0074420   0.0843489  -0.4551513   0.6178693  -0.1201807
   0.8678830  -0.6128976   0.8161850  -0.0213903   0.0652034   0.1234235
   0.0748784   0.8978894   0.0817324  -0.9601211  -2.7345551   1.0897926
  -0.1166371   0.2371694   0.0557438   0.5419568   0.3154714  -1.1254775
  -0.4382394  -0.0683406   0.1601089  -0.0019344  -0.1196339   0.0205350
  -0.7005088   0.8082700  -0.3266019   0.3925664   0.5853476  -0.7453416
  -0.1000602  -0.3444533  -0.1900741  -0.0588746  -0.0746738  -0.7142097
  -0.7530242  -1.0696851  -0.9223385   0.0615205  -0.0103824   0.0637725
   0.8875672   0.5361399  -0.5542677  -0.1337012  -0.3497045   0.4179172
   0.2800678   0.0654933  -0.4288382  -1.1145846   0.4979330   0.1919891
   0.2056133   0.5876683  -0.7718569  -0.0474921  -0.0085163   0.0611047
  -0.0805983  -0.6193594   0.7188480  -1.0953058  -0.8168985   0.4924867
  -0.1604700  -0.3914455  -0.2466267  -1.1931872  -0.8325498  -1.0682760
   0.5844891   1.6704529   0.0917964  -0.1787315   0.2557214   0.1103007
  -1.1100039   0.3697582  -1.1932399   0.0371314   1.1904537   0.7566736
  -0.1215911   0.0992329  -0.1771292  -0.3748293   0.6376395   0.4650941
   0.7063416  -2.1247024  -0.3035456  -0.1400929  -0.2899997   0.3173291
  -0.9076143   0.4330722   1.4643395   0.3557986  -0.2158702  -0.4576816
   0.1482877  -0.0657779  -0.0962980   0.4364423   1.4461285   0.0659775
   0.2122540  -0.2615581   0.2258943  -0.1039782  -0.2432979  -0.0677345
  -0.1161299  -1.3461028  -0.1516810  -0.8532148   0.0917524  -0.2608832
   0.1789516  -0.1335221   0.4431348  -0.2128142   0.1818192  -0.1162167
  -0.5268591   0.1211599  -0.6102729   0.0203056   0.0163487  -0.1260513
  -0.0094435  -0.8859003  -0.6567908   0.6551794   1.0007833   0.0915811
  -0.2051112  -0.2178151   0.0310662  -0.0339555  -1.0155422  -0.3453637
  -0.2034035   0.2014845   0.9572714  -0.1760192   0.0223848  -0.2093837
   0.2775287  -0.6755328   0.0745125  -1.0417941   0.9599295  -0.0491902
  -0.1611688   0.2073754  -0.1578393   0.2539705  -1.3497806  -1.0149594
  -0.1190533  -1.2470299  -1.1562696  -0.2316047   0.2108219   0.1440841
   0.0802986  -0.2749322  -0.8206633  -0.2608540  -1.5895026   0.5977915
  -0.0685058  -0.1601145   0.1056915  -0.0197517   0.1693294   0.2088694
  -0.6034444   1.6351033  -0.7101458   0.0893281  -0.0458573  -0.0249839
  -0.9305361  -0.4515140  -0.0394424  -0.0454153   0.1790708  -1.5168886
   0.1154578  -0.1849409   0.3200600   1.1231252  -0.1576086   0.6632482
  -1.2141517  -1.1127213   0.7837745  -0.0339786  -0.1309112   0.0133392
  -0.6945171  -0.1702956  -0.4712625   1.0419191  -0.1312444   1.7418556
  -0.1851850  -0.0819161  -0.0570670   0.4773957  -1.1533719  -0.0844822
   0.6065024   0.0225590  -1.0206386   0.0798791   0.1026123   0.1006807
  -0.3498467  -0.1869301   1.0461799   0.2932139   0.2074217   1.5720736
   0.1296377   0.1576451   0.3143140  -0.3079156  -0.4463750  -0.6445230
   1.4576705   1.0749472   1.2100607  -0.0534697   0.1746024  -0.2276560
  -0.5812983   0.1884204   1.3052032  -0.9802069  -0.7037391   0.1236400
  -0.1443526  -0.0819498   0.0876512  -0.3291377  -1.8025729  -0.4322697
   0.1746868   0.1070167  -1.3299829  -0.1444376   0.2243545  -0.3218106
  -0.6726545  -0.7956087  -0.3032763   0.4184057   0.9678810  -0.8409117
   0.0414439   0.2789423  -0.1572394  -0.7395438  -0.4082039   0.6726375
  -0.3128814  -1.1974244   0.2816343  -0.1228248   0.2756896  -0.1376294
   0.0247239  -0.7661132  -0.1179962  -0.1436122   0.0526085  -0.0746256
   0.2452492   0.2711330   0.2939742   0.5533668  -1.2631517   0.3473702
  -0.4812323  -0.9723983  -0.1017969   0.1425386   0.1514745  -0.2259487
   0.6091554   1.1149184   0.0959188  -0.3669873   0.0485267   0.3420995
   0.0397920   0.2953291   0.1348068  -0.9124975  -0.3430659   0.4070861
  -1.5247873   0.6784551   1.4639633  -0.3026774  -0.1084593  -0.1236543
   0.2600725   0.2176870  -0.2034983   0.2913077  -0.6202072  -0.1491942
   0.0007384   0.2472320   0.5047746  -1.7012180  -0.0589246  -0.2077961
   0.0665138   0.2249136  -0.0701826   0.3305580   0.1370650   0.1513804
  -0.1798601  -0.6321096   0.6527725   0.9084324  -1.4091001   1.0569397
  -0.0587569   0.0946427  -0.1854888  -0.7475354  -0.4919275   0.7310266
   0.4653298  -0.4383222   0.8843647  -0.0875414   0.2045728  -0.0323397
   0.7167243  -0.0745294  -0.5933786   0.1030691   0.1062607   0.8810443
   0.0569544  -0.1236128  -0.1186981   1.2395846  -0.8167171  -0.4985326
  -0.2456096  -0.4561667   0.0131662   0.1161361  -0.0789135   0.2486297
   0.0239929   0.0467923   0.1612496  -0.1837789   0.5408852  -0.1534453
  -0.1528934   0.0391050  -0.2373619  -0.7465139   0.0688415   0.0746960
   0.0275996   0.5307695  -1.0534359  -0.1947135   0.2030162   0.3678682
  -0.9673991  -0.5881727   0.2818095  -0.4770634   0.0313139  -0.9482249
  -0.0251171  -0.4944083   0.3508043   0.5864086  -1.0437088  -0.8241978
  -0.9862477   0.3479796  -0.0595645   0.2065078  -0.1481859  -0.2738370
   0.2864305  -0.9765998   0.2985623  -0.9907359  -0.8070154   0.2057775
   0.1537735  -0.1526851   0.0570890  -0.0082074  -0.9153110   1.7543342
   1.3282246  -0.2792280   0.4939753  -0.0570508   0.1435646  -0.2629926
   0.1238512  -0.7644879   0.3499573  -0.0268071   0.3297681  -0.4887928
   0.2798479   0.1034802  -0.0370054  -1.0946447  -0.5710849  -0.6440592
   1.5148353   1.2204565   0.7434954  -0.1143493   0.2882741   0.0554905
   0.0627167   0.8907503   0.1196132   1.1559425  -0.3570272  -0.0607667
   0.0355040  -0.1428387  -0.1445100   0.4553829  -1.0647670   1.3448245
   0.2453178   0.2196050  -0.8181999  -0.1704682  -0.1946038   0.1308331
  -1.4617084  -0.5930816  -0.0742388  -0.5993934  -0.1901869   0.8489234
   0.0866389   0.1552459  -0.0374930   0.2542063  -1.3376994  -0.2949300
  -0.5380968  -0.3635075  -0.5445822   0.1385846  -0.3356599   0.0189239
  -0.1958872   1.0972738  -1.2527501  -0.3912206  -0.4212646  -0.9551038
  -0.2162463   0.1388464  -0.1421286   0.0197154   0.3949466   0.2504309
  -0.0785432   0.1384048   0.0984624   0.1323740  -0.0148534  -0.0062791
  -0.7000697  -0.3635776  -1.0003866  -0.3921107  -0.2553889  -0.1043269
  -0.1549273   0.0352941  -0.0652633  -0.1082727  -1.4083785   1.1583151
   0.2021434  -1.6087917  -0.9572791  -0.0575703   0.1373150  -0.2329247
  -0.1390217  -0.5935343  -0.9906539   0.3272301  -0.0986450   1.3101643
  -0.0833056  -0.0088295  -0.0224589  -0.3059256  -1.1132309  -0.4368310
   0.1573278   0.0090440  -0.7101872   0.1743567   0.1224705  -0.1823474
  -0.5011504  -0.1336799   0.2666199   0.2701755   0.2174061  -1.3534004
  -0.1194034   0.0378586   0.1028611  -0.1551751  -1.3810566  -0.5081808
  -1.1833907  -0.3875911  -0.5129867   0.0535363  -0.2568376   0.0255850
   1.1780481  -0.1350793  -1.0986079  -0.8632400   0.8293388   0.9053585
   0.0069373  -0.1442426   0.0916304   1.4808221   2.3832410  -0.2448092
   0.1076178  -0.7125667   1.2927444  -0.1570775  -0.3044438   0.0584980
   0.1701839   0.6898734   1.3996048   0.5561325  -1.2375510  -1.0675119
  -0.0157701   0.0525064   0.0348291  -0.6189176   0.8434341  -0.3965018
   0.2851654  -0.5846233   0.2160080   0.1189228  -0.1764029  -0.1459266
  -0.4012114  -0.2486947  -0.8599111  -0.5056735  -1.0106128  -0.1766803
  -0.2768239   0.0448044   0.0526219  -1.4814827   0.1679916   0.1489056
   0.8641879   0.5709708   1.3730425  -0.1430064   0.1922089   0.0817539
  -1.6576959   0.3838069   0.4609755  -1.1552079  -1.0284874  -0.9360455
  -0.1206702  -0.0620563   0.0980013   0.0225002  -0.0617307   0.0044458
   0.2481802  -0.4738382   0.5322945   0.1116480  -0.0307811   0.1190339
   0.9419297  -0.7100566  -1.4671195   0.4665972  -0.0392103   1.0976592
  -0.2700999   0.0501415  -0.0245348  -0.3576599   0.8414856   1.0583188
   0.9858573   0.1777112   0.2158424  -0.2507074   0.1022964  -0.3269525
  -0.0221977  -1.1591108  -0.1621584   0.4301873  -0.1142033   1.4016186
  -0.0220469   0.2243667   0.1479398   0.3747007  -0.2432141  -1.4660538
  -0.3280514  -1.2108778   0.8093128   0.1342411  -0.3208132   0.2398089
  -0.3931471   0.9211619  -0.6997510   0.4735549   0.2915158   0.7781666
  -0.0890173   0.2278320  -0.1388876  -0.8290527  -1.6905686   0.7157992
  -0.1752222   0.7157276  -0.4330941  -0.0405865   0.2254828  -0.0950221
  -0.2226550  -1.3909969  -0.5680017  -1.7215454   0.1000822  -0.7403605
   0.2312773  -0.2504858   0.1777896   1.3491340   0.0007722   1.2117460
  -0.0542101  -0.2981035   0.4855847   0.1793463  -0.1284035   0.1946007
   0.7795678   0.3243989   0.0249630   0.9961941  -0.6109415   0.7778054
  -0.0965327  -0.4038035   0.1905201   0.5664130   1.2703382  -0.1936748
   1.8616065  -0.4171553  -0.0359627   0.1582044   0.0218472   0.1836764
  -1.3690390  -0.3283321  -1.3869180   1.3619501   0.5737740  -1.0258372
  -0.2904450   0.2817662   0.2174590   1.3595635  -0.1709249  -0.0529794
   0.9338385  -1.7327362  -0.5239213   0.1807134  -0.0562480  -0.1483095
  -0.4152132  -0.0715454  -0.9643055  -0.0639170  -0.3966833  -1.0118591
  -0.0130128  -0.0420910   0.0944092   0.6290745   0.2895366  -0.7218805
   1.0278450  -0.9611189   0.5412193   0.0507913   0.1873130   0.2932211
  -1.0436421  -0.7954573   0.0866093  -0.8371100  -1.0317437   0.8288540
   0.3449273   0.1190864  -0.1733208  -0.1731015  -1.7808615   0.2270532
   0.1631342   0.0344793  -1.2650788   0.1310008  -0.0596856  -0.1253686
   0.2370575  -0.2208641   0.2131259  -1.1208079  -0.4840291   0.4973872
   0.0354142  -0.0418546  -0.0308888   0.2728348  -0.4218982  -0.5050158
   0.7566590   1.3961883   0.2187115  -0.0251358  -0.0791419  -0.0274544
   0.1956472  -1.2287713   0.5922102   1.3374596   0.5111446  -0.9696000
   0.3105779  -0.1153820   0.1922920  -0.0713668   0.8890951   0.3935593
  -0.1015683  -0.9714010   0.4561287  -0.1787707   0.0732162  -0.0704974
   0.2519294   0.2968441  -0.2185375  -0.1721927   0.5569994   0.3902381
  -0.2385949  -0.1821430  -0.0794447   0.1613763  -0.2287981   0.5630911
  -0.1676391   0.5407192   0.1797347   0.1475208   0.4004961   0.2280996
   1.0141723   0.4247345  -0.0973605   0.3986573  -0.1560127  -0.8587581
  -0.1583676  -0.0969684   0.2243160   1.9327860  -0.6924270  -0.8129911
  -0.8795002  -0.2117590  -0.1582832  -0.1352453  -0.1311357   0.2854817
  -0.1915028  -0.8148167  -1.2526771  -0.7885369   0.3965647  -0.6275948
   0.4043380  -0.2615207  -0.1338079   1.5895838  -1.0237577   0.5099146
   0.7735674   0.6233848  -0.1839987   0.1710296  -0.2964682   0.1125919
   0.5742149   0.6819227   0.5476885   0.1607586  -0.5245773   0.3667715
   0.3978775  -0.3292053   0.2423651   0.2226151   0.2198336  -0.8098507
   0.5581283   0.0620514   1.3596177   0.0245373   0.0046118   0.2110458
   2.3759752  -0.5227561  -0.0628927   0.0659836   0.1499609   1.5926007
   0.1099309   0.2661839  -0.2904877   0.6896611  -0.3140646  -0.7431579
   0.9957789  -0.3012054   0.2081336  -0.0174857  -0.0896421   0.1311448
  -0.1010105  -0.3339891   0.2229728  -0.3989828  -0.6102989   0.2185620
   0.3180744   0.0526545  -0.2349435  -1.2104651   0.3864359   0.0428139
  -1.3464001   0.3877858   0.2617365   0.2021130  -0.1767193  -0.0569780
  -0.2964596  -1.0476362  -1.0652269  -0.2707513   1.0861591   0.0648288
  -0.0666785  -0.1012258  -0.0552441  -1.0018376   0.0081187   0.3490494
  -0.0151029   0.1786560   0.8696592  -0.2822503  -0.0325037  -0.2251126
   0.5887231   0.0108218   0.5118635  -0.4620087   0.2181610  -0.8452659
   0.3401884  -0.0246425  -0.1652606   0.4928007   0.3301867   0.1209626
   0.3444206   0.7290555   0.3820349  -0.1662585  -0.0609451  -0.1821743
   2.0785638  -0.3519655   0.4162038   1.2050698   0.1193748  -0.7616203
  -0.1103910   0.2690237  -0.2984399   0.4922253   0.4256537   1.2650205
  -1.5569061  -0.1277847  -0.5315355   0.1264133  -0.0309134   0.1361195
   0.4040574  -1.1509994  -0.5737026  -1.2265552  -1.1773130  -0.1785231
   0.1072274  -0.0982238   0.2685034  -1.5049328   0.4910270   0.8708298
   0.2101099   0.0991470  -0.2080176   0.4234952  -0.0784025  -0.0322112
  -0.5818033   0.2421598  -0.9912188  -0.5003209   0.3736432  -0.8893524
   0.0885086   0.2649664  -0.2039876   0.4216295   0.0096181   0.6417412
   0.3151196   0.5469975   0.6214348   0.0644333  -0.1827078  -0.2757700
  -0.8116294  -0.1232526   1.3184419  -1.1993216   0.9922323  -0.3165625
   0.1768942   0.0265161   0.0340857  -0.3577500  -1.0542646  -0.5431656
  -0.2441662   0.4960421  -0.1009487   0.3580044   0.0920384  -0.1955318
   0.0110896   0.1318069   1.1612668  -1.4938910  -0.3198582  -0.7254038
  -0.0245325   0.0864690   0.4617858  -0.7144192   0.8626894   1.2537797
   1.5633600   0.2314247   0.2753077   0.0657972  -0.0809537  -0.4360824
   0.3399307   0.1736791   1.3753174  -0.7800573   0.3735605  -0.1935106
  -0.0007784   0.2810955   0.0384410  -0.5948236   1.2926077   0.4213533
   0.4589576  -0.6921854  -0.8548850  -0.3772673   0.0739613  -0.0050336
   0.3845199   0.2595400  -0.0568577  -1.4715755   0.4949419  -1.0849163
   0.1079912   0.2337976   0.0044237   0.0105903  -0.6713444  -0.6736983
  -0.3414860  -0.3937574  -0.0014775   0.1789338   0.0566609   0.1435160
  -0.0538833   1.3429398   0.3749202  -1.1787884   1.0390512   0.5855067
  -0.1996377   0.0375802  -0.0076883   0.8520240  -0.8575901  -0.5069042
  -0.4868950  -0.4224368  -0.0984929  -0.0330332   0.1899137  -0.0493694
   0.6916815   0.1605063   0.0459731  -0.2680469  -0.6354900   0.8702189
  -0.0798624   0.0806675  -0.2149379   0.0274691   0.0301174  -0.2920248
   0.4599083  -0.4517823   0.2173819  -0.1926494  -0.0334739  -0.1477685
   1.8545020   2.7129521   0.3535157   1.3453332   0.6420668   0.3157070
   0.2317115   0.0794492   0.3569761   0.3239702  -0.5481777  -0.5745725
  -1.2157997   0.9674024   1.1838918   0.4346906   0.0220969  -0.0688979
   1.1019631  -0.0062715  -1.1086035   1.3273739   1.4078763   0.0985650
  -0.0570689  -0.1682338  -0.1098824  -0.5041922   0.6345480   0.7742612
   0.7147279   1.5204879   0.4133391  -0.0024951  -0.2259207   0.2529788
   0.4344299   0.6938748   0.6483170   0.4711513  -0.4367509   0.0218009
   0.0123872  -0.1346801   0.0344150   0.4037467   0.1634631  -0.0427843
   0.4074830   0.5183863   0.1722308  -0.2558805  -0.1291041  -0.0708283
  -1.5544920   0.2042592   1.2867889  -0.1236825  -0.5568072  -0.3563857
   0.1221960  -0.0613942   0.0934299   0.3142067   1.2123126   0.5913410
   0.5030728   0.1547868  -0.8845227   0.3563504  -0.0127666   0.0661423
   0.4207787  -0.9567758  -2.0234733  -0.8025350  -0.9794489  -0.8558838
   0.0613170  -0.1147597  -0.1397856   0.2095904  -0.3284110  -0.6150300
  -0.9495316   1.4537458   0.3184890  -0.1735602  -0.0378647  -0.0221357
  -1.2198768   0.0085704   0.4420013   0.5951726   0.4464313   0.6500938
  -0.0852643   0.3906181   0.0080846   1.5056463  -0.1836044   0.5590717
  -0.1365227  -1.0423225  -0.9263124  -0.0482349   0.1316285   0.1194864
  -0.0319321  -0.0628586   1.9621747  -0.0465983   1.4962992  -1.2401882
   0.1405438   0.2613563   0.0954106  -0.1070065   0.9417267  -0.7415703
  -0.4408556   0.3055377   0.1072272   0.0055826  -0.2411746   0.1110808
   0.3842723   0.0560906   0.7604903  -0.8636907   2.2870888   0.6301689
  -0.1585150  -0.0473595  -0.0334142  -0.6757379  -0.5844240   1.1445488
  -0.6295312   0.0656829   1.4075104  -0.2027399  -0.0721959  -0.0030396
   1.7447435  -0.1593430   0.2454501   0.8504359   1.0369469   1.1456906
  -0.1573461  -0.2800366  -0.1004471   1.3787049  -0.2608298   0.7392774
  -1.0122594  -0.5379985  -0.8388859   0.2803783   0.3122140   0.2411155
  -0.3680955  -1.8939304   0.8533289  -1.7170403   1.0863208  -0.1552083
  -0.5042900   0.1122236   0.0816186  -0.0105209  -0.4141894  -0.8205702
   0.1620513  -1.3024148  -0.0462873  -0.1550910   0.2501133  -0.0759695
   0.6276109   0.5959589   0.1093238  -0.0890737   0.0061885   0.0878451
  -0.1577698   0.0464051   0.0662065  -0.5357086  -0.2643895   1.1233395
   0.7281756  -0.8777183  -0.0179958  -0.1270816   0.1596159   0.1422177
  -0.1907876  -0.1028889   1.0377053   0.2675630   0.3844848  -0.9874629
   0.0710407  -0.1255309   0.0269964   0.3311630   0.1978815   0.2212422
  -0.5813226  -0.0558640   0.2443048   0.1324552  -0.1280357  -0.0196416
  -0.1533563  -0.1914972   0.6445419  -0.8974216   0.3755205   1.9038869
   0.0820236  -0.1095292   0.2874356   0.8020756   0.9552032  -1.0149569
   0.4525940  -0.0264219   0.2489291   0.0610848   0.2862772  -0.2670385
   0.7253366   1.2201529   0.3767893   0.0247304   0.0699375   0.8337800
   0.2788947   0.3445240  -0.1530121  -0.3967151  -0.2304666  -1.7722736
   0.4647492   0.2948459   0.7237746   0.0349817   0.0637247   0.1467587
   0.0829322  -0.6992386  -0.0053418   0.0622081  -0.6659823  -0.2864788
  -0.1354271  -0.2792200   0.0194236   0.2837901  -0.1104573  -1.0965561
  -0.2763249   0.8825568   0.5366078  -0.2197218  -0.0275083  -0.2472474
   0.5748594   0.0979256  -0.7398498  -0.2993818  -0.2187691  -1.7787558
   0.2337788   0.3150631  -0.1562979   1.0480058  -1.3563494  -0.1985099
   0.5601313  -1.8512395  -0.7746219  -0.2063881  -0.2027316   0.1027984
   0.4898866  -0.0312012   0.4531828  -0.0277201   0.6564822  -0.5883750
  -0.1837962  -0.1495831  -0.0968484   0.8107196  -0.0313125  -0.3250192
   1.4861399  -0.6251826  -1.5633470   0.1005928  -0.0616689  -0.0417749
  -0.6516761   0.7708975  -0.3323910   0.7731816  -0.1909425  -1.5997050
   0.0227283  -0.0185167   0.0506757  -0.3180586  -0.5010750  -0.1251337
   0.7127919  -1.0669340   0.5029169   0.2471754   0.2725580   0.1212871
   1.1077330   0.1410950  -0.0592278  -0.8818547  -0.2314820   0.4450981
  -0.1613897  -0.1231755  -0.0809052  -0.3535624  -0.8672095  -0.2183996
   0.0089257   1.2948907   0.8564823   0.3860820   0.0226960  -0.0682273
   0.5094795   0.4755050  -1.1139277  -0.6481490   0.8172864   1.3371809
   0.1147192   0.1448870   0.3237230  -0.0788973   0.1091583  -0.9826398
   0.3212195  -0.1939869   1.0602404   0.0820543  -0.0352673   0.0170634
  -0.1733028   0.4927293   0.4906640  -0.0970227  -0.0774714  -0.7445762
   0.1833642  -0.2757469   0.0004261   1.7818605   1.0248273  -0.2656208
   0.0394237  -0.2784258   0.7367949   0.2495493   0.0354319  -0.2464080
   1.1733222   1.3890874  -0.5287883  -0.2628334  -0.4179139   1.1830421
   0.2839928   0.3252088  -0.0332110   1.1860317  -0.6419459  -1.0409516
  -0.3126614  -0.9254756  -0.3969483  -0.1400123  -0.0384396  -0.1154102
  -0.0383480  -0.8740049   0.3072500   0.8319248  -0.0488475   0.2096971
   0.1553955   0.2496641  -0.0041684  -0.1248026   1.1444053  -0.0695452
   0.3553296  -0.3622409   0.9099286   0.3272351   0.0803011  -0.1966256
   0.1000929   0.0012627  -0.8667604  -0.0994166   0.0708877  -1.4485342
  -0.1084227  -0.1758538   0.0837880   1.3480386   0.9046432  -1.1602847
   0.0546607   0.6501423   0.3443471  -0.0558675   0.1152288   0.0016317
  -0.8287498  -0.0419069   1.0671993  -0.9306914  -0.8643039   1.0492958
  -0.4011230  -0.1262047  -0.2053775   0.3759561   0.2282552   0.3770573
  -1.0647895   0.3351517  -0.5204116   0.2366206  -0.3795372   0.0434881
  -0.1623137  -1.0245251   0.2061634   0.6013683   1.4744890   0.0990782
   0.1048518  -0.1655436  -0.1777191  -0.4638484   0.0502078  -0.9134300
  -0.3035604   0.5753901  -0.6352227   0.2806794  -0.1022323   0.2733036
   0.2007786   0.0979004   0.6467816   1.0636978  -1.0101644  -0.5656803
  -0.0321272   0.1399308  -0.2650323   1.2445494  -1.6855490   0.5269593
   0.5519977   0.5679360  -1.2228574  -0.0059613   0.1824810   0.2702606
  -0.4349059  -0.2934841   0.0616631   0.4076867   1.0720154   0.7776899
  -0.0452728   0.1066960  -0.2114649   0.7949892   0.6539228   0.6680910
  -0.1391878   0.3253945  -1.4521513   0.0498640   0.2010215  -0.1554414
  -0.5971506  -0.2435153  -0.4565465   0.4636780  -0.5768661   0.1152672
   0.2341295  -0.1187059   0.1333719   0.0183041  -0.0546594   0.1089617
   0.4966877   1.0854517   0.2565940  -0.0989572  -0.2595461  -0.1766642
   0.5453663  -1.0239039  -0.9087247   1.7575313  -0.9058377  -0.5493941
   0.3745685   0.2457350   0.2734836  -0.3776831   0.4672909  -0.2125763
   0.0376841   0.5517953  -0.1856688   0.0802055   0.1230553   0.2297658
  -0.5322828  -0.1542348  -1.1952024   1.2920146  -0.2416196   0.0243981
   0.0565872  -0.0111710   0.0362635   0.8700476  -0.2621926  -0.0248451
   1.1643372   0.2399611   0.8007258  -0.1681674   0.1584738   0.0117821
   0.1229070   0.5327880   1.1632569  -0.5157044   0.4740293  -0.6083290
  -0.4275748  -0.1728903   0.2814027  -0.0408597  -1.1038705   1.0787458
   0.2163595   0.1692688  -0.2688825  -0.2620554   0.0519050   0.1487805
  -0.9513410   0.0518765  -0.5738439   1.1249201  -0.0527634  -0.0717748
  -0.0527420  -0.1726420   0.2809254   0.1028551   0.1154642   0.3372619
   1.3038684  -0.5879699   0.1224088  -0.1084195  -0.0135892  -0.4344213
   0.4589539  -0.6302661   0.4911686   0.4645116  -0.0214981  -0.4293223
   0.1859721   0.1064950  -0.1243974   2.0710048  -0.3904423  -0.2777054
   0.0945664   0.0706568   0.6140652  -0.0969332   0.4481584  -0.0565979
   0.7486304  -1.5788489  -1.5665591  -0.8699147   0.0081353   0.2619939
   0.0707584   0.2058823  -0.0679112  -0.9682615   0.1694635   0.2288132
  -0.0802036   0.0757052  -0.9529683   0.1475478  -0.2437993   0.1330205
   0.4746798   0.0730558  -0.9048229  -1.2926934   0.2836240   0.1259737
  -0.0262772  -0.0911042  -0.0639380  -0.0492867   0.2101745   0.7563818
   0.7898886   0.6590630   0.9413287  -0.3292601  -0.0780375  -0.7960242
   1.2405463  -0.6304471   0.0849153  -0.2200867  -0.4203562   1.0266552
  -0.1447778  -0.1265954   0.3134526  -1.5130356   1.2141412   0.5461853
   0.8450744   0.0388576   0.4948999  -0.2121451  -0.4031826  -0.0182555
  -1.6819454   0.3910231  -1.2582332  -0.7488209  -1.0941505   0.3047849
   0.1487226  -0.0956995   0.1689053  -1.2769177  -0.0955483   0.7868535
  -0.0918044   0.4423999   0.7210899   0.0221718  -0.2608020   0.0402207
   0.2084696   0.1946933   0.2663154  -1.6540802  -0.7854612   0.6336624
  -0.0644264  -0.0565374  -0.4767414   1.1600196  -1.3977942   0.3575751
  -0.2486086  -0.4640450  -0.3704683  -0.0764056  -0.0132269  -0.1105246
  -0.2317674   0.0442347   0.6545900  -0.7898821  -0.5450484   0.0224705
   0.1357186   0.1726132  -0.0369011   0.6739063   1.4656790   0.1494162
  -1.4843148   0.0944777  -0.9753408   0.2224012   0.0023510  -0.0767303
   1.3416985   0.2640879  -0.9028899  -0.8672136  -0.8410126   0.6228250
   0.1936247  -0.1452885  -0.1698273  -0.9244655  -0.1649410   0.0458811
   1.2435096  -0.2821399  -1.8366981   0.1520171   0.1297116  -0.1486906
   0.2951800   0.6775409   0.7478883   0.2458385  -0.8364226   0.8528218
   0.0690332  -0.0190963  -0.3573911  -0.9857785   0.0179049  -0.3855022
   0.8318267  -2.0618801  -0.1165115  -0.0674304  -0.0669440   0.1659745
   0.4580279   0.6826085  -0.0657126  -0.5091036   0.8294775  -0.7012442
   0.1599011   0.5312206   0.3748732   0.2119643   0.6516980   0.7223308
   0.0572501   0.5629047  -0.1773326  -0.0281840   0.0155333  -0.0525625
   0.9047335  -0.9432764   0.3491408  -0.1381030  -0.8513225  -0.7915725
  -0.1484546  -0.0423175   0.0710479  -1.1050419  -0.1661210   0.7891447
  -0.2031686  -0.1570688   0.5511144  -0.0708942   0.2622041   0.2733203
   0.4192590   1.0588531  -0.4482998   1.7547529   0.2672339  -1.3592269
   0.3152728   0.1560478   0.1998885  -0.0872592   0.8069712   0.0289616
   0.1562314  -0.2695086  -0.9888763   0.0806419   0.0306481  -0.1602921
  -0.5663832   1.1354288   0.2215707  -0.5733491   0.3176407   1.1696964
   0.0715409  -0.0196200   0.5292249   1.0645594   0.5951407  -0.0769200
   0.8641175   0.8470624   1.4550394  -0.3911980  -0.0810816   0.1788591
   0.0927919  -0.7506532   1.1768809   0.1938100  -0.1981092  -0.3309320
   0.0876583  -0.0576410   0.0404771  -0.1342958   1.2975348  -0.2043648
  -0.5542746   0.2530096   0.8274914   0.2312092   0.0904735   0.2936590
   0.3634052  -0.6046913   0.5651112  -1.0860198  -0.0114005  -1.7922668
  -0.1750044   0.0390699  -0.4201784  -0.4062170  -0.8810574   0.6768735
  -1.1540597   0.9887517   0.9684757   0.3117937   0.2189768   0.1882633
   0.1810453  -0.9106440   0.2556634   0.6973416  -0.8097047  -1.2400586
   0.0891694  -0.2470963  -0.0325550   0.3932785   0.0111648  -0.5164482
  -1.2558589  -0.2272861  -0.5553637  -0.1573680  -0.2619454  -0.1849020
  -0.0600109  -1.0325783   0.2624859   1.3322680   0.5478446   1.0559871
   0.0798572   0.0200083   0.1100915  -0.4095863   0.4257457   0.0548289
   1.1900664   0.2938771  -0.8430131  -0.0163619  -0.2996994   0.0463465
  -0.0588908   0.6923755   0.8744333  -1.1268553   0.6116189   0.0518811
  -0.1013815  -0.2689434   0.0979131  -0.6858772   0.6260360   1.6769055
   1.3222420  -1.6897173   1.4063247   0.2795009   0.1182965   0.2026716
  -0.7785278   0.8725495  -0.2978044   0.0587466   0.1533929   0.1474134
  -0.5565276   0.1535149  -0.0499626   0.8411323   0.7305577   0.7027331
  -1.2195630   0.6544575   0.9890560  -0.1372323  -0.1724744  -0.0391529
  -1.8063485   0.3693361  -1.1818223  -0.3718406  -0.1233679  -1.4633324
  -0.2098359  -0.1711539  -0.1216409  -0.7470797  -0.9228899   1.5374187
   0.0279714  -0.4870127  -0.0544288   0.2209105   0.1618838   0.0574186
   0.2905890  -1.8202088   0.6421084  -0.9221590  -0.9532006  -2.2886491
   0.4119697   0.0493924  -0.4073671  -1.1254307   0.6530776   0.4364508
  -2.2439255   0.4400509  -0.4350678   0.1901311  -0.2218531   0.1736475
   0.3604715  -0.2414591  -0.8177855  -0.9988054  -0.1016065   0.3398852
  -0.0412650   0.1757753   0.5224956   0.0886772   0.5320856   0.5273199
   0.1360755   0.9373540   0.5435989   0.3155721  -0.0059837   0.0862755
   0.6703730   0.3042692   0.6792667   0.8554010  -0.7594991   0.5732408
   0.0470206   0.3001707  -0.0538756   0.2114808   0.2174446  -0.4491911
  -0.2010818  -0.5120619  -0.0119198  -0.0343520  -0.1569232  -0.0599915
  -1.7308981   1.2063047  -0.8344006  -0.1367933  -1.3370857   1.1386629
   0.3907448  -0.1449081   0.1886942   0.0264029  -0.9282410  -1.0003501
  -0.5248568   0.2205856  -0.1768785  -0.0381837  -0.0471016  -0.3713532
  -1.5007878   0.9066727   0.3789477  -0.4448493   0.0792515  -1.5570130
  -0.1535152  -0.0104431   0.2023666   1.4184391   0.3801851  -0.8198042
   1.0220872   0.8529692  -0.1576656  -0.0309100   0.0503084   0.0611548
   0.8704064   0.3767413  -0.0226441   0.5606358  -0.3500420  -0.5656829
  -0.0613231   0.1023610  -0.0476221   0.7773928   0.1161685   0.2011764
   1.2692221  -0.7711169   1.2265833   0.3339981  -0.2065420   0.1966295
   1.0471216   0.0912961  -0.1271807   0.6823101   0.0910650   0.5746071
   0.0911685  -0.0420968   0.1014857  -0.2711063   0.3133897  -0.1807256
  -0.8573507  -0.2260315   0.7833862  -0.0109555  -0.1951155  -0.2394965
   0.0486848   0.8637610  -0.2415502  -0.0475308  -0.3226295  -0.5745129
   0.1048114  -0.1811409  -0.1524052  -0.4239537  -0.3248807   0.5915781
   0.0190600  -0.7593113   1.3700771   0.0399933  -0.2098502   0.1258880
   0.3619648  -0.7498090  -1.0681915  -0.4841881   0.9326695  -1.1768306
  -0.1687354   0.0578568   0.1107974  -0.6623166  -0.6353478  -0.6357828
   0.2833739   0.5635760   0.9204097   0.0304074   0.5308219   0.0268296
   0.4169109  -0.3239331  -0.8585441   0.1486286  -1.0606978   0.0403021
  -0.1628111  -0.5428530   0.3075140  -1.6838969   1.6726730  -0.6001855
   2.0888488   0.9787609   0.4204800   0.3439623  -0.0599356  -0.2739190
   1.0444410  -0.8037221   0.9687781   0.3258683  -1.6024855   0.0847673
   0.1569125  -0.2189007  -0.0030613   0.1305745   0.9047230   0.8936287
   0.1004986  -0.5377406  -0.3917946  -0.0597743   0.0190900   0.0939096
  -0.1504183   0.5876635  -0.8729959   0.9359019   0.0291056   0.2171298
  -0.1803388  -0.2381205   0.1217919   0.4273670   0.8508420   0.4895927
  -0.0019601   0.1078488   1.1325935  -0.0835958  -0.0724215  -0.2290094
  -0.5950206  -0.6655516   0.6095391  -0.3155758  -0.3997642  -0.4626462
   0.0926748  -0.1973680  -0.0049602   0.0444761  -0.8956933   0.8463589
   1.6396221  -0.8896247   0.4039277  -0.0883358   0.0204734  -0.1966482
  -1.2575790  -0.3874357  -0.1730882  -1.3120053   0.4537382   0.3152485
  -0.4148898  -0.0952415  -0.0449181  -0.3991357  -1.3611638  -0.0300463
  -0.7232599   0.3090764   0.7079213   0.1238631  -0.0302241  -0.0503604
  -2.9624941   1.7845817  -0.3631028   0.2421743  -1.1269667   1.0252878
  -0.2356121   0.0186301   0.0825829  -0.6189198  -0.3209037   0.0555665
   0.4234714  -0.5593559  -0.4659012   0.2107814   0.1704995  -0.2207949
   1.1605301  -0.7200962   0.3104967  -0.5958969   0.4468304   0.7362584
  -0.1726905   0.2547413  -0.1774968  -1.3192930  -1.5620836   1.1374689
   0.6847510  -0.7315455  -1.7661210   0.0872151  -0.0506977   0.0838748
   0.2566290  -1.0916725   0.0164658  -0.1952158   0.6710409   0.6297584
  -0.2536105   0.0819929  -0.1762495   0.5063165   1.1060747   0.5932308
  -1.5940277  -0.9811965  -0.3563333   0.1517474   0.0750853   0.3340619
  -0.5944611  -0.5062590   0.7413771   0.1262972   1.2106673   0.1062030
   0.0955322   0.2412500   0.1628407   0.5120687  -0.7440134   0.5948626
  -0.3100517   1.3810531   0.7395473  -0.0024443   0.0106913  -0.1064947
  -0.2620959  -1.5153680   0.5419175  -0.1112555  -1.4215959  -0.0377915
   0.0985176   0.2360573  -0.1020880  -1.6577596  -0.4713358  -0.5168280
   0.3290198   0.0748347  -0.6600637  -0.2045768  -0.1784870   0.4019989
   0.0664915  -0.3519893   0.3864016   0.2678032  -0.4964742   0.2699627
   0.0638042   0.0499315  -0.0046312   0.0173314  -1.0990107  -0.5861364
   0.2917625  -0.0185994   0.5530630   0.4405016   0.1318818   0.0849330
   1.3354984   0.1517343   0.2569002   0.0671293  -0.5317146  -1.8626245
   0.2484245  -0.0757983  -0.2022961   0.2223452   0.3168017   1.2283943
   0.6057967   0.5176632   0.2604249   0.1404083   0.0778682   0.0921677
  -1.9126979  -0.3605904   0.6649615  -0.0483265   0.5357972  -0.3779533
  -0.2197699  -0.0112245  -0.0808307   0.4552272   0.8378074   0.2152333
  -0.0060464   0.1910401  -1.4023008   0.0207274  -0.1056365   0.0835744
   0.6254310  -0.2908660  -0.6107696  -1.0646517   0.0952411   0.8539044
   0.1545736  -0.1189109  -0.2807463  -0.0839646  -1.1243540  -0.5387430
  -0.2763629   0.9652615   0.6570271   0.0641940  -0.0763129   0.0210576
   0.7376237  -1.4863882   0.9825845  -0.5481249  -2.2100708   0.6629884
  -0.0727271  -0.2839315  -0.1512965  -0.1439304  -0.0450633   0.2932196
  -0.0431455  -0.0349028  -0.9527451  -0.0592344   0.1435732   0.2121398
  -0.1590952   0.6364530   0.2768450  -0.3743828   0.4403860   0.2342417
  -0.2908951  -0.5150035   0.4830544  -0.2225503   0.9077996  -0.2623079
   0.2419636   0.5366899   0.0311821  -0.1012732  -0.2878150  -0.2321978
  -0.7116598  -0.2864105  -0.3348258  -0.8712983   0.0511330   0.0252948
   0.0142487  -0.1621650  -0.1079039  -1.4707787   0.2573175  -0.5193970
  -0.4688500  -0.0860048   0.0550012   0.2267771  -0.3122715  -0.1217639
  -1.2702770  -0.5135213   0.0475393   0.5393060  -0.2059111   0.2686527
   0.0262106   0.3519325  -0.1619761   0.2718193  -0.1438406  -0.4844545
   0.8222544  -0.0671242  -0.3885972   0.1033648   0.1598629   0.1928817
  -0.3440676  -0.7238650  -0.4000662   1.4234974  -0.9095923   0.0657254
  -0.2430532  -0.0311041  -0.1207098   0.7477255   0.3473833  -0.2559141
  -1.9127840   0.3958552   0.7288986   0.2110783   0.3086220  -0.1948381
   0.1475269   0.1433300   0.5631082  -1.0291405   0.5873254  -0.9240205
   0.0592842   0.1943163  -0.0100608   0.0132194  -1.2424413  -0.2439481
   0.5362980   0.8405277   0.1356941  -0.1206943   0.0228482   0.0201247
  -0.0646502  -0.8841032  -0.4896121  -0.2015878  -0.3228490   0.3963151
  -0.0195090   0.1331335   0.0262616  -1.0157783  -0.4506328  -0.0869912
   2.0262828  -1.1079169  -0.3621338  -0.0799780  -0.0821143   0.0394931
   0.7123870  -0.8846314  -0.2459727  -0.4708390  -1.0915356  -0.1212167
  -0.2869219   0.0953663   0.1485708   1.3705789  -0.0254027   0.3176829
   0.1472283   0.2597370  -0.8086674  -0.1057772  -0.1924133   0.2891329
  -1.2193191   0.2566645  -0.0469926  -0.9334321  -0.2281607   0.5161160
   0.0811165   0.1310312  -0.2959936  -1.1973225  -0.0758701  -1.2688151
  -0.2889261   0.3896393   1.0725353  -0.0830991   0.2639875  -0.0821659
  -0.4677766   0.3451732   0.1261872  -0.4755398   0.4239437  -0.3030061
   0.2376183  -0.1501990   0.1287891  -0.8421545  -0.1047326  -0.4909436
  -0.1744744   0.5816994  -0.1038774   0.2479651  -0.3598391  -0.0426161
   0.8166558   0.1956245  -1.7083998   0.3680137  -0.3933413   1.1798717
  -0.0916406  -0.2994222   0.1210096  -1.1099834  -0.2647771  -0.6188756
   1.9496986  -0.0328509  -0.1838972  -0.1235531   0.1282618  -0.1226173
   0.2485963   0.2656492   0.2988852   0.8438814   0.6657443   0.1836471
   0.0294815  -0.1160956  -0.1428476  -0.5692394   0.0834330   0.3674213
  -0.8809373   0.8761082   1.7821489  -0.2986611  -0.2254961  -0.0798645
   0.4259070  -0.0787222   0.1085230  -1.0812135   0.6128574   0.2722810
  -0.1756129   0.2125129   0.0812980  -0.4354407   0.2966741  -0.0625833
  -0.6466808   0.1379024   2.3167948  -0.0479822   0.3014665  -0.0883086
   0.6382722  -1.8816780   1.0134736   1.1627207  -0.4165354  -1.2103755
  -0.0210784   0.0692738   0.2308494   0.1308595  -0.4431856  -0.9050196
   0.7001824   0.1164141   0.8547724  -0.2322699   0.0239450   0.0888433
  -0.2489237  -0.4399909  -1.0065099   0.4011278  -0.3178831  -0.5960335
   0.2921891  -0.3046405  -0.4056166   0.3892341   0.1632572  -0.3614885
  -0.8518025  -0.1747237  -0.0107834   0.0805156  -0.2106784   0.1236209
   0.4335566   0.3869710  -0.8691407   0.1985485   0.2983557   0.4623072
  -0.0682611   0.0800471   0.0610697   1.7382181   1.2934586  -0.0741346
   0.3448417   0.9325160  -0.3921861   0.0945405   0.0300512   0.0750539
  -0.2373700  -0.1476496  -0.9914101   0.4304343   0.5801000  -0.3750675
  -0.0349017  -0.0052224  -0.4821619  -0.4814898  -1.0655267   0.4439749
   1.5260167  -0.4171709   0.8030127  -0.3034150   0.0104848   0.0731440
   0.6271076   0.6853484   0.4935085   0.7019204  -0.1866635   0.5965448
   0.2815600   0.2775060  -0.1795275   0.6421743  -0.5376656  -0.5457948
   0.2677705   0.4988468   0.5146837  -0.0675402  -0.0806047  -0.2636092
   0.6986656   0.6733053   0.5437319  -0.1523099  -0.6519807   0.8600804
   0.1189008  -0.1355215   0.1715853  -0.6037999   0.6472850  -2.0465991
  -0.5153145   0.3591064   1.4721705  -0.0237171   0.4221492  -0.1907226
   1.1890066   0.0984721   0.1598720  -0.4672800  -0.1567462  -0.2645592
   0.1331149   0.1133636   0.2462689   0.5931965  -1.1350025   0.9979014
  -1.4714520  -0.3435194  -1.4473158   0.1152917   0.1132272  -0.0451349
   0.5679144   0.3200030   0.2323710  -0.4421422   0.1113805   0.8585482
   0.2098301  -0.1041855  -0.0660645   0.3348712  -0.4172256   0.5366394
   0.5177897   0.9555550   0.5232036   0.2848772  -0.1226129  -0.0667167
   0.3288395   0.4402923  -0.6898674   0.7708550   0.7362392  -0.5344906
  -0.1772192   0.2471923  -0.0818585   0.9142629  -1.0908227   0.6518164
   0.8722219   0.4021542   1.7125533  -0.0356149   0.1851586  -0.0942326
  -0.2413976  -1.4502617   0.4055560  -0.7610343   0.8615415   0.0478820
  -0.0616229   0.1808033  -0.1429730   1.4100275  -0.5563628  -1.3035840
   0.6062960   0.3617179  -0.9454893  -0.2220505   0.0940575  -0.2944908
   0.2262273   1.7112502   0.1151480   0.1083640  -0.3462096  -0.6637087
   0.0255234  -0.3617543   0.1647004  -0.1163300  -0.9217713   1.1174639
  -0.9357588   1.5312710   0.9325915   0.0634496  -0.0140083   0.1604424
   0.4213603   1.5746722  -0.3726162   0.3196643   0.5755910   1.1087013
   0.0743411  -0.1286115   0.0667482   0.8650121  -0.0241355   0.1108703
   0.6945533  -0.2173547  -0.8040538   0.1155673  -0.1583371  -0.1429504
   0.2762972   0.0863163  -1.0775022   0.5916301  -0.1441712   0.4783743
  -0.0351691  -0.2036514  -0.0760088  -1.7483965   0.4054372   0.2481397
   0.2620828   0.2500167  -0.2186699  -0.1122378   0.0717856   0.0015880
  -0.9100948  -0.1602187   0.8384776  -0.0431364   0.4967762  -0.6765473
   0.3399772   0.3526996   0.1474666  -0.5456261   1.1911499  -1.3399438
   0.1872537   0.4219326   1.3902481  -0.0422747  -0.0757896  -0.1408956
   1.5267281  -0.8415783  -0.9890317   0.8096348   0.0738735  -0.3387177
  -0.0568150   0.0670815  -0.1049112  -0.8154224   0.4623819   1.5889827
   0.8189374   0.1643802  -0.6012651  -0.0515314   0.2063300  -0.4718377
   0.0225326  -0.4222816   0.0762770  -0.5427675   0.9582467   0.1082659
   0.0716704  -0.0361919   0.1525068   0.7854486  -1.3028567  -1.1391921
   0.4911926  -0.3020664  -0.5480508   0.0385865  -0.0660429   0.0261384
  -0.1422101   0.8052226  -0.1607690  -0.5601326   1.2086577   1.5494978
   0.1137778  -0.1677146   0.0254178  -0.4453959   1.1313805   0.1892043
   1.8485907  -0.7737767   0.6254919  -0.0960059  -0.0589114   0.2175918
   0.3041100  -0.5430266   0.4041195   0.6142088   0.0572873  -0.1435481
   0.0361841  -0.2133733   0.2920795   0.6675632  -0.8456269   0.6817711
  -0.9505927  -0.2232859  -0.6527242   0.3604075  -0.1185188  -0.0705625
   0.9224095   0.0654254   1.3518685   1.0755582   0.7813269   0.6670831
   0.0287020   0.1185283  -0.3748959   1.8119356  -0.5732505  -0.2790811
  -1.6409807   0.0368875   0.4969633   0.1699563   0.1356892   0.2764265
  -0.8656871  -0.5627347   0.0345640  -0.4433918  -0.8248483   1.2142531
   0.2226639  -0.3523336  -0.4083391  -0.7227171   0.2699671   1.1067395
   0.4095865   0.5667826   0.6374802   0.1411216   0.1562258   0.0526200
   0.3824761  -1.3263784  -0.1726830  -0.3764849  -0.9294413  -0.0554608
   0.1141788   0.1673818   0.2536959   0.7063204   0.3396462  -0.3680896
   0.0297950   0.0884115  -0.1633133  -0.0118586   0.1487615  -0.2575696
   0.0874340  -0.2918534   0.9298944   0.3079062  -0.9014001  -0.9536099
   0.0238575   0.0052434   0.0305699   0.0157054   0.1346439   1.2872072
   0.2918716   0.0977171   0.2229224  -0.0896184  -0.1594416  -0.2587796
   0.8725970   0.2948807   0.0290052   0.0433413  -1.1368702  -1.4046809
  -0.0240607   0.0754644  -0.0794232  -0.7621361  -1.6639669   0.2641461
   1.0425304  -0.8305505  -0.2318404   0.0462636  -0.1290305   0.0355442
  -1.1412164   0.2172448  -0.6807053   0.9217108  -0.2211382  -0.1580211
  -0.1454811  -0.1586687  -0.0982553  -0.6386743   1.6899449  -1.5617879
   0.9731616   0.5361226   0.1797294  -0.2090764  -0.1495009   0.2506879
  -0.1100823  -0.1745035  -0.3060719  -2.1375625   0.8274673   0.1844266
  -0.1169714  -0.0783090  -0.3574784   0.8914405   0.0129893   0.0186379
  -0.8030603  -0.1930315  -1.3844911   0.0005063  -0.1389341   0.0408327
   0.0131515  -0.8174813  -0.4869073   1.1794119  -0.2335067   0.2218685
   0.0848190  -0.0902588   0.2585493  -0.7692141  -0.3110498   0.1900914
  -0.3100775   0.2843645   1.1247725   0.1447960  -0.1126078  -0.1211485
  -0.4531748   0.6098271  -1.6187686  -0.5788105  -0.0787409   0.9118154
   0.0287182  -0.2716210  -0.1440786   0.3603982   0.1268964  -0.8170389
   0.3388883   0.4315031  -1.2238354  -0.0707703   0.0662897  -0.0795273
   0.3241205  -0.5795640   0.9911325   0.4824541  -0.4720152   0.0630654
   0.0742717   0.1467534  -0.1241774   0.1552065  -1.2077823  -0.3320641
  -0.5322118   0.6310439  -1.3167127  -0.0494151   0.0417744   0.1446033
   0.1104275   0.6138528   0.6006110   0.2896606  -0.2077042   0.7907855
   0.2589935   0.0530356   0.3441620   0.8332770   0.1117298   0.4869659
  -0.3766657   0.6439216   1.4473618  -0.0031602  -0.1438431  -0.3058807
   0.8271948   0.4213510   0.7045413   0.1463677  -0.9603832  -0.6220832
  -0.2288766   0.0353925   0.1464036   1.2555326  -0.6190208   1.6765698
   0.2811884   0.0060502   1.0882102   0.1841112  -0.0019582  -0.4334073
   1.0840334   0.7077723  -0.3075695  -0.7946403   0.6588315   0.2869310
  -0.1615067  -0.0031019  -0.0089387   0.6958724   0.2107438  -0.3521459
   1.1067263   0.9108459  -1.0365079  -0.1042824  -0.1549807   0.2181955
  -0.6857804  -1.4389750   0.3137574   0.4183730   1.2786823  -0.0989865
  -0.0531597   0.0704200   0.0178248   0.9382156   1.0287334  -0.0474526
   0.7563393  -0.0019878  -0.2925842   0.0677089   0.0707636   0.2030240
  -0.5597840  -0.3726268   0.4843886  -1.1001853   0.3579777   0.2245497
   0.3284121   0.1919804  -0.3159326   0.6201945  -0.3550468   0.3755329
  -0.7398423  -0.7704189   0.5837392   0.1352517  -0.0499378   0.1162777
  -0.0897383  -0.1416805   1.0105424   1.2464772  -1.2865169   0.9285001
  -0.0817507   0.2257917   0.1873795   0.3151240   0.0637940  -0.6147124
   1.3497536  -0.5388177   1.0908403   0.4642603  -0.1879279  -0.0782608
   0.8817003  -0.6225869  -0.0967134  -0.1635243   0.9111729   0.0482669
  -0.0383361   0.0321582  -0.2890422   0.2824261   0.1282986  -1.4020199
  -1.1707038   0.0395078   0.0513636   0.0299145   0.3338107   0.3376660
  -0.2715309  -0.8440675   1.7374823  -0.3128274   0.4752398   0.8732405
   0.0535274  -0.0318547  -0.1651421  -0.6798468  -0.6564378  -1.0457539
  -0.7337463  -0.0502846  -0.3706570  -0.0088503  -0.0868877  -0.3798798
  -0.9198037  -0.3019462  -0.1392651  -0.0938315  -2.0265655  -0.3497886
   0.2810812   0.3795356   0.0218104  -1.1300104  -0.8366162  -0.0159892
   0.3666173  -1.7214907   0.6129646  -0.1482285  -0.1580917   0.1851531
   0.1115285  -0.8101182  -0.0685543  -0.2818098  -0.1622193   0.0325791
   0.2479468  -0.0509387  -0.0375958   1.0482660  -0.7792934  -1.1395050
   0.7522032   0.4782343  -0.7452553   0.1502219   0.0118033   0.4170960
  -0.0336698  -1.2019718   0.4430286  -0.6831498  -0.0457704   0.8720817
  -0.1709276  -0.2875062   0.0146557   0.1721228   1.7077847  -0.6726163
  -0.1166601  -0.9024318  -1.9837733  -0.1612661   0.2134960  -0.0555934
  -0.0773387  -0.3328261   0.3395286   0.5090685  -1.3581539   0.1054199
  -0.1812724   0.0971805   0.0128907  -0.4809895  -1.3080806   0.9630312
   0.6231516   1.6195814  -0.4020402  -0.0520959   0.1011573   0.0298660
   0.2171691  -0.8061057  -0.5603142   1.0215353  -0.4317659  -0.9135509
  -0.1151285   0.2692610  -0.3641206   1.1891865   0.5890011   0.2114569
  -0.5381877   0.2339747  -1.6600835   0.0116632  -0.0425979   0.1190883
   0.3060966   0.3728021  -0.3806981  -0.0285297   0.2513643  -1.0804098
   0.0356737  -0.2769188  -0.0122401  -0.1911339   0.0572384  -0.5344990
   0.1149297   0.9516481   0.3957623  -0.0006365  -0.1349989   0.1007865
   0.6901337  -1.2658198  -0.0024260  -0.4832132   0.4251299  -0.8901064
   0.0579095  -0.0259066  -0.0337865  -0.2232797   0.9657471   0.3596069
  -0.3206789  -0.5988845  -0.3524269   0.0545847  -0.0278349   0.1161857
   1.7489777  -1.0475931  -0.3047014   0.2567090  -0.3899224  -0.7036530
  -0.1767957   0.0839388  -0.0865207  -0.5900663  -0.0053363  -0.3632598
   0.3066966  -0.0715576   0.7893817   0.2340157  -0.0996389  -0.0187282
   0.1634750   1.3440589   0.5290404  -0.1136261  -1.0564786  -0.3646556
  -0.2433441  -0.1848677   0.2373622   0.4762162   0.4903560  -0.7490078
  -0.3355948  -0.6505614  -1.1156048   0.0384179   0.3115603  -0.0349593
   0.2333079  -0.7975393  -0.1904891  -1.0662104   0.4362869  -0.2366703
  -0.1028939   0.1474824  -0.1343174   0.1829966   0.0410169   1.2323180
   0.4427021   0.2996171   0.6055100   0.1818051  -0.3299607   0.2277571
   0.7116607  -0.8126018  -1.4767318  -0.1708254  -1.5897386  -2.3751428
  -0.0516581   0.2771073  -0.1108552  -0.4835687   0.6161216   0.3286707
   1.0308478   0.8071088   0.4563166  -0.0513460   0.0528771   0.0634632
   0.6294123   0.1547796  -1.2386106  -0.1122119  -0.8080496   0.1169851
   0.1501827  -0.0250127  -0.2460977  -0.4468097   0.2496809   0.4230392
  -0.3160033   1.4827460   0.6207259   0.2579991  -0.2090270  -0.0559235
   1.0201441  -0.4198125  -0.1198056  -0.2680063   0.0262857  -0.0914936
   0.0435991   0.0009468  -0.3188731   0.1657539  -1.7318654   0.4324415
  -0.0686978  -0.3276214   1.9964067  -0.0702170  -0.0545697   0.3238835
  -0.7964944   0.8560840   0.1929041  -1.4235061  -0.4928655   1.5654008
  -0.3101064   0.0950168  -0.1664056   0.1508290   0.0996324   1.0866828
   0.3843217   1.8977439  -0.0412477  -0.0870802   0.1843485   0.5034408
  -0.7580263   0.3437296   0.4686269  -0.0291395   1.3456376  -0.2380701
   0.3413627   0.1355478   0.1383378  -0.2489784  -1.4825769   0.2301115
  -0.0631131   1.7483412  -0.4193227   0.0272481   0.1308581   0.0189945
  -1.0183894  -1.4359220   1.2549902  -0.0541337   0.3103146  -0.7247838
  -0.0976070   0.0581823   0.2488041   0.2318178  -1.7257093  -1.5395281
  -1.6937334   0.4555474  -0.4089383  -0.0539217   0.1481946  -0.0643582
   0.1220024  -0.1653167  -0.7992194   0.0113395  -1.3476490   0.0708818
  -0.0360301  -0.2324796  -0.0412428  -0.0259951   1.1901297   0.4484819
   0.5434425  -0.0453764   0.4925384   0.0314012   0.2889970  -0.3261762
   0.2967058  -1.2949246   0.1765642   0.4996740  -0.8401448  -0.0061250
   0.0940856  -0.2056159   0.2598216   0.1143426   1.2876991  -0.5054868
  -0.3157273  -0.8749973   0.5685075   0.1206001  -0.0741373   0.0519117
  -0.8450907  -0.4641577  -0.5692048  -1.6318464   0.1002759  -1.2579756
   0.0119688  -0.0949616   0.0581002  -1.0768030   0.8980233  -0.0549497
   0.0729298  -0.9363191   1.4503074  -0.0403457  -0.2698883   0.4306498
   0.4970590   1.0813705   0.6575389  -0.8911118  -0.5159864   0.0774200
   0.1663543  -0.0017574  -0.0542057  -0.3273141  -0.2845074  -1.3204842
  -0.6876979   0.1594227  -0.6751242  -0.1267898   0.0838308   0.3225119
   0.4325862  -1.1469648  -0.3821342   0.1947873   1.0092134  -0.2225182
  -0.2561971   0.2456304   0.1777189  -0.1254034  -1.1980035  -0.1229125
   0.3255417   0.0869022  -0.5104909  -0.1532596  -0.0318885  -0.0191387
  -0.1010422   0.9652928  -0.3983863  -1.1107509   0.6931327  -2.1012485
  -0.3505859  -0.1163946  -0.0457930   0.2202791   0.1940792   0.3490375
   1.1952356   1.2672164   0.3259911  -0.1214865   0.1996094   0.4704541
  -0.2153963  -1.0942957  -0.3792558  -1.4750915   0.3958412   0.6389961
   0.0234258   0.3860242   0.2235875  -0.8220825   0.2583999  -1.2630518
  -0.8047707   0.2979335  -0.2939005   0.3150325   0.0995415   0.0475446
   0.7785218   0.1884799  -0.5354589  -1.8141889  -1.7283948   0.9163028
   0.2053512   0.1379619  -0.2245270   0.3110620  -0.2142109   0.6910499
   0.6253384  -0.6630454   0.5695334   0.1290032   0.1099674  -0.1145484
   0.7253502  -0.7633544  -1.1734349   0.5821038  -0.6900789   0.6735979
   0.2983128   0.0955861   0.2923197  -0.1062966   0.7396722  -1.0786334
   1.1680313  -0.1120937   0.1642048  -0.2240936   0.0199689  -0.0489448
  -1.2958805   1.6432950   0.6437038   0.4118486   0.1226084  -0.5536905
   0.0642197  -0.0026060   0.2157231   0.2173900  -0.0695926  -0.8299980
   1.5951494   0.3317366  -0.7320272  -0.2198798   0.0549164   0.2269910
  -0.1029772  -0.4959544  -0.4161241  -0.8357177   1.0340900   0.8787093
   0.1688316   0.1219942  -0.0103082  -1.1154992   0.9768790   2.3039243
  -0.8079150   0.7887860  -0.1659874   0.1451971   0.0215159  -0.1846574
   0.0374801  -0.4209267  -1.6046046   0.5746825   0.1030222   0.3220407
  -0.0995093  -0.1113640   0.0726564   0.5309185  -0.0054950   0.3556339
   0.7720081  -0.4183562   0.3646981  -0.2950316   0.2143546  -0.3158859
   0.8125795  -1.3958411  -0.4026416  -0.6480338   0.3556714   0.2930117
  -0.2617832   0.0295269   0.0139806  -0.2856347   1.1014052   0.8522148
  -0.8572713   0.0569366   0.8489679  -0.0627911   0.3118146   0.1666188
   0.0399699  -1.0980965  -0.8080662   1.4061320   0.4369000  -0.4274485
  -0.1249859  -0.2286240   0.0105149  -1.1241762  -0.3969105  -0.0122421
   0.1351424  -0.4166683   0.8537287   0.0849134   0.0911269  -0.1873954
  -1.6695454   0.8804017  -0.7350014   0.4914715   0.6505968   1.0820224
   0.1572577   0.1274479   0.0787674  -0.7887442   0.8820188   1.1390988
  -0.7280393   1.2589644   0.0059612  -0.4833492   0.2042897   0.1099163
  -0.0956425   0.6130777  -1.2259092   0.0372805  -0.1350410   0.0295092
  -0.0756820  -0.0717487   0.5748580  -0.7460491  -0.4522828   0.2344732
   0.1068146   0.0859353  -0.4179256   0.2733291   0.1488254  -0.0583977
  -1.3056342   0.8934239   0.3272980   0.8874023  -0.0342748  -0.5375955
  -0.2181823   0.3599805  -0.0734011   1.7638806   0.0962439   0.2736809
   0.7127644   0.8922496   0.2026618  -0.1707181  -0.0040413   0.1819387
  -0.5502249   0.2626389  -0.8703154  -0.7434431  -0.4168844  -0.5033826
  -0.1204697   0.0106584   0.2102987  -1.3212245   1.2132735  -0.5135368
  -1.3884880  -1.3608501  -0.0294744  -0.1320419   0.0383312   0.1590518
   0.5608592   0.4291270   0.3315503  -0.0656149   0.4183715  -1.9478668
   0.0694891  -0.1693063   0.2443743  -0.9768944  -1.1564389  -0.5080762
  -0.4948483   1.5860770  -0.2279428  -0.1240934  -0.1113908  -0.0457473
   1.2881356   0.1863824  -0.1069192   1.1870084  -0.5898932  -0.1410845
   0.0623296   0.4219220   0.3094961   0.3196575   1.1930510   0.0868850
   0.2281463  -1.4450145   0.4046850  -0.2494722   0.2743546   0.3439984
  -0.7287402  -0.3253576   0.2052647  -0.3017089  -0.5263562   1.1917519
   0.2510455  -0.0992792   0.0541111  -0.3829992   1.2350537   0.0551532
  -0.9227139  -0.7978657   1.0959689   0.0846180  -0.1580136   0.2221760
   1.5918054  -1.0434987   0.6918189  -0.7830269  -0.2790675  -1.1603442
   0.0920827   0.1902366   0.0692332  -1.0545073   1.6456413  -0.0022470
   0.2592381  -0.2377320   1.3529366   0.2300098  -0.0282500   0.0617934
   0.3982590   1.7654824   0.7223615  -1.1223247   1.0821988  -0.7403194
  -0.1809848   0.1680044   0.2707084  -0.3934155   0.0049862  -0.5104785
   1.5554130   0.1309264   0.4276707  -0.3533384   0.0016574  -0.0591694
   0.5936604  -0.2736136   0.1482695   1.8740847   0.3168582   1.6579898
  -0.1471726  -0.1171264  -0.2844543   1.2021804  -0.0735475  -1.1605087
   1.4215475   0.6142279   0.4814842   0.2184343   0.3561200   0.3073103
   0.1941159   1.1778886   0.2272886   1.0712553   0.8997637   0.1610787
  -0.0195947  -0.0290218   0.0007662   0.1356315  -1.2132506   1.4207844
   0.0238988   0.4693217  -0.1834662   0.5054950  -0.0106082   0.0907288
   0.1778702  -0.4167623  -0.1534702  -0.3502359   1.4449185  -0.0065058
  -0.0021047  -0.0658547   0.2365383  -0.4658219  -0.7306138   0.6790319
   0.0355424   1.3240802   0.8125871   0.1120566  -0.0921385   0.1478764
   0.0078180   1.1379166  -0.1600045  -1.8073602  -1.4722818  -1.1477290
   0.4633187  -0.0916612  -0.1540389  -1.4919959   1.2139941   0.0935016
   0.0993483   1.2198603   1.2192714  -0.1614464  -0.2553650   0.1326408
   0.4515265  -0.4973893  -0.0487730  -0.1862805   0.5912495  -1.2946042
  -0.1161463   0.0934614   0.1197777  -0.1442755  -0.7674629  -0.2575136
  -0.4303607   0.5497399  -0.1646292  -0.3580429   0.0487024   0.0751756
  -0.5037803   0.3130485  -0.6888501  -0.7053281  -0.7529467   0.6378334
  -0.2685188   0.0075255  -0.2402544  -1.0249063  -0.4310425   1.4366094
  -0.1790539   0.0879964   0.3060034   0.2525559   0.0309438   0.1281953
  -0.5539746  -0.5973897  -0.7546445  -0.7499620   0.1048920   1.7173865
   0.1815876  -0.1015424   0.2462624   1.2184757   0.3423426  -0.0174124
   1.6435280  -0.0048275  -0.0063620  -0.2169024  -0.0700195  -0.1119945
   0.4438866  -1.5163609  -0.3306940  -0.1282883   0.6320079   0.8617475
  -0.1932856   0.1360538  -0.0885979  -0.8188813  -0.8621829  -1.2266715
   0.3193473   0.2836736   0.3955310  -0.1365572   0.0146380  -0.1041615
  -0.2499600   0.6213731   0.4757639  -0.6209551  -1.5583453  -0.3718096
  -0.1257570   0.5821307  -0.1452182   1.5791108  -0.0646299   0.9567480
   0.6360988   0.1464454  -0.7715786  -0.1232216  -0.1222214   0.0537723
   0.4817748   0.9157417  -0.6262706  -1.0829851   0.3592047   1.6524455
   0.0466850  -0.1128540  -0.2285061   0.8276912  -0.2819826   0.7497296
  -1.0598222   0.3290192   0.4358395   0.1380997  -0.0841403   0.2163662
   0.2266600  -0.3893105  -0.6599789   0.3397260  -0.3839289  -1.2522230
   0.3847831  -0.2590304   0.1821230   0.2899492  -1.0153182   0.4884407
  -0.3256852   0.6761487  -0.4155015  -0.0985347  -0.1579466   0.1425636
  -0.1167995  -0.7060395   0.7865016  -0.3253289   1.5616848   0.5580446
   0.0176047  -0.1405851   0.1641483   0.9892997   1.0148564  -0.1738528
   0.9910389  -0.2990486  -0.5776068   0.2354203   0.3426978   0.4778984
   0.9218777  -0.3300726  -1.3198839   1.9318403   0.9656052   0.7527970
   0.0314528  -0.2530896  -0.0815151   0.0426764  -0.9929644  -0.3512220
  -0.4839900   0.1297584  -0.4898349   0.1731630   0.2525886  -0.0464870
  -0.9579014   0.4598246  -0.4015913  -0.0737720   0.0007914  -0.6357544
  -0.0085028  -0.1981427  -0.0530946   0.1072885  -0.6003918  -0.2279688
   0.8934501  -0.3771897   1.5826992   0.0235696   0.0626504  -0.0032789
   0.0752990   0.0989604   0.3339096   0.5015822  -0.2901666   0.7671460
   0.0268180  -0.0295616   0.0517323  -0.1635748   1.6700420  -0.7089205
   0.1741051  -0.1482827  -0.2115349  -0.0647734   0.2927545   0.0643397
   1.0616559   0.0467837   0.0441723   0.4769187   0.4668563  -0.6853370
  -0.0986085  -0.0380723  -0.0175270   0.7386017  -0.7906680  -0.0202228
   0.6531532   0.8206664  -0.5165166  -0.0437712   0.1784937   0.0403381
  -0.0086570   1.8669852  -0.0248427   0.0434933   0.1589224   1.4826343
   0.1966293  -0.3484126   0.0544544  -0.9585996  -0.3655301  -0.7945147
   1.3917266  -0.6478125   0.2820006   0.0016470  -0.0445009  -0.0750920
  -0.8818326  -0.9484342   1.2326437   1.3919046   0.9610195  -0.4529504
   0.0590817  -0.1355171   0.0167415   1.2763494  -0.6327985  -0.4841751
  -0.0518322   0.7370063  -0.9292755   0.2044380  -0.1169487  -0.0199206
  -0.4599707  -0.3539431  -0.5923403   1.1355044   0.3118655  -1.2346795
   0.0674160  -0.0938102  -0.0939529  -1.1531288   0.3080454  -0.2105719
   0.1606075   0.8081954  -0.9447528   0.2301635   0.0938894  -0.0966398
  -0.0631930  -1.4353337   0.6088104   0.9035541  -0.5968229   0.3566678
   0.0563193   0.0207268  -0.0455763   0.0824838  -0.8671875   0.0117014
   0.3608494  -0.1630893  -0.4612693   0.0282639   0.0507469   0.0345407
   0.4032952  -1.2920869  -0.3964224   0.2922242  -1.2788236   0.1519789
  -0.0044130   0.0284783  -0.6444197  -0.4306037   0.3176391   2.0953877
   0.2590057   0.3703382   0.2800493  -0.4501234   0.0678546  -0.2049587
  -0.7859238  -0.8979559  -0.2288595  -0.5811065  -0.8771905  -0.1109037
   0.1710487   0.3529548   0.2351255  -1.1660281  -1.0937120   0.4965736
  -0.6277976   0.3210530  -0.1831297  -0.0497381   0.0881175  -0.0871175
   1.3591509  -0.0512461   0.9039321  -0.7090324  -1.5392736  -1.9807436
  -0.2046390   0.2768773  -0.0568091  -0.4642875   0.3711016   0.0882070
   1.3294865  -0.7972777   0.8226648   0.0871157  -0.1957636   0.2519721
   1.7565321  -1.5381483   1.2362304   0.5915391   1.7567143   0.4980890
  -0.1731002   0.0153984  -0.1725247  -0.9485009   0.1345175  -0.8369497
   0.8269388   0.1025948   0.8582874  -0.0922236   0.0227849   0.1903760
   0.9521241  -0.0796700  -0.1546304  -0.6028772   0.1986616   1.8946577
   0.0718442   0.2181600  -0.0563686  -0.2965212   0.8383899  -0.0360000
  -0.0246098  -1.0106992  -0.1893559  -0.0995999  -0.1786773   0.0711514
   1.1145338  -0.2267283  -1.4186206   0.5743238  -0.2517795   1.2101833
   0.0694823   0.1289816  -0.1192076  -0.2415202  -0.5338491  -0.2119547
   0.4751184   0.8810273  -1.1912325   0.1421927   0.3031844   0.0515395
   0.8099476  -0.4710445  -1.2082637  -0.0921090   0.6656581   0.6863200
  -0.0533446   0.2951917   0.0785752  -0.3705053   0.1494010  -0.2900227
  -0.8925293   0.0823385  -0.0853664   0.2906405   0.4274218   0.1337644
   0.5067731  -0.0263262   0.1492304   0.4811457  -0.5011614   0.6081779
   0.1365167  -0.1366763  -0.2043576   1.1254315  -0.1182426  -1.6924380
   1.1038901  -0.2521028   0.2508118  -0.1029558   0.1420912  -0.2401361
   0.3190309   0.9304196   1.0361636  -0.1204353  -1.0504909   0.9699360
  -0.0814535  -0.1478185  -0.0718585   0.3721315   0.6644889   1.0374768
  -1.1436715   1.0586698  -1.2354066  -0.0437807   0.0716910   0.0781510
   1.4140357   1.4711478   1.4326099   0.5753144   0.1609371  -0.1000247
   0.1512124  -0.0755501  -0.0058211   1.1903975   0.3806411   0.8115557
  -0.3123710   0.9378279   0.1257381  -0.1356318  -0.2924670  -0.0585174
  -0.3966197  -1.2415443   0.7437066   0.4155215  -0.6817543  -0.5188778
   0.5179286   0.0238934   0.1017605  -0.3889959   0.4010783   0.1619792
  -0.4915083   1.1326705  -1.7350823  -0.0534908   0.0974492  -0.0180363
  -0.6205968   0.4019545  -1.0173820  -0.8648609   0.0786488  -0.2814430
   0.2364896   0.3335627   0.5475738   1.4636677  -0.8576421   1.4334313
   0.7096916   0.4953127   0.0003166   0.5556123  -0.1077518   0.1116790
  -0.2730754  -0.3520089   0.0383215   0.3252180  -0.5063793  -0.4896691
  -0.1284800   0.3143469   0.1427305   0.7965415  -0.7315227  -0.1973637
   0.0877179  -0.0286422  -0.1963615  -0.2885717  -0.0391606  -0.2117938
  -1.3607729  -0.5736795   1.1703207   0.6125869  -0.4306347   0.8470152
   0.3736965   0.0249620  -0.4299052  -0.6076964   0.1680021  -0.4850819
  -0.8738272   0.2051324   0.3193434   0.0829839   0.3203537  -0.2763670
   1.0046590   0.4016643   0.6991282   0.9139854  -0.6290699  -0.6665267
   0.0305295   0.0882909  -0.3895538  -1.0339910  -0.8773084   0.0708378
  -0.0618031   0.3214471  -0.3845227  -0.2898439   0.2393617  -0.0740116
   0.0492146  -0.1012580  -1.7613926   0.1711715   0.3673844   0.8344285
  -0.0936527   0.0606397   0.0569536   0.4816210   1.0610208   0.3822035
   0.3215124  -0.2146592   0.1168884   0.0149685   0.1519211  -0.0451070
   1.2100524   0.4687167  -1.0823637  -1.1190606   0.0135430  -0.3414465
  -0.1830488  -0.0103225  -0.4508020  -0.7937997   0.2823390  -1.2736970
   0.8155441  -1.3812124   0.9384463  -0.0157302  -0.1759643   0.0474872
   0.2082285   0.0101164  -0.4577598   0.8688914   0.3534198  -0.4134268
   0.2698144   0.1718887  -0.2706978  -0.2573172  -0.8034018   1.9453854
  -0.2749219  -0.8348443  -0.2671389   0.2756487  -0.2327995   0.1434878
   1.1018167  -1.5832900   0.4101455  -0.2922984  -0.3990505  -0.0359810
  -0.2412058  -0.5546541  -0.4956405  -0.3883335   0.6014277   0.3715561
   0.8748242   0.4545148  -0.1719467  -0.0783329   0.1908580  -0.0419025
  -1.3527448  -0.2354976   0.8085054  -0.0973464  -0.9621005   0.0414846
  -0.1383383  -0.6259461   0.4640616   0.0258428   0.8902131  -0.0698726
   1.3811483  -0.0025082   2.8349168   0.0691322  -0.2043734  -0.1711872
  -0.7474802   1.3905575  -0.7871180  -0.7021513  -0.2521395  -1.1113945
   0.2697080  -0.0196799   0.0397870  -0.4418145  -0.5328381  -0.7728971
   0.2403447  -0.6602631   0.7690909  -0.2192939   0.0576013   0.1009423
   0.9596389  -0.6102431  -0.6317882   0.1464659   0.6345948  -0.4729313
   0.2542280   0.0432493  -0.1087977   1.1015131   0.4512601   1.1905173
   0.9455736  -1.2523462   0.5960221  -0.1971890   0.3311211   0.0077605
  -0.5893447   0.1918310  -0.8635837   0.9373878   0.4442960   0.9666821
   0.0575660  -0.0366514   0.3207793  -0.7780430   0.4699358   0.1717349
   0.7983446   0.4279629  -1.2746368  -0.2192687   0.2365281   0.4554789
  -0.2653747   0.4882689   0.3304645  -0.8755527   0.1452485   1.0647084
  -0.2560412   0.0219852  -0.2155099  -1.4822498   0.6882199   1.4170493
   0.5485962  -1.0081172  -1.1677881   0.1634315  -0.0572109  -0.1770849
   0.6216209  -0.5776135  -0.0816179  -0.2023681   0.9284638  -0.6392927
   0.1755995   0.0114143   0.0372200  -0.5428215  -0.0915306  -0.8191157
   0.0512647  -0.2759032  -0.1001141   0.1007286   0.3892061   0.0806647
  -0.8628476  -1.0771373   1.3361982  -0.8667214   0.2607848  -0.8062420
  -0.2378046  -0.0711064   0.0294952   0.5097412   1.7902768  -0.0080551
   0.2214496   0.5006333   0.0472826   0.1011038   0.4022591  -0.2530413
  -1.4949266   0.2110039   0.0466337  -0.8918409   0.2563207  -1.3232804
   0.3182565  -0.0637266  -0.0939018  -1.5353517  -0.8279054  -1.3703379
   0.4238779   1.2316662   1.5321421   0.0567893   0.1703544   0.3566298
   0.0915093   0.9189223  -1.1539778  -0.2917379   0.3340916   1.3721855
   0.0549406   0.1027845   0.0461815   0.0968044   0.5485957   0.6760609
   0.5445650  -0.0302190   0.2462397  -0.0280931   0.0063401   0.2298890
  -0.0648501   1.0918551   0.4146490  -0.1373233  -0.8504734  -0.5380719
  -0.0736078  -0.2539215  -0.0793952   0.6341158   0.7041663  -1.1730737
  -0.0665677  -1.0113590  -0.3523282  -0.0228729   0.0021701   0.0608066
   0.4695982  -1.1905571   0.1554127  -0.1008568  -0.4864721  -0.9519225
   0.1838110  -0.0228440  -0.1420694  -0.1528124  -0.4994717  -0.4000839
  -1.2246398   0.3226135   0.3703645   0.0651927   0.2678757  -0.3290823
   0.8514030  -0.4480154  -0.0837981  -0.1476169   0.2087747   0.1899878
  -0.0569930   0.3711612   0.0962865  -0.3894767   0.2935700   1.1650782
  -0.6847048  -1.7296152   0.6980724   0.0856181   0.2151817  -0.0886095
  -0.7816323   0.4358371  -0.0868401   0.3118627   0.6588420  -0.0150262
   0.0300226  -0.1968752  -0.1443182  -0.4338052  -1.1305908  -0.8213385
  -0.2298963  -0.1848377   1.2207418   0.1553924  -0.0007719  -0.0927382
   0.2120015  -0.7024583   0.0387588  -0.7141047   0.2535153   0.4880071
  -0.6311710   0.3213983  -0.1307020  -1.6034490  -0.4032717   0.5637958
  -0.4501346  -1.0664503  -0.0019169  -0.1600537   0.1271272   0.1367923
   1.5911987   0.0146482   0.1239584   1.5379978  -0.4730471   1.0476417
  -0.0359912  -0.1221456   0.0842654  -0.6539991  -0.7199843  -0.0093998
   0.0371266  -1.1342942  -0.2319488  -0.2696197   0.1575790  -0.0821407
  -1.0420427  -0.5527403   1.2406613   0.1555302   0.2581050   0.1512412
  -0.0256689  -0.6133608   0.0422401   0.3390254  -0.6678525  -0.9877880
   0.3050646  -0.4267633   0.2691072  -0.5677140   0.0502576  -0.2618819
   0.4819247  -0.8108302   1.0875391   0.7773539   0.9980005  -0.4653936
   0.1795389  -0.0981686  -0.0642097   0.3679387  -1.4068933  -0.4168411
   0.9533328  -0.7479861   0.4323506  -0.0108499  -0.2111002  -0.1642425
  -0.1845728   0.3360880  -1.4288235  -0.3622672   1.3808596  -1.2962196
   0.0202679  -0.2391313  -0.0889357  -0.1913319  -0.2597299   0.1627840
  -0.0455652   0.3949912  -1.7570643  -0.2419533  -0.4608735  -0.1981730
   0.0571916  -0.1477635  -0.2999054  -0.2820723   0.5243630   0.7231882
   0.1161336  -0.0023347  -0.0295681  -0.0783861  -0.5083640   0.9889872
  -0.2002290   1.0822182  -0.0492119   0.1752022   0.0787500  -0.0920174
   0.8574099   1.6046600  -0.9624504   0.8666682   0.3927370  -0.6828003
  -0.0909646  -0.0543110   0.0125619   0.4689010  -0.3814530  -0.5417014
  -0.5258513   0.3836016  -0.1976395   0.4675363   0.1911831   0.1408214
   0.7553657  -0.4245145  -0.9739892   1.5110126   0.4900077  -0.8231519
   0.1393199  -0.1385308  -0.0505322   0.8062600   0.4274417   0.8512388
  -0.0168063   0.1172887   1.0339653  -0.0301771   0.0473975   0.2290281
  -0.8613246   0.8518494   0.3196277  -0.2976124   0.5115533  -0.3723776
  -0.1481319   0.3508661  -0.0601922   1.0212411   0.3777190   0.4303253
   1.5159551  -0.7718215  -0.4051620  -0.0484646   0.1313107  -0.3349318
  -0.1569497  -0.0415404  -0.1248628  -0.4797233   0.5933025   0.4265759
   0.2942147   0.0684495  -0.3639554  -0.2838437  -0.0375142  -0.8632641
   0.1030884   0.0994436   0.6055350  -0.1475931  -0.3473439  -0.2604975
  -1.3304488   0.5882636  -0.5618570   0.8138891   0.6373116  -0.0097082
   0.2491165   0.1639149  -0.1807939  -0.4200254   1.2801834   0.3338404
   0.2925592  -1.5409659   0.7742996  -0.2749351   0.1128831  -0.0599418
  -0.4801850  -0.2704550  -0.6501991  -0.7873321  -0.4703502  -1.1396776
   0.0769560  -0.1105479   0.2504135   0.6567509  -0.6582114   0.5899649
   0.3789087   0.1646173  -0.2936905   0.0423086   0.1609451  -0.1403663
   0.4395784   0.3157077  -0.0366665   1.0335163  -0.4804311   0.2261744
  -0.1411868   0.1181783   0.0404429   0.1958109  -0.2639229   0.6819807
  -0.1220213   0.5789504   1.4357591  -0.0229785   0.0330869  -0.0852413
  -0.5040915   0.1258416  -0.2271888  -0.2343889   0.0516164  -0.4089875
   0.2701458  -0.0688534  -0.1590589   0.8519599   0.2023173  -0.1237955
   1.2200784  -0.5477303   0.8837640  -0.0985957   0.1317510  -0.0410214
   0.8694567   1.1322179  -0.1515099  -0.0944930  -0.4132773  -1.6260677
  -0.1733981   0.0733559  -0.0579418   0.8505202  -0.9736146   0.3919227
   0.4053566  -1.3274372   1.7369552  -0.1406325   0.1206745   0.0387212
  -0.1866976  -0.6750260  -1.0056838   0.7367761  -0.2047792   2.4622286
   0.0156144   0.2469057  -0.1982147   0.7176455  -0.8028854   1.2170583
   0.7149639   0.1794433   0.3594295   0.3292422   0.3120289  -0.0351312
   0.5496348  -0.7958244  -0.8791057  -2.7014525   0.3228763   0.4362303
   0.0565456  -0.2814659   0.1368267  -0.4853474  -0.7296826  -0.7760178
   1.0833009  -0.0427664  -2.2271960   0.0106142  -0.0019751   0.1016525
  -1.1298433   1.2725300   0.4593972  -0.0456182  -1.3266691  -1.1817669
  -0.0761523   0.1157396   0.0737834  -1.0949738  -1.2985817   0.4343324
  -0.7664774   0.3590082  -1.0276709   0.1916193  -0.0124814   0.0703174
  -0.7641726   1.2384030   1.4218856   0.3240648  -0.1011472  -0.2915797
  -0.0070089   0.0765910   0.1540013   0.3351884  -0.6904942  -0.6379671
  -0.6807128   0.1207439   0.3226693  -0.0190193  -0.3162905   0.1001447
  -0.7572342   0.7713273   0.4306136   0.2848370  -0.0570044  -0.0810502
   0.2280413   0.0240313   0.3390921  -0.1192072   0.4093138  -1.2116888
  -0.3292216  -0.6810092   0.1856906   0.2435067   0.0869787  -0.0538330
   0.1784063  -0.0588257   0.1468570   0.2413747   1.1878654   0.3191227
  -0.1986326  -0.0603684   0.0475088   0.4759481  -0.5205594  -0.7616627
  -0.9951484   0.2501809   0.9891221   0.0007750  -0.2790881   0.2618587
   0.0851473  -0.1990774  -0.0993013   0.8289284  -0.4977651  -0.2518919
   0.3656396   0.2777912   0.2544978  -0.5274956  -0.8156550   1.3609914
   0.1990569  -0.4485064   0.4376811  -0.0450905  -0.1249629   0.4798546
  -1.0956243   0.2938189   1.4268816  -1.5946387   0.3551763  -0.4622503
   0.5189000  -0.0896487  -0.0333199  -0.3335048  -1.0660976   0.9267914
   0.5444447   0.1728262   0.8316521  -0.1738842   0.1182393  -0.1398247
  -1.4732543   0.7822153   1.4276837  -1.8757940   0.8384216  -0.8868864
   0.2175105  -0.2648795  -0.0253575  -1.0597043  -0.4829465  -0.3755578
  -0.4003742   0.7474264  -0.1433228  -0.1327396  -0.0182841  -0.0351290
  -0.1918613  -0.1345112   0.0964099  -0.0690804   1.0962258  -0.9439832
  -0.1656648   0.3016567   0.1094881   0.3580228  -1.2928005  -0.6660040
   0.1647957  -0.2992057  -1.4225495  -0.0205929   0.0043607  -0.0423223
   1.5543439   0.9272853   0.0349219  -1.3642190   0.7913987   0.8253339
   0.1785922  -0.0151960  -0.0182616   0.2758723  -0.1587817   0.0167705
   0.2559481   0.2715707  -0.4354555  -0.4084646  -0.0393075   0.1443820
  -0.8568591   0.5082181   1.1662196  -0.5000102  -1.0970695  -0.6781854
  -0.0492110   0.2010937  -0.1092319   0.6484971   1.5717859   1.1264556
   1.2270506   0.0493653  -0.1562430  -0.2922022   0.0343739  -0.5615988
  -0.3311552  -0.2086353  -0.3524828  -1.4409606   0.3734486   0.3134498
  -0.2469885   0.0105430  -0.1319511   0.3291998   1.2361292   0.6160964
   0.0186089   0.5306190   0.2825974  -0.2723450   0.2290567  -0.0729047
  -0.5947968  -0.2100115  -0.5253482   0.5428022   0.1712260  -1.2155011
  -0.0691946  -0.0440044   0.1807232  -0.3256807  -1.4083263   0.8321572
  -0.1989959   0.6434897  -0.2473547  -0.1919882   0.2460737   0.0445682
   0.1324519   0.1605010  -0.0604273   1.2686323  -0.5222514   0.0742893
  -0.1510024  -0.0094469   0.0840323   0.3267052  -1.2885172   0.5694707
  -0.5617213   0.6285101  -1.4205375   0.0620968   0.5892587   0.0311503
  -0.1856324   0.3651706   0.5546368   0.7498132  -0.0791944  -0.9980830
   0.0568473   0.2348346   0.2305638  -0.1645054   0.6019856   0.8484343
   0.0080381  -0.9764717   0.6918041   0.1076927   0.0781829  -0.2759508
   0.1570980  -0.8313208  -2.2302061   0.1823961   1.1676145   0.2319440
   0.0373838   0.1077199  -0.0665187  -0.3311634   0.7887805  -0.6483753
  -0.1125805   0.0634491   0.2147301  -0.2204310  -0.3249060  -0.0057799
   0.0321775  -0.9795891   1.2178557   0.4036023   0.4320552   1.1313160
  -0.2201568   0.1055873  -0.0269471  -2.2603553   1.2828381   1.5379486
   1.1597627  -0.3392509  -0.1607835   0.0300106   0.0752949  -0.0188802
  -0.9776784  -0.5618226  -0.9947542   0.4982903   0.6731433   0.4081308
  -0.1334639   0.1589825   0.0154311  -0.3220283  -0.5698768  -1.2216744
   0.2966304   0.6326235  -0.1235502   0.0657981  -0.1182172  -0.1195116
  -0.1158347   0.2099143   0.0044625  -0.8702577  -0.2997727   1.0012829
   0.1027103   0.1823267   0.0787901   1.1645878  -0.4819006   0.6454853
   0.2285293  -0.8840876   0.5188452  -0.1223917  -0.1926146  -0.2514627
  -1.4827500   0.5350811  -1.1280966   0.9590442  -0.4137984  -0.3205355
   0.0980851   0.3097408   0.1401050  -1.2379116  -0.2537739  -0.4879338
  -1.3202576   0.3676051   0.5773563   0.1527129  -0.0364607  -0.0124468
  -1.2350697  -0.6746462   0.6352525   0.7511154   1.7098693  -0.3621718
   0.0443466  -0.0896696   0.0783470  -0.3007244  -1.1908500   0.3151703
   0.4699193  -0.9332306   1.0607152  -0.1366877   0.2607117  -0.2666739
  -0.4165630   1.6696331   0.1564618  -1.0214715   0.7427799  -0.2944324
  -0.3104969  -0.0328175  -0.1705866  -0.1776605   0.2725378  -0.6059808
   0.5090894  -2.8122711   0.6878342  -0.0556037   0.2778607   0.0344034
  -0.0515714   0.8292745   0.8831584   0.2496541   0.1660304   0.8560529
  -0.0148125  -0.0570401   0.1415166  -0.7912855  -1.3682057  -0.0988045
   0.2902392  -1.2375956   0.8721884   0.2521431  -0.0373147  -0.1171000
   1.0990902  -0.2586675  -0.1892214  -0.0162905  -0.0316888   0.8429293
  -0.4134727   0.0492005   0.0829937  -0.6015286   0.0985110  -0.3660462
   0.3283892  -1.2953112   0.2892928   0.1242823   0.0662261  -0.1978703
   0.6097279  -1.3622807   0.8193739   0.7548469  -1.2098125  -0.2171268
   0.5288724   0.3458284  -0.1419296  -0.2424864  -1.2910453   0.3848795
  -0.4918913   1.6382149  -0.0776396  -0.0935739   0.3580727   0.0879601
  -0.8041461   0.0303147   0.5855315   0.8148871  -0.9289122   0.2417738
  -0.0241208  -0.0501949   0.3301051   0.0715334   0.3089142   0.4693933
  -0.2082384  -0.5327726   0.1524095  -0.3545507   0.2188783   0.0786277
   0.9521328   1.0452704   0.5880783   0.0055698   0.5525530   0.1429642
  -0.1707148   0.1034980  -0.1774418   1.3108544   0.7837628  -0.1510914
  -0.5708477  -0.3764795  -0.6136545   0.1546006   0.0351293  -0.1966904
   1.4530222  -1.0317668   1.3430604  -0.6171168   0.1700663  -0.8010412
  -0.3835905  -0.1539493   0.0284448  -0.5522535   0.6266424   0.2991028
   0.0563855   0.7668277   0.2494764  -0.0688351  -0.0191083   0.2249845
   0.8524066   0.7048553   1.4611025  -0.5524937  -1.6258892   0.3086156
  -0.2596944   0.1793547  -0.0057875  -0.1634001   0.7889980   0.4279721
  -1.4205974   0.3444874   0.1224340   0.1169321   0.0924693   0.0901804
   0.4572333   1.2845433   1.3278907   0.4430118   0.8307630  -1.1940324
   0.0440822  -0.1288069  -0.0866955   1.2417652   0.3897192  -0.2757229
  -0.4792364  -1.1830756   0.1418126   0.0690704   0.1957696  -0.2556046
  -0.1315688   0.2303118  -0.6676064   0.9752620   0.2472621   0.2900456
  -0.0695494   0.2391722  -0.0527891   0.4865770  -0.4215270   0.9605858
  -0.6374522   0.1928819  -0.4466214   0.2520998  -0.0080113   0.2781675
   0.6308815   0.2557024  -0.6392243   0.1566682   0.5932268  -0.2222517
  -0.2609638   0.3558670   0.0132315   0.2869541  -0.0877130  -1.1439650
  -0.7227189   0.3882875   2.1950807   0.2779615  -0.1597090  -0.2075170
  -0.9145881   0.2878241   1.0961557   0.8076033   1.0275297   0.2596334
   0.0094785   0.4273023  -0.2832495  -0.3117956   0.0391847   0.0440355
  -1.3399431  -1.5345120   0.9209897   0.1633234  -0.1118749  -0.0618616
   0.3028278   0.1273083  -0.1704365  -0.4233854  -0.1001270  -0.3757792
  -0.0120913  -0.4425153   0.1398091  -1.2571983   0.3948022  -0.8925282
  -0.2641813  -0.1741110   0.4849357   0.4318530   0.1835201  -0.1073037
  -0.1511780   0.7248530   0.1424913  -0.1525838  -1.3189180  -0.3110615
   0.0675380   0.0562773   0.0378589   0.1724029  -1.2925608   0.7646353
   0.9881568  -0.6625179  -1.3457184   0.3316582   0.1225949  -0.0598980
  -0.8390866   0.7631236  -0.3976338  -0.6418079  -0.6355541  -0.4687468
  -0.0469447  -0.5279626   0.0325241  -0.0034786  -0.5433002   0.3208730
   0.6634435   0.4492102  -0.9615208   0.1952559  -0.0605316   0.1219980
  -0.2665216  -0.3900610  -0.3978534  -0.3234882   0.4725570  -1.6463374
   0.0680289  -0.0621443  -0.2211063  -0.0738570   0.7341489   0.0473280
   0.8559781  -0.3836823   0.1466704   0.0955621  -0.0390370  -0.4058404
  -0.3257911   0.7000915   0.6700772  -1.0121448   0.5401805  -0.1637691
  -0.1048562  -0.2084948   0.0614827  -0.2266458   0.4257002  -1.0308994
   0.3229095  -0.9071198  -0.1734840   0.1476167   0.3027712  -0.2044350
   0.8765461   1.4871669  -0.2787396  -0.4295409   0.3726804   1.2641451
   0.0493472   0.0541166  -0.2624338   1.0620011   0.7001373   0.1641187
  -0.8748224   0.5447129   1.5546574   0.0585176   0.4367554   0.1326258
   0.0321509  -0.7399994  -1.4085906  -0.4923101  -0.6434339   1.2862211
  -0.0776599  -0.1658571   0.0881038   2.3933703  -0.2157671   0.9579127
   0.6171295   0.1384871  -0.2023550   0.3369522   0.3046450  -0.1014470
   0.4659103  -0.5255846   0.2283400   0.1216626  -1.0691574  -1.2811382
  -0.1420306  -0.0448790   0.0575541  -0.4800138   0.4653598   0.4420259
   0.1627319  -0.5843030  -1.4581509  -0.0648825   0.3180237  -0.2071486
  -0.8858326   0.9291480  -1.0417501   1.2115496  -0.5418399   1.3594461
  -0.1394053   0.2703369   0.2576760   0.2737990   1.4073643   0.6606752
  -1.2303872  -0.4207828  -0.8285093   0.2044294   0.1569308   0.2591575
   1.5557193  -0.8832145  -0.5693518   1.4976745  -0.4919539   0.3231902
  -0.2409192   0.1739179  -0.0613719  -0.1617805  -0.3730030   0.0466194
  -0.6316415  -0.1910675   0.5851543   0.3127867  -0.4436006   0.0872377
   1.2414188  -1.6276855  -0.5956577   0.4668674  -0.1849526  -0.8716540
   0.2932240  -0.1876392  -0.2454406   0.7978158  -0.0328672   1.1631549
   0.3563929  -0.3894081   0.6268895  -0.3711861  -0.0963439   0.1425523
  -1.3886193  -0.3221904   0.5257047  -0.1959574   0.2233715  -0.3742185
  -0.3514377  -0.1964394   0.1324871  -0.8043433   1.3670445  -0.3547931
   0.3895545  -0.6247375   0.2465510   0.3025970  -0.1985273  -0.2829659
  -0.6375706  -0.4821339  -0.8117865   1.4277695   0.1399915   0.5710027
   0.2361773  -0.2173138   0.1161820  -0.2432195   0.4659619  -1.5672855
   0.3318199  -0.7088940  -1.5176374   0.2212515   0.1881748   0.3183824
   0.1996516   0.3748935  -0.3902042   0.2252038   1.2355256  -0.0853010
  -0.1385267   0.1517197  -0.1867314   0.0463365  -0.4865389  -1.6902833
   0.2397831   0.3599446   0.4910930   0.1041374  -0.0061249  -0.2456557
  -0.0358379   0.6204757   0.4764819   1.8071656  -0.3025564  -0.6149288
   0.2451068   0.1561707  -0.0476543  -0.1139485   0.8806998   1.5347174
   0.0098981   0.2792935   0.9140668   0.2136672   0.0781576  -0.0065644
  -1.2399674   1.5792190  -0.1700973  -0.0335241   0.1575819   0.2519902
   0.1331373   0.1823956   0.0153574   0.1713326   0.6267740   0.3107781
   1.0408286  -0.9794446  -1.0775325   0.1073591  -0.1886776   0.0697882
   1.3504751   0.7662470   0.6421401   0.1792719   0.1520481  -0.0266749
  -0.0935845  -0.0098882   0.1304155  -0.3835940   0.4633097   0.7240258
   0.5989733   0.3929976  -2.1808683  -0.1079450  -0.0637399   0.1949876
   0.2350897  -0.9578344  -1.9151561   0.0870808   0.3069136  -1.8169669
  -0.3181581   0.1539578  -0.1993108  -0.5759038   1.0487253  -0.0057042
  -0.7944940   0.6679958   0.9198703  -0.0500357   0.2317479   0.1069191
   0.7614209  -0.2582301  -0.9592142  -1.1673327   1.3363508  -0.3272804
  -0.1186247  -0.3623141   0.2088781  -0.4473123  -0.9323513  -0.4479316
  -0.9950243  -0.2379271   0.1766263   0.0575648  -0.1435557   0.2279397
  -0.1320706   0.3402878   0.1452388  -0.0561721   0.9010166  -1.1407582
  -0.1831388   0.1051467  -0.1731113  -0.3320254   0.8808208  -0.2019909
   0.0811833  -0.9298204  -1.8263138  -0.1979132   0.2250293  -0.0960422
  -0.3636841   1.3965229  -0.7386927  -0.1522482   0.3431690   0.4578508
   0.1670479   0.0453642  -0.0953493  -1.6854587   0.1213675  -1.2362047
  -0.4529434  -1.5154225   1.1715506   0.0976846   0.0844431  -0.2467013
   0.4533912   0.2905790   0.1667789   0.3848622   0.5446999  -1.1601080
  -0.1175089   0.0417985  -0.1851157  -0.3627215   0.5949550  -0.5026756
  -0.5695898  -0.2512046  -0.0346773   0.0141102  -0.1221164   0.2048976
  -0.4398794   1.6812619  -0.6115608  -1.2616639   0.3672778  -0.0569767
   0.3286154   0.0870766   0.0896846   0.1013020  -0.1516511  -1.0810520
  -0.5217848   0.4122564   0.7443687  -0.0744780   0.2029160   0.1452594
   0.9763667  -0.8236889   0.3438839  -0.4980379   0.0283500  -1.2046529
   0.0892415  -0.0473053  -0.2164525   1.1375156  -0.3890713   0.2081099
   0.1971633   0.5588230   0.4825660  -0.1464562  -0.1376992   0.0861884
  -0.4949831   0.3090379   0.3564180  -0.2289399   0.1362010  -0.1002242
   0.2238123   0.0828971  -0.2711571   0.6837703   1.4753933  -1.0578502
   0.0895754   0.3504064  -0.0102910   0.0523560  -0.1310461   0.0824027
   0.2228332   0.2136531  -0.7648217   0.6530595  -0.0033967  -0.8655062
   0.1066325  -0.0019239   0.0354836  -0.1972511   1.4096527  -0.7641579
  -0.1975144   0.1341641  -0.5343376  -0.3081496  -0.0248222   0.0715084
   0.0818716  -0.4315046   1.6665878   0.8528117  -0.5062223   0.2233808
   0.0760269   0.0209926  -0.1538597   0.3812029   0.3205377  -1.2931612
  -0.8993005  -0.8592889  -0.8240308   0.0567968   0.2119120   0.1150151
   0.6307842  -0.5440767   0.0453553  -1.4584640   0.7276685  -0.1510438
   0.1994143  -0.0058312  -0.0308897  -0.2689960   0.1357982   0.6904985
  -0.5108451   0.1143912  -0.9534657  -0.0775094  -0.1987750   0.0106885
  -0.4122459  -0.1961944  -0.7387775   0.3021234  -1.0979484   0.5952879
  -0.2111485   0.1147079  -0.0419638   1.3499944   0.2430888  -1.0437713
   1.0625916  -1.1374217   0.5671136  -0.2130821   0.2901343   0.1398756
  -0.9069941  -2.2432399   0.1361878   0.5558036  -0.2720765   2.6799840
   0.1142151   0.1227637   0.1895841  -0.0503364  -0.2778987   1.8871421
  -0.1964435  -1.1625353  -0.0701564   0.1342090  -0.1347135   0.0477871
  -0.4870834   0.4177883   0.7623426   0.3741141  -0.4513671   0.3948652
   0.2738299   0.2677829   0.1270273  -1.4012985   0.0452635   1.0652451
   0.3869093  -0.3198198  -0.0250726  -0.1351703   0.1216733   0.0088304
   0.2982222  -0.7835436  -0.8345203   0.0430377  -0.3224664   0.7046021
  -0.1603155  -0.1229656  -0.0127503   0.0394726  -0.2826892  -0.0459853
  -1.3027014  -0.4632433   0.4359166  -0.0107975  -0.2662622  -0.0438738
  -0.5543904   0.3451447   0.5367910   0.1107662  -0.4029121   0.6193053
   0.0001159  -0.0630812  -0.1066731   0.3573494  -0.1707318   0.5335502
   0.1048855   0.0914609  -0.5086646  -0.0598591   0.1814199  -0.1448915
  -0.0441665   0.1355415  -0.9547984  -0.8069796  -0.8683098  -0.2436450
   0.1198733  -0.3194776  -0.0192526   0.1014579  -1.0586998   0.0675643
   0.9585957  -0.0317849   0.0860357  -0.1162577   0.0962401   0.0825700
   0.5408143  -0.4500882  -0.0411704   0.9717359  -0.5551254   0.4082130
   0.0263258   0.1109316   0.3849068   0.0250239   1.0304838   0.7867674
   0.1575137  -0.8503170  -0.8124166   0.2617338  -0.2091452   0.1579364
  -1.2111719  -0.1768966  -0.4670160  -1.1039896   0.7212471   0.8676921
  -0.0757721   0.0880798  -0.0109522   0.7795708  -0.5362838  -1.2005684
  -0.1106916   0.3045097   0.5313843   0.0503263  -0.1548093  -0.1392735
  -0.8076537   0.4070796   0.7716249   0.2935341  -0.7547669   1.1620162
  -0.1212159   0.0232842   0.0031741  -1.2987231  -1.1955945   0.0121452
   0.0667403   0.9100343   0.9856702   0.1081671  -0.1200719   0.0681588
   0.3231519   0.1393059   1.0438628  -1.6731597  -0.1994540  -0.0149589
  -0.2491706   0.3343276   0.1531406  -0.0810231  -1.2679640   0.4159705
  -0.5333950   1.1374630  -1.3646323   0.1046844   0.3044920   0.0160578
  -0.6327585   0.2026757   0.0505219   0.9702945   0.1414972  -1.3693941
  -0.1022046   0.0282905   0.3085246  -1.8359781   0.9672430  -0.0692584
   0.6332913   0.9629694   1.0529040  -0.1192653  -0.1927817   0.1488227
   0.1739590  -0.3419455  -0.0876089  -0.9301130  -0.9598360   1.4332281
   0.1762486  -0.1260472  -0.3400302  -0.7309967  -1.3757995  -0.2932618
   1.4783908  -0.2056794   0.3255810  -0.0235993  -0.2387646  -0.0142007
  -0.3175434  -0.4380934  -0.2432246  -0.3176899  -1.1575423   0.3625037
  -0.1068302   0.1428181   0.1911263   0.8872222  -1.1549630  -0.8470836
  -0.1269240   0.4202808  -0.5821288  -0.0604743   0.0270047   0.0374498
   0.8035373   1.4324831   0.8929812  -0.8108281  -0.5516118  -1.4718512
  -0.0982393   0.3297251   0.3504817   0.4809361  -0.4570600   1.4671591
  -1.2116282   1.1247452   0.3107090  -0.1850009   0.0718154  -0.0537196
  -0.3168603  -0.2469678  -0.0987385   1.5946072   0.3600535  -0.4287002
  -0.0577251   0.2571641   0.1835885   1.7601526   0.1706779  -0.7581583
  -0.0136589  -1.1556604  -0.5328982   0.0232455  -0.2205818   0.0197062
   0.3770048  -0.4334631   0.5962352  -0.1744589   0.8895964  -0.7656602
  -0.2940774  -0.3422882  -0.1745127   0.2516667   0.3139735  -0.8687906
   0.2456020   0.3423566  -0.5823837  -0.1512931  -0.1138610  -0.1607766
  -1.1635473  -0.0741987  -1.2049430   0.5222226  -0.3160734   1.1189208
  -0.0243704  -0.0963358   0.1794593  -0.0305851   0.1428506  -0.9007601
   0.8572263  -0.2705276  -1.0756601  -0.2563276  -0.2302804   0.0806756
  -1.3138659   0.2753500  -0.2196893  -0.3501604  -0.4417228   0.7634018
   0.0795074  -0.1470078   0.2062858  -1.3202905  -0.7800132  -0.7047342
  -0.0072740  -0.3371428   0.6801078  -0.0696928   0.0460879  -0.2836951
   0.0636254   1.2768043  -0.2598043   1.0955621   0.5049839   0.9516355
   0.2595824   0.0369417   0.1914260   0.2965234  -0.1790821  -0.1346639
  -0.0124151  -0.5702369  -0.1175818  -0.1147454  -0.1338421   0.1519890
   0.9165624   0.5885105   0.0532080   0.1792516  -0.0952270   0.4453382
   0.2666184   0.0711751  -0.2888821  -0.4613446  -1.7245903  -0.4169285
  -0.0016071   0.8307862  -0.5456928  -0.0714099   0.1859166  -0.4054600
   0.0441447  -1.3162034  -0.0247629   1.0159712   0.6361466  -0.6264770
   0.1892421   0.0849358   0.0211364  -0.0583776   0.2796152   2.0010673
  -1.2958194  -1.0985499  -0.0385879  -0.1637055   0.3493518  -0.0467768
   0.5255092  -0.1574213   0.3620445  -0.3604112   0.6645574   0.9440428
   0.0957444   0.1882630  -0.0733480  -0.1596867  -1.0599959   0.4995861
  -0.1512353  -0.8439020   0.3291533   0.4097381   0.0960632   0.1060863
   1.5295605   0.4154365   0.6254003   0.0077646  -0.3466536   0.3212530
  -0.3500943   0.0434053   0.0464392   0.1942603   1.7368156  -0.2652688
   0.3384375   0.5111867   0.0589988   0.0808132   0.0841547  -0.3260220
  -0.5330754  -0.4228953  -0.0872755   0.9599098   0.2111652  -0.7365161
  -0.0633861   0.0619157  -0.0786318  -1.2232271  -0.5965118  -0.9556050
   0.0275110   0.4818763  -0.8700289   0.2524386  -0.0441357  -0.1955612
   1.2476860   1.1274568   0.1312467   0.3771664  -0.3263634  -0.2793842
   0.1612487   0.0171788   0.0128875  -0.9719285  -0.9330170  -0.6221472
  -0.2041109   1.9065273  -0.6935019   0.1711629  -0.1242820   0.2403700
  -0.5152293  -0.1680674   1.1590347   0.2204464  -0.8612415  -0.9490228
   0.3216614   0.1679479  -0.0391666   1.0078619  -0.0839683   0.0934535
   0.2923030   0.1670885   2.2414256  -0.1066434  -0.0444088  -0.0433642
   1.5038045   0.4038183  -1.4713403   0.2809613  -0.8414073   0.0875560
  -0.1831484  -0.0813027  -0.0507466  -0.8634826   0.4031574   0.6436162
   0.1082287   0.0836274   0.8808126   0.0094363  -0.1103587  -0.0624930
   0.3028640   0.1713497   0.8665549  -0.2617028   1.0651165  -0.3398118
  -0.0017900   0.0551981  -0.2218692  -0.7058221  -0.0038764   0.3814802
   0.4883434  -1.0915511  -0.7542009  -0.0786973  -0.1605692   0.2147612
   0.6775430  -0.6419298  -0.0224559  -1.1767984   1.8080873   0.0185439
   0.2600615  -0.1788485   0.1149822  -0.8547550   0.0018994  -0.4920831
   0.2370380   1.6254484   0.8654052   0.1296259  -0.2797691  -0.1230921
  -0.8361806   0.0827156   1.0277524  -0.2048108   1.0812340  -0.7968770
   0.3306258  -0.1278863  -0.2364716  -0.2744783  -0.1392956  -0.8844875
  -0.9035960  -1.2641664   1.3049278  -0.2080471  -0.1799473  -0.1575745
   0.3927235  -0.3696838   0.3129820  -0.8860161   0.6533504  -0.5481756
  -0.1526302   0.2739089   0.3250898   0.8238341   0.3229146  -1.3075233
  -0.9742032  -1.3905628  -0.9128785   0.1809149   0.1108577   0.0686629
   0.3592266  -1.6500827   0.1805815   0.0956294  -0.9544657  -0.3869942
  -0.1349810   0.3367354  -0.2200654   0.4969322  -0.5702492   1.1715090
  -0.0313270  -0.5744269  -0.2305942  -0.1878277  -0.1059759  -0.1105454
   0.5664723   0.1564327   0.6246152  -0.9726504   0.1433832   0.5606251
   0.1355447   0.1366972   0.1147353  -1.0989152   0.2788053   1.1277120
   0.1110986   1.0158135  -0.2287367   0.0235682   0.4484746   0.0987417
   0.2250153  -0.3897729  -0.5562072  -0.6767693  -0.2169358   0.0970547
   0.0119124   0.1231032  -0.1250444   1.1043259  -0.9312456  -1.0373245
   0.8628627  -0.7739658   1.5909450  -0.1548833  -0.0588401   0.0293427
   0.5346782   0.0495809   0.0447862  -0.5138651  -0.7138064  -0.1668685
  -0.0331218   0.1281833  -0.1253677   0.7913536  -0.4461010  -1.1332672
   0.6873367  -0.7209084  -0.1428302   0.0692284   0.0844288   0.1451340
   1.4075464  -0.2160422   1.1530123   0.7545788  -0.4371346  -0.7134152
   0.1023070  -0.0862722  -0.2949341   0.1729112  -0.1348444   1.0122730
  -1.0328906  -0.2094382   0.7233287   0.1528182   0.0276765   0.0855542
  -1.0028496   1.2443322  -1.6056741  -0.6065794   0.0392142  -0.7147280
   0.1575296  -0.2201214  -0.0266942   1.3121155   0.2413887  -0.6518069
   1.0697095   0.8391129  -0.2858011  -0.0005385   0.4691601   0.0868357
  -0.4571412   1.4517739   1.5716967  -0.4104417   0.6530607  -1.0629716
   0.1486315   0.2584535  -0.3842887   0.5697466  -0.4627717  -1.2184317
  -1.0807517  -0.9763158   0.6380335   0.3048378   0.6910178  -0.0011707
  -0.0914866   1.8720789   0.2274372  -0.0385742   1.0009368  -1.2959669
  -0.0205642   0.4534536  -0.0750261   0.0573798   0.5760870   0.2249797
  -1.2472838  -0.6578858   0.9697234  -0.2190894   0.2186989  -0.0521923
  -0.3120096  -0.7301047   0.0805099   0.8754925  -0.5095802  -1.5184861
   0.4317102   0.2374164  -0.2565003   0.0160574  -0.9224590   0.0909750
  -0.0847373   1.0432369  -1.1043691   0.2218151  -0.1565352  -0.2633836
  -0.3502649   0.7917695   1.4991385  -0.1447532   0.3294366   0.6484133
  -0.1252653   0.0760480   0.0850426  -1.5878060   0.5672428  -0.9985053
   1.1843573  -1.3293576  -1.0929966  -0.0437181   0.0516292  -0.2350007
  -1.7472914  -1.9250614  -0.2071899   0.5170795  -0.0166208   0.0681278
   0.0512961   0.0917602  -0.2818810   0.5228914   0.9244833   0.3020084
  -0.6449254   0.5170460   0.6348137  -0.0939068   0.0386340   0.1168258
  -1.0538955   0.3310178   0.3904140  -0.1509839  -0.2156078  -0.8430975
  -0.0510433  -0.2776797  -0.3950198  -0.0742997   0.1178773  -1.7995831
   0.4411291  -0.0207146  -0.2805924  -0.1035388   0.4524139  -0.0352025
   0.6864281  -0.4519380  -0.0721538   0.4358928  -0.5268410  -0.1571097
  -0.5298742   0.3529644  -0.0641005   0.5928192   0.2848126   0.2237221
  -0.7952231  -1.0636499  -0.5630146  -0.0153035  -0.2179090   0.1913001
   0.9781948  -0.2964588   0.8435304  -0.3752701   1.0590992  -0.6896510
   0.0395370  -0.1115300   0.0485561  -0.3653712   0.1506011   1.0984079
   1.0368246   0.3687267   1.2547100  -0.2241973   0.0265814   0.3139425
  -0.0236958   0.7022248   0.1355783  -1.0300366  -1.2940067   0.0472868
   0.5131511  -0.1043575  -0.0216794  -1.8624261  -1.1410592   1.0350510
   0.5467197   0.1285232  -0.0610142  -0.1785139  -0.1865437   0.0080441
  -0.4869460   0.2842512   0.0106132   0.0647315  -1.0331267  -0.3594201
  -0.1406481   0.0531567   0.2487038   0.3350390  -0.1257996  -0.3061412
  -1.4564244  -0.1255799  -0.3524772  -0.2286194  -0.0753123   0.3146564
  -0.5187611  -0.8238250   0.2865915   0.2342656  -0.5681329   0.4080093
  -0.4187165   0.1318005   0.0023136   0.8976743  -0.2969715  -2.0497875
   0.3320982   0.4062973   0.3549651  -0.0806085  -0.0538652   0.2377332
  -0.3231284   0.7332917  -1.1379499   1.6720909  -1.0225056   0.3251849
  -0.0055850  -0.0290158   0.0979593  -1.0696118   1.1997466  -0.9024386
   0.2361555   1.2691354  -0.4561137   0.2481688  -0.2551305  -0.2591909
   0.1257865   0.5691161  -0.8432589   0.3455900   0.6559063  -1.2874354
   0.2567995  -0.2146603   0.1565722   1.3746828   0.1636729   0.2860509
  -1.4215469  -0.0920306   0.8455216  -0.0165345  -0.1034542  -0.0367886
  -0.2704312  -0.5819787   0.3203316  -0.6777470  -0.0513965   0.7016376
   0.2116727   0.0510332   0.0765770  -1.0603318   0.7770585  -1.5162545
   0.1986327  -1.3110693   2.2051721  -0.0962957   0.3741925  -0.1040264
  -0.6300371   0.3809552   0.5693082   0.7725387   0.6709616  -1.7017163
   0.1662854   0.2736476   0.2948538  -0.6628014  -0.8620162  -0.7315375
   1.3479982  -0.7441282   0.2580635   0.1208736   0.1980872   0.0406846
  -0.7254087   0.2997381  -0.1096814  -0.1135145   0.2579085   0.0651008
  -0.1571575   0.0848572  -0.0059214   1.6003471  -0.2122617   1.1513221
   0.4438973  -0.6301553   0.7185869   0.0805226   0.2146488  -0.0466866
   1.2805986   0.0697764  -0.8180813  -0.1051449  -0.7379475   0.1855957
  -0.0533799  -0.0680336   0.1035762   0.7394185   0.8174733   0.8047442
  -0.0683174  -1.5480261   1.2901935  -0.0774057  -0.0670944   0.1685715
   0.6408243  -0.9739410  -0.4937481  -1.0129910   1.4478204  -0.0216977
  -0.2384082  -0.0919210  -0.3298493  -1.0839589  -0.7352871   0.1310390
  -1.2228512  -1.4062685  -0.9859717  -0.1440150   0.3054516   0.0783701
   0.0216658   0.3077940  -0.6908586  -0.7697894   1.5018676  -0.7962190
  -0.4467367   0.2237784  -0.0222845   0.6344569  -0.5249136   0.7956790
  -0.8049474  -0.1865306  -0.7792954  -0.3288354  -0.0912671   0.0693436
   0.9574272   1.1934479   0.9514232  -0.1382911   0.1750191  -0.3579795
  -0.0708838   0.0177152   0.0610759  -1.4958072   0.2219237  -0.6447334
  -1.6741809  -0.6110346   2.1079438  -0.1538886   0.2105428   0.0604046
  -0.4925720   0.9892326  -1.1192394   0.8941176  -0.0635444   1.2801091
  -0.0661823  -0.0861829  -0.0636381  -0.0717055  -0.6805784  -0.9755879
   0.5247104   0.0811960   0.0962780  -0.1359856   0.1693074  -0.2406986
   1.8906960   0.5015885   0.6483371  -1.4826393  -0.0001040   1.0327559
   0.1397897   0.0618442  -0.1202003   0.7997675  -0.8488859   0.3242124
   0.2784632   0.4342433  -0.0378770  -0.3904323  -0.0229537   0.2084505
  -0.5819111  -0.1173990  -0.6667412  -0.0188035  -0.4958694   0.0844565
  -0.0406465   0.3579214  -0.1325937  -0.8698464  -0.5119767   0.5773425
  -0.3701498   0.6257134  -0.6433100  -0.2089610  -0.0795685  -0.0282755
   1.3437443  -0.5073113  -0.8045032  -1.6179318   0.2703072  -0.2458442
   0.2449046   0.0162067  -0.1966334  -0.3474881  -0.7054369   1.0005707
   0.4574293  -0.8945719   1.4343469   0.0038793   0.0704762   0.1802902
   1.2702683   1.4070413   0.7829859  -0.5557201   1.0151511   0.0253911
  -0.0083648  -0.0118696  -0.2261899   0.5646098   0.3499064  -0.6269476
   0.3694870  -0.5084903   0.1592768   0.1292322   0.2167664   0.1871652
   0.8713848  -0.2303387  -0.3591890  -0.5433389  -0.1587207  -0.3329387
   0.1696243  -0.1181446  -0.3060014   0.2810557   1.0543508   0.5131346
   0.5065666   0.2661404  -0.1344212  -0.1727267   0.0499843  -0.1343456
   0.3023962  -0.3559100   0.1794725   0.4154497  -0.1076050   0.1144645
  -0.2984616   0.1766125  -0.1149674   0.7725740   0.8263352   0.7013817
   0.2094994   0.4664699   0.1395135   0.1084620   0.1468791  -0.0785777
  -0.7808751  -0.5358488  -0.3339869  -0.0613711   0.4128764  -0.8906493
   0.0694036  -0.1040573  -0.3838631  -0.8621287   0.8088831   0.6916971
   0.1037807  -1.5352640   0.8592746   0.0491130  -0.5226211   0.2991597
   0.4099375  -0.7501569  -0.6765337  -0.7423422   2.4322536   0.6558407
  -0.2846783  -0.0814915  -0.3012186   0.3594161   0.3202073  -0.1285739
  -0.6521228   0.3983558   1.9637359  -0.2913727   0.2248006  -0.1967012
   0.3810459  -0.4019922  -0.1488386  -0.6344904   1.0908792  -0.3439303
   0.1259993  -0.1409824   0.0652653  -0.7797458  -1.6532913  -0.3125749
   0.1883531   0.2981811   0.4719956  -0.0505494  -0.0991218  -0.1350353
   0.5151891  -1.1878206   0.0502159   0.3510325  -0.1611462  -1.1859829
  -0.2832038  -0.2963293  -0.1112825   0.2431109  -0.4502273   0.6267595
   1.4268792   0.1554219   0.7921533  -0.0380832   0.1760102   0.1996793
   0.3286575   0.0848125   0.8555319  -2.4963235   0.6979451   0.1939728
   0.0455992   0.1689134  -0.2033655  -1.6894697   0.6785987  -0.3166100
  -0.1038721  -1.3272480   0.7362885  -0.0619147  -0.3077400  -0.1042100
  -0.4107087   0.0917783   0.6305955  -0.8286474   0.7206951   0.5377775
   0.1088553   0.0608146  -0.0333237  -1.0958022   0.8081138  -0.9832409
   1.4504142  -0.0140359   0.2414643   0.1588430   0.3334093  -0.0548033
  -0.9135763  -1.3327743   0.3590526   0.4994393  -0.1989149   0.1228044
  -0.0540060  -0.1565378  -0.4668316   0.5359987   0.4655516  -0.4936126
  -1.1098127  -1.2216089   0.0977197   0.1522472  -0.1318313  -0.0670433
  -0.1472747  -0.4064333  -1.9124844   0.0328745  -0.1346268  -1.5370507
  -0.2196759  -0.0295548  -0.1843350  -0.0821899   0.5131023  -0.7719276
   0.7635542  -0.8903222  -0.6656043   0.0292359   0.1167352   0.1613326
   1.0623170  -1.1700105   1.2383685  -0.7974538  -0.4927125   0.2644065
   0.2139535   0.0514167  -0.3627723   1.1075459  -0.1231299  -0.4054127
   0.0887746  -0.9857383  -0.2623893   0.0742815  -0.0292425   0.0876559
   0.4358279   1.3636909  -0.7602570  -0.2879369  -1.4010831   0.5093847
   0.0109583  -0.1856509   0.1088982   0.7617489   0.4946897  -1.8238670
   1.7407349  -0.5640823   0.5579927  -0.1923485   0.2403018  -0.1116086
  -0.1618792   1.1748812   0.2611991  -0.3134990  -1.4335282   1.1895354
   0.0978115  -0.0094137  -0.0965638   0.5983509  -0.1021370   0.0266964
   0.3330764  -0.3416184   0.1715395   0.3063979  -0.3042865  -0.1447200
   1.1187555   0.0296393   0.0596423   0.3531690  -2.1911983  -1.4617735
   0.2607539   0.0646197  -0.0927434   0.0007593  -0.0571729  -0.4173499
  -1.4480435  -0.2210283  -0.0351877  -0.1293903  -0.0938268   0.1772049
   0.7194888  -1.2056719  -0.1536792   0.0310515   0.9432580   0.8905397
   0.0724620   0.2474612   0.1839092  -0.9260944   0.3341532  -0.4807594
   0.6499825   0.9966854   0.3754934  -0.0007718   0.1103331   0.0574691
   0.0567326   1.5689987   0.5822080   0.2680847   0.3443538  -0.2504284
  -0.2422915   0.1834242  -0.1153440   0.6666244   2.3159035  -0.4729888
   0.9390978   1.7124236   0.6645178  -0.0948063   0.1492323   0.0095102
   0.6025242  -0.2300520  -0.2613850  -0.0955559  -1.9458931   0.8908131
   0.0992262   0.1897414  -0.2376584   0.3291116  -1.0178523   0.3853355
   0.7714376   1.3670513   0.2221460   0.2152633  -0.4424971  -0.0611329
   0.6490165   0.5731361   0.8198852  -1.7027392   0.2521714   0.6031272
  -0.0622950   0.1452977   0.1592057   0.7698047  -0.6646325  -0.0387318
   0.2250533  -0.1586668   0.4830423  -0.1225052   0.1193269   0.0717367
   0.6385978  -0.3107400   0.6000394   0.5990507   0.9422749   0.0058423
  -0.0314134   0.2840191   0.2538237  -0.1221422   0.7239202   0.9325772
   0.1088744   1.0288868   0.0710419  -0.1994547   0.0370656  -0.3640730
  -0.8316863  -1.5053975   1.4206868  -0.9005705   0.2538013   1.0181545
  -0.1898670   0.3013480   0.1066749  -0.9217665   0.8990643   0.3422713
   0.6147990  -0.6098323  -1.7264749  -0.2269218  -0.1471558  -0.0988084
  -0.4804979  -0.3633437   0.2569770   0.1328452  -1.4725751  -0.4629000
  -0.0913352  -0.0797141   0.3047461  -0.3069522  -0.2345843   0.4776200
   0.5958792   0.6230491   0.8106642   0.2172802   0.1063203   0.2169328
   0.4022805   0.1422947   0.4975408   1.5448063  -0.2944055  -0.3462967
   0.2844683  -0.1963442   0.2504143  -1.4552192   1.0659648  -2.0693750
   0.1724751  -0.4098356  -1.0942763   0.1705533   0.0267451   0.0995992
  -0.1305602   0.8887620  -1.9601702   0.5807217   0.0747801  -0.1376267
   0.2625506   0.2245313   0.2719477  -1.2414538   0.5243486  -0.3958158
  -0.6344644  -0.3037165   0.2135642   0.0003763   0.0092723   0.4160615
  -0.7122328  -0.1868430  -0.8814942  -0.3287268  -0.7205974  -0.3792206
   0.0449891   0.2084559   0.0902821   1.1683168  -0.1615345   1.9565775
   0.1694060   0.2405226  -0.8870469  -0.0306202   0.0316049   0.0832819
  -0.8546068   0.7756792  -0.6937904   0.8655913   0.7966192   0.5342989
   0.1513443   0.0317452   0.0585936   0.9743960  -0.2692346   0.9161143
   0.0761194  -0.7647950  -0.6336063  -0.2281814   0.1203905  -0.0882445
   0.7719297  -0.7062624   0.2341838  -0.4068420  -0.8063017   0.6909221
  -0.0294735   0.1105545  -0.0572654  -0.1007885   0.7641451  -0.5294787
   0.6129757  -1.7064372  -0.0739236   0.2975473   0.0611012  -0.2283508
  -0.5687459  -0.6149788   0.7668683   1.4954589   0.7412555  -0.1395173
   0.3454756  -0.1498266  -0.2290588   1.7214424  -0.9446174   0.4564163
   0.8824713  -0.2708978   0.4654380   0.4292665   0.0679577  -0.1139983
   0.3297959   0.3774526   0.2929618  -0.1527482   1.7753145  -0.3759700
   0.0861165   0.2479494  -0.1972174   0.5231286  -1.6740521  -0.2208415
  -0.7143126  -0.1202053   0.8508485   0.0592601  -0.0412474  -0.1796139
   1.2084454   1.2516154  -0.6159292   0.3386515  -0.2118187  -0.3931972
  -0.1578075  -0.0564104   0.0798346  -1.2295351   0.9835120   0.7084177
  -0.5971026  -0.3250779  -1.0870848   0.2802920   0.2143252  -0.1227191
   0.9230919   0.6137241   0.0537527  -0.5985946   0.1999637   0.1537547
   0.2264212   0.1368146   0.0143021  -0.5441776   1.8410880   0.3027902
   0.4327293   0.9599955  -0.6133703   0.1283546   0.0879162   0.2200747
  -0.9763865  -0.3385885  -0.1488729  -0.3933818  -0.7629426   0.2765130
   0.1700787  -0.0049602  -0.0833360  -0.2299553   0.8982438  -0.7783834
  -0.0636785   0.3331028  -1.4072870  -0.0618921   0.1322637   0.1154056
   0.1360157   0.2549551   0.7105713   0.1829721   0.8914628  -0.5684517
   0.1096472   0.0928130   0.1687947   0.2071292   0.6607940   0.6149894
   0.0426833  -0.2174002   0.1226804  -0.1517378  -0.2217804   0.3114902
  -0.7743481  -0.9570123  -0.3980098   0.9838298   0.2307623   0.9312010
  -0.2110058  -0.1216485   0.3259236  -0.3549081  -2.2985125   0.3870023
   0.7227567   0.4462195  -0.9672320  -0.2107201  -0.3150981   0.2122959
   0.0326887   0.1140425  -1.0332573  -0.3330467   0.9613618   0.9184082
  -0.4268942   0.0183357  -0.3286788  -0.4532226   0.6694212   0.6489610
  -2.1648975  -0.3088038   0.2954351  -0.0963851   0.0254762   0.2964293
   0.6408748  -0.7616855  -1.6414926  -0.0545060  -0.2122625   0.4246432
   0.2722034   0.1537599  -0.2663399  -1.0712247   0.6643005  -0.3332228
  -0.2529500  -1.5079116   0.9016946  -0.0788838   0.1142737  -0.0200712
  -0.2861876   1.1954843  -0.4844864   0.1534305   0.8826638   0.4663867
   0.4334386   0.0690122   0.4110961   0.6355114   0.5896457   0.4213630
   1.2262301  -0.1883130   0.4427524   0.1328533   0.2322509   0.1300220
  -0.9674168   0.6380512   0.9380207   0.3462156   0.5499187   0.7491438
  -0.0214654  -0.3143000   0.0788031   0.2721902   0.3836192   0.0293164
   0.5517537   0.5939504  -1.6647190  -0.1979024   0.1359698  -0.3042530
  -0.5258396   0.2646679   1.1880714   0.5857970  -0.5142675   0.4769648
  -0.0362872   0.3302598  -0.2282237   0.5666165  -1.0286031   1.3222044
   0.0760372  -0.2624359  -1.1232422   0.3844293   0.0772764   0.0782372
   0.1465351   0.6047307   0.1799173   0.8166897   0.1566789   0.5463645
  -0.0912197   0.0191632   0.4004168   0.1654830  -0.1726914  -0.8113025
   1.5875695  -1.4408786  -1.5366053  -0.1726968   0.2404676  -0.0446249
  -1.9843852   0.5558031   0.4189212   0.0222514  -0.5083365   0.8515767
   0.2366267  -0.0775845  -0.0562065   0.2169412   1.4032395  -0.5867657
  -0.2594142  -1.2313036  -0.7183371   0.4476732  -0.3200474   0.1285379
   0.0786925   0.3472264  -0.6138961   0.1164063   0.2940785   0.1683451
  -0.0865412   0.0711557   0.0691274  -0.0417726  -0.4756081  -0.2822610
  -0.3319190  -0.5302198  -0.5808264  -0.1701849  -0.2551814  -0.2455441
  -1.0021532  -0.6871664   0.0382705  -0.2408669  -0.4834777  -0.5153648
  -0.1184272   0.0546217  -0.0751945  -0.8150096  -0.0662023   0.6129753
   1.1869207   1.2265720  -0.8890723   0.0819808  -0.3222358  -0.0156354
  -0.1917606  -0.1991722   0.5264664  -0.1747336   1.7991016  -0.5174538
   0.0912318  -0.0431736  -0.1375928   0.5748405  -0.8142930   0.8843252
  -0.1201214   0.0476539   0.0169884  -0.0909264   0.2447954  -0.2149305
   1.0813543   0.0065288   0.8723385  -1.1558028   0.7045576   1.0271098
  -0.1612208   0.0748680  -0.2849349  -0.0145271   2.0007882   0.4600960
   0.7798543  -0.3353311   0.9735970   0.1688546   0.0897508  -0.0614248
  -0.7926080  -0.5380317  -0.1210032  -0.5767854  -0.4333521  -0.2730573
  -0.0386625   0.0699120  -0.2114909   0.6018051  -0.1503062  -0.1593937
  -0.6674170  -0.4105600   1.1624791   0.2793804   0.5756517  -0.3295926
  -0.5485294   0.0660800  -0.6023489   0.5398262  -0.8640780  -0.1553728
   0.4584601   0.2568074   0.3589897   0.3968708  -1.5271095   1.3849585
   0.1162523  -0.2450674  -0.5044974  -0.1449699   0.2434180   0.0434890
   0.6192700  -0.4914419   1.8758601   0.5742185  -1.0849600  -0.0961433
  -0.1443607  -0.2439411  -0.0724406  -0.3675609   0.3736342  -0.0324627
   0.1043613   0.5339567  -0.0353357  -0.0662894   0.3908136   0.0208551
   0.6803328  -0.0970140   1.2179805   1.0074077  -0.6268357  -0.8265984
   0.3922238  -0.0583343  -0.0593634   0.8862180   0.4379847   0.3394945
  -0.0815666  -1.0976020   0.1828226  -0.2171564  -0.0136209  -0.0629089
  -0.5726230  -1.1636178  -0.1020969   1.9044029  -0.9833724  -2.2171083
  -0.1830110   0.4124181  -0.3093566   0.6038360  -1.2326901   0.0329551
   0.2233223   1.5251628  -0.1726429  -0.2121946  -0.2097854   0.2627530
  -1.4997695   1.2953722  -1.0694606   0.8245675  -1.4443121   1.4343676
   0.2977627  -0.0660683   0.1567882   0.4371887   0.0115602   1.0096959
  -0.1633837   1.0563069   0.7475436  -0.0281074   0.2672582   0.0459557
   0.6869609   0.3897736  -0.1159657   0.2967884   0.0094829  -0.3743558
   0.2114141   0.0674990   0.1021071  -1.1377775  -2.5112996  -1.4937147
   1.9463617   0.4016784   0.5466779  -0.1766267  -0.3210185  -0.1363677
  -0.5432107  -0.2322534  -0.7669017  -0.1785425   1.4663083  -1.1466771
   0.3047286   0.0652533   0.5110864   0.1247201   0.2322561   0.1646242
   0.1600367  -0.6772576   0.4777192  -0.1398002  -0.1896867   0.2133587
  -0.3066268   0.1642413  -0.5686905   1.1578613  -0.2536231  -0.7800931
  -0.1052571  -0.3073034   0.1611034  -0.6464191   0.6250700  -0.3977220
  -0.5925546  -0.4791347   0.3766178   0.0353367   0.0889906  -0.0762876
  -0.9352063   0.6032438  -0.6198993  -0.6038706   0.7282425  -1.0362382
   0.2811689   0.0061197  -0.0509352  -0.9149793  -0.3200311   0.1750627
   0.1141880  -0.8997866  -0.8887049  -0.0346858   0.0431656  -0.1276431
  -0.2229896  -1.1414254   1.6793198  -0.8362767  -0.0175168   0.5962716
  -0.2573631   0.0553942  -0.0857728  -0.6002058  -0.3832706   0.2530662
  -1.2469371  -0.0522320  -0.6499215   0.0010983  -0.2864811  -0.0020757
  -0.4975789  -0.9913030   0.6688915   1.2145210   0.0921822   0.0284496
   0.2370642  -0.0905228  -0.2287180   0.7622636   0.6714169   0.5599655
  -0.1805481  -1.2693175  -0.2753626   0.1540372  -0.4604307   0.2599655
  -0.1381770  -0.4220619   0.1576920   2.3048804   0.0021716  -0.1480651
  -0.0533907   0.0094550   0.1453570  -0.1689228  -0.9803320   0.6310410
   0.4167247  -0.9565249   0.8698284  -0.1680531  -0.0735518  -0.0012687
   1.1333650  -0.8190296  -0.3282894   0.1942875   1.1751834  -2.0595974
   0.2223840  -0.1921190  -0.1175879  -0.4081240   1.3875901   0.6198279
  -1.6166364   0.2303286  -0.1029453  -0.1928164   0.0708038  -0.1743371
  -0.9216196  -0.0371148  -0.0060175   0.7489424   0.0664914  -0.4235547
  -0.0381952  -0.0339801   0.0621590  -0.2558651  -0.1978529  -0.6998490
   0.4298932  -0.3821472  -0.0865966   0.1120831   0.1674445   0.0232873
   0.4212669   0.7260393   0.4442828  -0.9915741   0.1199854  -0.2253051
  -0.0287973   0.0216806  -0.0756044   0.3015446   0.1982049   0.5505204
  -0.6490246  -0.3518244  -0.5411007  -0.3442814   0.2662266   0.0586377
  -0.0628604   0.8468420   1.1072198   0.1921231   1.1489392  -0.3376033
  -0.2044144  -0.0947132  -0.0385759   0.0306113  -0.4364260  -0.4111766
  -0.4283019   0.9842080   0.1994221  -0.0171927  -0.0298098  -0.1633685
   1.0771674  -0.7472317   0.1957774  -0.3217527  -0.5581944  -0.0749603
   0.2103437   0.0570987   0.0599804   0.6491088  -0.1596467  -0.3569083
   0.2510796   0.8387316  -1.3151874  -0.3521611  -0.0633371   0.3812718
   0.7711545  -1.0303596  -0.5512035   1.8798505  -0.9520034  -0.8009726
  -0.2522617  -0.2089253  -0.0627010   0.4823286   0.0094096   0.9296498
   2.1064273   0.2911389   0.1302445  -0.3445243   0.0696993   0.1731922
   1.9353001  -0.1929308   0.0123215   0.2843253  -0.5072271  -0.4198354
  -0.1141929  -0.1817162  -0.0033650  -1.0047635  -0.2578879  -0.2401359
   0.8375425  -0.0893492   0.8547523   0.1232254   0.1426687  -0.1486840
  -0.5837739   0.6442499  -0.0666909   0.7418232   1.1288695  -0.8335315
  -0.0136357   0.0224734   0.2341838  -0.2728670   1.2639769   0.2017271
   1.1902954   0.9776370  -0.9736072   0.1716763  -0.2457172   0.0923556
  -0.3676631   0.1900909   0.4948146  -0.7459757   1.2841637   1.1091277
  -0.1583698   0.2423887   0.0476077   0.0997037  -0.1870686  -0.6307777
   0.3617367  -0.1052493  -0.4226488   0.3453504  -0.0513999  -0.0397421
   0.1067465   0.0923852  -0.0005527   0.8259795  -0.4770151   0.1627591
  -0.0750966  -0.1433845  -0.4691437  -1.0065568   1.0888851   0.2417811
   0.2423355  -1.3518836  -1.0554798   0.1806141  -0.0282780  -0.0613851
  -0.4842509  -0.1124019   1.3637249   1.5593544  -0.3518174   0.2298422
   0.1999573   0.0707364  -0.2685282   0.3536780  -1.2494949   0.2676248
  -0.8289854   1.6602558  -0.4478229  -0.1840392  -0.2381540   0.1164814
   0.2210349  -0.2914663   0.6565609   0.0098273   0.6052199  -0.0102252
   0.1572703  -0.2108851  -0.1132490  -1.0246345   1.0416163   0.0551786
   0.2571945  -0.5958163   0.3414183  -0.1729123  -0.3472618  -0.1803021
   0.8662219   0.6302114   2.2189648   0.6448961   0.1394686   0.6246103
   0.0068789  -0.3941661   0.1696397  -0.4190030  -0.4763073  -0.9445088
  -0.5169973   0.7300661   1.2459653  -0.0183630  -0.0510168   0.2868003
  -0.0446724   0.8082324   0.1969881  -0.1514407  -0.7754697  -1.0903124
   0.1182005  -0.1841376  -0.4761648   0.0606781   0.0112494   0.1654178
  -1.0622063  -0.0867305   0.0544869  -0.0235095   0.1885891   0.1445368
   0.0223232  -0.3454909  -0.4158857  -1.4122729   2.0209476   0.7841879
   0.2801302  -0.1039299   0.0914402   0.4779813   0.5980734  -1.1418446
  -1.4049209  -0.1673738   0.7247575  -0.1562433  -0.0466119   0.0855831
   0.2169277  -0.0890427  -0.8452876  -0.3077186  -2.1670323   1.2260962
   0.0711375  -0.2454412   0.1834106   0.0702329  -0.1009108   0.7194985
  -0.3025385  -0.9832456   1.5826369   0.2639218  -0.0327193  -0.1269138
   0.3343382  -0.7911784   0.3398828  -1.4007737   0.0780106   0.2149115
  -0.2462130  -0.0806515   0.0394538  -0.5857578   0.3901790  -0.3572779
   1.0148825   0.5722233  -0.0896438   0.1917651  -0.2142477  -0.3923883
   2.2710411  -0.4420965  -1.1095090   0.4492267   0.9321786  -0.0480342
   0.0370275   0.0747086  -0.0722527   0.9023035  -0.4298801   1.3391347
  -1.0450957  -0.4922376  -0.6116637   0.0816216   0.1809967   0.0130614
  -1.1629951  -1.6526986   1.4403208  -0.5697130  -1.1182897  -0.9062598
   0.2604551   0.0709716   0.1483636  -1.3245918   0.3033287  -0.5116111
   0.5875407   0.1272839  -0.6665087   0.1078494   0.5490243   0.1971000
  -0.0354702  -0.0924684  -0.1678471  -0.8824235  -1.1450918   0.0447164
   0.5002591   0.2569285   0.1431008  -0.2454599  -0.0303790  -0.7647215
  -0.0339710   1.5015194  -1.2323930   0.2391544  -0.3869056  -0.0618091
   1.2842066  -0.8852003   0.4655472   0.4399348  -0.4982232   0.1994350
  -0.0882715  -0.0730507   0.4307414  -0.6354653   0.0118468  -0.6178424
  -1.0600796  -0.2597197   0.1714984  -0.1941096   0.1044504   0.0727244
   1.3972187  -0.6854568  -0.6410826   1.1281529  -0.4321275  -0.2636443
  -0.2529181  -0.0378483  -0.4342361   0.4962414  -2.0340245   0.5968159
   0.2594071   0.5751285  -1.4296636  -0.1374268  -0.3423105  -0.2153153
  -1.3973434  -0.8647610   1.7210266  -0.6677665  -0.8152197  -0.4777839
  -0.0578145   0.3378030  -0.1233147   1.0357246   0.8012442   0.1585416
  -0.9760977  -0.7542950  -2.0144681   0.0799100  -0.1534411  -0.3255831
  -0.4369416  -0.4496953   0.1500801  -1.3180880   1.0418433  -0.9081689
   0.2280810   0.2238498   0.2502555  -0.6285180  -0.0888560  -1.0753186
   0.1235817   0.6893377  -0.8836789  -0.0600502  -0.0962486  -0.0154373
  -1.2186246   0.7072937   0.2534205   0.5478973  -0.2055240   0.0905435
   0.1850469   0.0774926   0.2159052  -1.2077841   0.7173325  -1.0269375
  -0.3775277   0.6651929   1.8251992   0.2015452   0.0440684   0.1185524
  -0.3241387   0.8229866  -0.8373010  -0.4505142  -0.3562113  -0.4926312
  -0.2066295  -0.1403884   0.1197668  -0.7718786   0.7881412  -0.8297090
   1.2430431  -0.1201493  -0.3731837   0.0354842  -0.0239510  -0.0052369
  -0.2656752   0.1497342   0.7880037  -1.0524983   0.8351382  -0.1609034
   0.1351432   0.0294825  -0.0217942  -0.8087904   0.0422725   0.7601072
  -0.0500060  -1.4875578   1.1825143   0.1610473   0.0851037   0.0798968
  -0.2744262  -0.8492071   1.0877811   0.0589719  -0.5521499  -0.0819808
   0.0596104  -0.1493993   0.1766946   1.0751986  -1.6901000   1.1899332
  -3.0440962  -0.1934729  -1.0277996   0.3379023  -0.0378182  -0.1142378
   0.1508724  -0.9334507   0.2370708   0.4755261   0.0598853   1.2352431
   0.1544783   0.0816900  -0.1704401   0.5220105   0.4261468   1.5841131
   0.4659436   0.0803073   0.4813164   0.1779608  -0.0357235   0.1906544
   0.2906849  -1.6333787  -1.2439003  -0.4120466  -1.2428193   0.5883817
  -0.5226795  -0.1810678   0.0539080   1.3310718   0.1868264  -0.5725057
  -0.0960796   1.1294975   0.7893197  -0.0833833  -0.1916518   0.1466508
   0.5905175   0.8109850  -0.8123677   1.2979128   0.3808426   1.1553950
  -0.2319026  -0.0220892   0.0883252   0.3110872  -0.5066515   1.4875883
  -0.7024001  -0.6701712   1.1692000  -0.0139870  -0.0406928  -0.2690550
   0.3039514  -0.8602862  -0.0316296   0.0708537   0.9918865   1.3281254
  -0.0564393  -0.0194962   0.5035301  -1.0391612   0.6271157   0.6850246
   0.2810730  -0.5693732  -0.7534666   0.1627549   0.1587636   0.1873199
   1.4200781   0.0495377  -0.1206390  -0.3604747   0.6063241   0.7038904
  -0.4494825   0.0700343  -0.0454849   0.3774155  -0.2517506  -0.2328206
   1.0518670  -0.1989603   0.8703365  -0.0566395  -0.0840331   0.1516375
   0.0180904  -0.4126904   0.1460956  -0.1934783   0.4320557  -0.3060850
  -0.0899456   0.1201467  -0.1361091  -0.7324406   0.4327343   0.4017309
  -0.2225378   0.1966313   0.3770363  -0.1608509  -0.0524675  -0.3077147
   0.1229062   0.2113924   0.1166977   0.6478430  -0.6861793   0.4436585
   0.5065318   0.2341957  -0.1419965  -0.5574403   1.1965985   1.0583066
   0.4844067   0.5677061  -0.4170148  -0.0764962  -0.0928131  -0.2974565
   0.6389085  -0.4493266  -0.5940402  -0.4079214   0.5300896  -0.1708131
   0.0815356   0.4187918  -0.0685263  -1.4800319  -0.4422688   0.7002339
  -0.3365443  -0.3993640  -0.8666979   0.3769517  -0.3112472   0.2619857
  -0.0190534  -0.2633431   0.3851474   0.4285086   0.7683810   0.5981412
  -0.0598684   0.2168315   0.1308176   0.5156299  -0.6641295  -0.2522549
  -0.6880806   1.5132363  -0.4630286  -0.1735444   0.1228366   0.1777631
  -0.6055738   0.9000207  -0.0247038  -0.3491317   1.2009537   0.5892022
  -0.1126592   0.2158608   0.3024060   0.5403940   0.1888187  -0.5668731
   0.5025468  -0.7835761   0.7734331  -0.1489123  -0.1523493  -0.3486349
   1.0522825   0.8243475  -1.2515777   0.0108777   0.5489480   0.8635226
  -0.0894243   0.0825053  -0.1641345  -0.6466297  -0.8596136   0.0215734
  -0.2601862   0.2239636   0.9093445   0.1598631  -0.1322892  -0.0991260
   0.9693685  -0.6650225   1.1109842   0.4335486  -0.2541590  -0.5254201
  -0.0929796   0.6491606  -0.0443486   1.2177645   0.0086670   0.2584974
   0.4038579  -0.1840241  -0.1554540  -0.0404052   0.3241042   0.3112268
   1.3163400  -0.2998520   0.8101636  -0.0275123   0.2668132   0.4980856
   0.0237498  -0.1634110   0.2758670  -0.4826248   0.6418335   0.9996193
   0.2836813   0.5103651  -0.6927473  -0.0807309  -0.1756270  -0.2945610
  -1.7262720  -0.1719196   0.1466922   0.3158566  -0.2729076   0.8915479
   0.0094255   0.2614474  -0.0251360   0.0607307   0.2990506   0.1851483
   0.2577482   0.4640859   0.9238971  -0.0036679  -0.1518317  -0.1577613
  -0.5052198   1.3107759  -0.1418434  -0.4890344  -0.7340585   0.6467936
   0.1584630  -0.5417787  -0.1600622   0.7863766   0.2276589   0.9476964
  -0.5429522  -0.1259679  -0.4456731  -0.3565907  -0.2384194   0.3027131
   0.6313624  -0.0231618   0.6999672  -0.4179435  -0.4203530  -0.2682524
   0.0743360   0.1564448  -0.1199443  -0.6026904  -1.8254112   0.3789640
   0.5993825  -0.9127701   0.7288254   0.0386203  -0.3157575   0.3686814
  -0.1613929   0.4041718  -0.8016503  -0.4460981  -0.3767259   0.0609574
   0.1513114  -0.0404356   0.0028382   0.8361352   0.1775835   0.1231063
  -0.4482065   1.1174722  -0.1821141  -0.2222334   0.2130673   0.0464087
   0.3339544   0.3545105   0.0416449  -0.8618183   0.4722793   0.2227401
  -0.0999057   0.0710502  -0.0240277   1.0082174   0.2376814  -0.1364026
  -1.0452553  -0.5724276   0.2762671   0.1382145   0.1974191   0.1173400
   0.6587813   0.7870493  -0.5488574   0.6475974  -0.3604761  -0.1756430
   0.2591635   0.0980139   0.2005597   1.0063766  -0.6790724  -0.0884028
  -0.3582163   0.4064473   1.2984467   0.1103805   0.1108773  -0.0517762
  -0.3747536   0.5469845   0.9562732   0.3926570  -0.6110970   1.4458596
  -0.0205815   0.2814243  -0.1722938   0.1067331  -0.8794236   0.5133737
  -0.0361866   0.2629048   0.1157799   0.0536912   0.0364313   0.1364626
  -0.6760923   0.9866081  -0.3015332  -0.6491058  -0.7760829  -0.9869718
   0.2799880   0.1443530   0.2066206   0.8945123   0.1513738  -0.3395910
   0.1217318   0.1992626  -1.1299600   0.1179082  -0.1530761   0.0172026
  -0.5728124  -1.7646711   0.7676814  -0.4024797  -0.3890405  -0.7524906
  -0.0472688   0.0540147   0.1839538   0.8677930  -0.8949199  -0.2110698
   0.1577982   0.6082589   0.7401371  -0.2179838   0.0085295   0.1792901
   0.9937443  -1.0892928   0.9613451  -0.2635003   0.6113780  -0.2687851
   0.0673703  -0.1217668  -0.1726391   0.0361786  -0.1195110   0.1084848
   1.2342654  -0.4610027  -0.1551073  -0.3293639   0.2021226   0.4494718
   0.9813308   0.1839367  -0.5391581   0.4309551   0.7607441  -0.9763997
  -0.2529869   0.0978012   0.2003143   0.2473302  -1.3925602  -0.1267066
   0.3542247  -1.2522223  -0.0719169   0.0156736   0.0434899  -0.2096816
   0.2212903   0.3997648   0.4472895  -0.3728435  -0.3488499  -0.1224446
   0.3677016   0.2541833   0.1537841   0.2030427  -0.9237161   0.5442857
   0.1175651   0.1306384  -0.5588802  -0.0511100  -0.2197512  -0.1214069
  -1.2056434   1.0893737  -0.1928386  -0.7140006   0.1590784   1.4003117
  -0.0737328   0.1657911   0.2109675  -0.6926222  -0.6507894  -0.5980583
  -0.5299557  -0.0988891  -0.2236043  -0.0618912  -0.2565026   0.1104982
   0.3468632  -0.1693441   0.6044504  -0.4132240  -0.4913518   0.0883135
   0.2700064  -0.1732430  -0.0311919  -1.4892392  -0.7569229  -0.3982832
  -0.3031896   0.3575413   0.7747653   0.0148642  -0.1442011  -0.0229137
   0.5032767   0.0121524   0.8336250   0.2554480   0.2051456  -0.1234638
   0.4007914  -0.1934648  -0.1722374  -0.6515049   0.7718093   0.4841752
  -0.5152788   0.1661954  -0.0553816   0.1287027   0.2589636   0.1110739
   1.5339312  -0.3247516   1.4445590  -0.6199833   1.1863329  -1.2498185
  -0.0972729  -0.2678897  -0.0847939   0.7642307   0.2116298  -0.1098416
   0.3757434  -0.2029792  -0.0133761   0.1792333   0.0370210  -0.0401791
  -0.5399067  -0.4991899   0.6206810  -0.4480415  -1.3566800  -0.5196360
   0.1936147  -0.2218623  -0.2495436   0.0523838  -0.2430873  -0.2382594
  -0.6233712   1.2757799  -1.1954348   0.0171997  -0.0519057  -0.0873318
   1.0412455   1.2130448  -0.9430610  -1.2625670   0.3498740  -0.3677813
  -0.0110054  -0.2946917   0.0891232   0.1766946   1.7978553  -0.5946244
   0.3764594   0.2145612   0.8756043   0.1197843   0.0175783  -0.2196319
   0.7601481  -0.0773337   1.1873720  -0.2657891   0.5678517   0.1525307
   0.1871589  -0.1380245  -0.0550457  -0.3072403   0.8121731   0.1274600
  -0.5904796   0.1864799  -0.4079445  -0.1931877  -0.1888943   0.1509362
  -0.0061864  -0.7344349  -0.1434180   0.3054889  -1.3534149  -0.8769168
   0.3037306   0.0196585  -0.0497034  -0.7959238  -0.2956038  -0.4573167
  -1.6605116   0.2282750   0.0000598  -0.2018780  -0.0680661  -0.1078202
  -0.3287781   0.7457141   0.3186817   0.2506766  -0.7630301   1.2067614
   0.2620119   0.0073050   0.2940513  -0.8145541  -0.3358293   0.2019254
   0.2371719   0.2620315  -0.8192120   0.0897855   0.0353222   0.2311188
  -0.7104597  -0.6204318  -0.9581917  -1.0381346  -0.9494829  -0.8732729
   0.1617750  -0.1844553   0.1231194   0.8897022  -0.6560515   0.2189909
  -0.3317054   1.1868928  -0.3708203  -0.0144364  -0.0323236   0.3223760
   0.2020039   0.9261546  -1.1710838  -1.5092595  -0.5117455   1.4022247
   0.0668807  -0.3454505  -0.1353440  -0.3661559  -0.0165569  -0.4784464
   0.7538557  -0.5379247   2.2068978   0.3636327  -0.4316496  -0.0115297
  -0.6857081   0.1968937  -1.5893644   0.8601657   0.0214388   1.1082131
   0.0377724  -0.0396724   0.1366020   1.6900229  -0.1066146  -1.4668691
  -0.8368603  -0.5385703  -0.2134758   0.0229401  -0.2196183   0.3220321
   0.5074923   0.8665889  -1.2075043   0.1904398  -0.4249139   0.3972907
   0.2355163  -0.0637250   0.3120145  -0.0103797  -0.9379133  -0.1901192
  -1.1723160  -0.9855489  -0.3278814  -0.4354577  -0.2173106  -0.3508745
  -0.0514856   0.6442875  -0.0445833  -0.5083871  -0.7566364  -0.4518113
  -0.0646023  -0.1287035  -0.1561512   0.8597901   1.6819664  -0.0205138
   0.0365180   1.0608522  -1.1304547   0.0652033   0.1672255  -0.0387451
   0.3529418   1.2339475  -0.9976578  -0.6132258   0.1884498  -0.6594424
  -0.0155332  -0.3197039  -0.0586306  -0.2770361  -0.1256640  -0.2671393
   0.1869838  -0.5794023  -1.3181818   0.1054969   0.1546608   0.1151306
   1.0644098  -0.6800561  -0.4520440  -0.0497509   0.7152729  -0.4005404
   0.0491512  -0.0754978  -0.1086302   0.5353440  -0.0126364  -0.7529366
  -0.3757016  -0.2304074  -1.0148950   0.2971692  -0.0098147  -0.1759807
   0.3806956   0.0108622   0.7087398  -0.1107148  -0.7775130   0.9032340
  -0.0565979   0.1654122  -0.4205223   1.1401975   1.0950538   1.1230954
   0.4536073  -1.3310698  -0.3610889  -0.1540430   0.1388259  -0.2229398
  -0.2890737  -1.0000478   0.2864112   0.4624307  -0.8845420  -0.1771613
   0.3390214   0.1120161   0.0923041  -0.1005128  -0.5007174   0.8298067
  -0.6227069  -0.2882467  -0.4899018  -0.2558985   0.1007983   0.0332597
   0.0024233  -0.1380036  -0.2368242   0.0867067   0.2177323   1.0131548
  -0.0141369   0.0898958   0.3161947   0.9009861  -1.0511853   0.0219233
  -0.3703504   0.2402343   0.4468233  -0.1831963  -0.1006101  -0.3231081
   0.1708197  -0.2779665   0.8561799  -0.3569841   0.5475397  -1.7573318
   0.3413268   0.1802098  -0.0425814  -0.2072494  -0.3330364   0.8072885
  -0.4263188   0.0066490   0.8604753   0.3015185   0.1856840  -0.0537058
  -0.1398551  -0.3816843   0.6375789  -0.3513824  -0.2639071   0.1757420
  -0.0155382  -0.1288423  -0.3962375   0.5214837  -1.4360336  -0.8596402
  -0.5226452   0.1450761   0.2039997  -0.2182976   0.2014071   0.2304317
   0.1285544  -0.1013791   0.6167972  -1.4046324  -0.0948864   0.1649162
  -0.1060615  -0.1780335   0.0898192  -0.9107325   0.0468458  -0.1031198
  -0.8531392  -0.6910194   1.5916450  -0.0119282  -0.3877661   0.4131482
  -0.5009313   0.4219958  -0.4483823   0.0668807  -0.1677671   0.5431759
  -0.0623028   0.1349112  -0.0993013  -1.3441018   0.0853222  -0.5956071
   0.2244704   0.8596809  -1.6966603   0.0005464   0.0040186   0.0899536
  -0.4640145  -0.1836715  -0.3769335   0.1295602   0.6054768  -1.3811140
   0.0879627  -0.1509136   0.0529989   0.5915336   0.6437958  -0.0394956
  -0.0171099   0.5805247   0.1787821  -0.0963552  -0.2320310  -0.1171604
   1.5654211   1.1660170  -1.5001029   1.1740373   0.1202796  -0.7245237
   0.0019486   0.2792544  -0.4535800   0.9136591  -1.2135615   0.3885847
  -0.0913803   0.4498055   0.5859232   0.0169835  -0.1238052  -0.2152577
  -0.9689136   0.2481068   0.7745053  -0.5626386   0.8258761  -2.1089038
  -0.0368743   0.1915897   0.3150248  -0.2210989   0.2160709  -0.4025494
  -0.7581119   0.3672056   0.1244005   0.2569788   0.0596353  -0.2661954
  -0.3703358   0.4638061  -0.9602581   0.3622496   1.0963543  -1.2879752
  -0.0918355  -0.1945643   0.0899445  -1.6398377  -0.7891313  -0.7912036
  -0.2128599   0.6694562  -0.2477289  -0.3537384  -0.0253726  -0.2333157
  -0.0035583   1.4194888   0.1805913   0.0957152   1.6390935  -1.3640806
   0.0489721   0.0415526   0.0147877   2.2463330  -0.7585266  -0.6159708
  -0.8461265  -0.4655078  -0.4650882  -0.0338890  -0.3444526  -0.3480587
   0.6960099  -0.1819776  -0.1807057  -1.6779516   0.5890215  -0.1178039
  -0.1396681  -0.0423400   0.0501294   1.9891933   0.9253460   0.8075552
  -0.1143800   0.4635383  -0.2519157   0.2260631   0.1092100  -0.0542101
   0.2516098   0.4498712   0.8449899  -0.4059143  -1.0802716   0.4257383
  -0.0188982   0.1397706  -0.2799342   0.4280677   0.8314540   0.1551204
   1.0837158   1.2354904  -0.2116151   0.0384595  -0.0536235  -0.1872306
   0.2210312   0.0604136   0.1713799  -0.0958026  -0.3852929  -0.5508424
   0.0371146   0.3827077   0.1488478   0.2149537  -0.1381518  -0.0237385
  -0.4625706   0.7098634   0.2212409  -0.1102788  -0.0047046   0.0439851
   0.2634205  -0.1279741  -0.7788069   0.4826914   0.9315309   0.4458071
  -0.0907824  -0.1309159  -0.0258987  -0.6652581  -0.9457340   1.9155975
  -1.0573104  -1.0646081  -0.3830571  -0.0740919  -0.1753310  -0.0701390
  -0.3488417   1.7644350  -1.2408369   0.9401614  -0.2821999  -0.0975180
  -0.2857655  -0.3469453  -0.2666778  -0.0880059  -0.4438193   0.3393580
  -0.6368171  -0.0611534  -0.9918284  -0.0707255  -0.1189059  -0.2577475
   0.2505525   0.4718472   0.0281729  -0.0460898   1.1857139   0.0467118
   0.0050288  -0.1751142  -0.0577597  -0.4372829  -0.0586170   0.1281743
   0.0932882  -0.2094330   0.1643225   0.1724201  -0.0193466   0.2702473
  -0.3690252   0.1723954  -0.4182874  -1.1803138   0.3250693   0.9718911
   0.4391309  -0.0225141   0.4083832   0.8005100   0.6355073   0.2677623
   0.7280522  -0.3643834  -0.1622649   0.1872525  -0.4202606  -0.3560880
   0.9783546   0.5677298   1.0949441  -0.5602875   1.3482158  -0.0082335
   0.4286288   0.3634602  -0.0049115   0.3094605   1.2685161  -1.6790678
   1.1445227   0.0972025  -0.4149812  -0.1548567  -0.0498340  -0.0534872
   1.3134468   1.0130562   0.4273391  -0.0764900  -1.1630863   0.0874268
   0.1270031  -0.1235467  -0.1491185  -0.1471838  -0.1660235  -0.9415924
   0.1428352   0.2360593  -0.4498888   0.1169850  -0.0732102   0.2233939
  -0.6814504   0.4470081  -0.1620083  -0.8602960  -0.0542187   0.1842758
  -0.0933482  -0.1214123   0.1656103  -0.3004596   0.4722057   1.7872835
   0.5196992  -0.3027580  -1.1132879  -0.2025985   0.3109032   0.2970681
  -0.9253058   1.3941497  -0.1033335  -0.6892803   1.0145198  -1.3283633
  -0.0341254   0.0231764   0.1505826   0.7519181  -0.7035862  -0.4041934
  -0.8991862   1.0353223   1.0251105   0.0992677   0.1693066   0.3614571
   0.0801117   0.9991543  -2.1096951  -1.0630206  -0.0528177  -0.5101495
   0.0224187   0.0808035  -0.3550819  -0.0428930  -0.1820314   0.4108577
  -0.0715842   1.0319522  -0.8483420  -0.2436588   0.0661495  -0.1619047
   0.7112806  -0.2325624   0.3870732  -0.8940806   1.0621742  -1.7051703
   0.0403629  -0.0143196   0.3022491   0.7830752  -0.1752250  -0.1457866
  -0.6752238   0.0784242  -0.1427262   0.0239771  -0.0141248  -0.0282335
  -0.7599837   1.1103978  -0.6496016  -0.2965475  -0.4159836  -0.6240899
   0.2602353  -0.1020453  -0.0241497  -0.8235908   0.6862442   1.1632125
   0.6745969  -0.4092086  -0.3944154  -0.1355254  -0.1751370   0.2044220
   0.2622945   1.0675405   0.8357433   0.1201153  -0.7490804  -0.8124297
  -0.4243313   0.0776777   0.4588841  -0.0071040  -1.2089788  -1.3435098
   0.5603328   1.2192094   0.8928693  -0.0820814  -0.3263318   0.0291914
   0.1715040   0.4876844   0.1254779   0.5789753  -0.3907889   0.9272630
  -0.0097270   0.0512459  -0.1644788  -0.7632283   0.4104377  -0.1803070
   0.7380306   0.3660982   0.7402941  -0.1182456  -0.2492151   0.1405733
  -0.1394162   0.8708093   0.4386438   1.2873352  -0.3652516  -0.7225083
  -0.2474014   0.2839019   0.1931679  -0.0959046  -1.8451837   0.7150982
  -0.2642265   0.0465840  -1.4702372   0.2104478  -0.3596840  -0.2008165
   2.1642718  -1.0822888   0.6530032   0.4539595  -0.4442088  -0.7064665
   0.0218753   0.0402794  -0.0549342   0.6421003  -0.6832002   0.9757230
   0.1368163  -0.2183376  -1.0588830  -0.1633905   0.1804894  -0.2476542
  -0.3424876  -0.8264897  -1.4952717   0.7439268   0.0712004   0.1748056
   0.0332312   0.1842894  -0.1633957  -0.0925126   0.0412197   0.9060937
   0.6828361  -0.5077886  -0.0935406  -0.0379650  -0.0880698   0.0720447
   0.0572757  -1.2592864   0.8273885   1.4292076   0.4980937   0.3416822
  -0.0024890  -0.0867955  -0.1293061   0.1201871  -0.0311196   0.4425488
   0.5540034  -0.7174480  -0.4829032   0.1740526   0.2961395  -0.2231954
  -0.4684341   0.1881309   0.8903847  -0.0297020  -1.0581417  -0.0559739
   0.0507080  -0.2191943   0.0302638   0.5978903   0.5660061  -0.4141790
  -0.2277452  -0.7129683  -0.0971745  -0.2236289   0.2953907   0.1420772
   0.0168061  -1.0528883   0.4676554   0.0846875   0.2126303   0.5071014
   0.0951821  -0.2316921  -0.2662747  -0.3107285   1.2903334   1.1623960
   0.5801859  -1.1364565   0.7569814  -0.0943042  -0.2467331   0.0445021
   0.3483997   0.8534687   0.4222962   0.5468866   0.2276562   0.0731250
   0.3301645  -0.0109924  -0.1983513   0.5481140   0.3773428  -1.2575997
   0.4734875   1.7708343   0.9424398  -0.0369253   0.0237579   0.2024780
  -0.5876191  -0.1481763   1.3416188   0.7918626   0.5510506   0.0423137
   0.1476575  -0.0350890   0.0324231  -0.4431013   0.5993413   0.2253896
  -0.0130846  -0.6596056   1.4194118  -0.0785648  -0.1917319   0.0240427
  -0.0295985   1.2061774  -1.3578289   2.0224190  -2.2275864   0.4277393
  -0.2855007  -0.2999417   0.0510014   1.1541746  -0.3356899   2.2001326
  -0.1796414   0.0404052  -1.7433957   0.0412691   0.2482635  -0.0297052
   0.3195483   0.5720094  -0.0785405   1.2302800   0.5323257   0.5652905
  -0.1435343   0.0294051   0.0695132  -0.5594449   0.9348308  -1.2255194
   0.0729765  -0.6629557  -0.7924718  -0.0739732  -0.0785272  -0.1077730
  -1.1477288   0.6818784   0.5299514  -0.5405593  -0.2734423   0.1440692
   0.2347678   0.3311007   0.1084167  -0.3843416  -0.6921771   0.6297247
  -0.2496644   1.5342996   0.4101962   0.2735022   0.0215065  -0.0926648
   0.8835357  -0.6077613  -0.1821294   0.0917214   0.2098990   0.1214881
   0.0049105   0.2041968   0.0242209  -0.0059142   1.0418662  -0.8947605
   0.3170430  -1.1494865  -0.3708645   0.0726643   0.0791950   0.1406086
   0.1434974   0.4585346  -1.4509303  -0.0099488   0.9642104  -0.7286039
   0.1224594  -0.2348544   0.0788560   0.2025515  -0.4901574  -0.3913012
   0.6708666   0.5194741   0.6620338  -0.1317794  -0.0837803   0.1097885
   0.5336381   0.6904122   0.5297403  -0.3833630   0.9010753  -0.1032911
  -0.1070920   0.1893791   0.0727621   0.3644000   0.6492591  -0.6798960
  -0.9521447   0.0907621  -0.0535808   0.3832091  -0.0010749  -0.0647954
  -0.0624523  -0.6929052  -0.1383975   0.1405281   0.0434434   0.0487442
   0.2328090  -0.0528481   0.1982318   0.4755268  -1.1276602   0.0445447
   0.8154529  -0.2815379   0.2195837   0.0112777   0.0279964  -0.1617801
  -0.5097072  -1.0853389   0.4976268  -0.8054742  -0.2112875   0.7268158
   0.2655360  -0.3144297   0.1068658  -0.8490461  -0.7341462   0.3139499
  -0.5535621  -0.1777309  -0.7604407   0.1340809   0.0641762  -0.3415002
  -0.1952973  -0.9160023  -0.3115952  -1.1989508   0.4787019   0.8187459
   0.1393847  -0.1343855  -0.0609375   0.5720552   0.0549665  -1.3672167
  -1.7559221   0.8877716  -0.6277937   0.1121319  -0.2551727  -0.3890493
   0.0554828  -0.7432939  -0.7157200  -0.0390956  -0.3207066  -0.1690188
   0.0818298  -0.1836147   0.2229620   0.0486955   0.1658359   0.5430612
  -0.0875285  -0.7765361   0.4547052  -0.1336884  -0.2912794   0.1051218
   0.3218472   0.0577607  -0.5595338   0.6507795  -0.4005499   0.1405287
   0.2224731  -0.2096254   0.2292314   0.3685902  -0.3992840   0.1011876
  -0.9964989  -0.8527075  -0.0320112  -0.2675424  -0.4417920   0.0755248
  -0.4825458  -0.3695484   0.4267362   0.3215135  -1.0569300   0.3192672
   0.0486766  -0.1278641  -0.2749070   0.1313363   1.1275825   0.0271907
  -0.3311416  -0.1457775  -0.2293035   0.1020815   0.0370404   0.0495778
   0.0367586   0.4885464   1.4467620  -0.4644781   0.0178641   0.0658961
  -0.1615329  -0.1097448  -0.0351574   0.2256021  -0.9893565   0.8051803
   1.1416828   0.8233822  -0.6679372  -0.0400754  -0.0273233   0.0668692
  -0.5709950  -0.0481186  -0.5889220  -0.2898135  -1.3679082  -2.0545341
  -0.1381699  -0.0432122  -0.1503454   0.2622861   0.9663139   0.5506340
   0.0608994   0.2670510   0.8075736  -0.3542501  -0.4175024   0.4521216
   1.1623704   0.3900768   0.0397880  -1.0438104   0.8633592   0.9590880
   0.0511068   0.4401456   0.4153243   0.3453400  -1.6278720  -0.0096945
  -0.0278288   1.8190607   2.0028054  -0.0950001   0.2479936   0.1563065
  -0.3421806   0.4383616   0.2734844  -0.0007062  -0.4447356  -0.0523408
  -0.0479029   0.1752261  -0.0809713  -0.9315709   0.5835637  -1.1009229
   0.0537654   1.3309237   0.7292075  -0.0403342  -0.1516754  -0.0221144
   0.1359785   0.2051665   0.3131771  -0.4141793   0.6002635   0.6388255
   0.0153276   0.3316310  -0.2051936   0.5765582   1.0221048  -0.0177262
  -1.0539002  -0.3836352   1.2438545  -0.3504605  -0.5506221   0.0074747
  -0.2600240   0.8225715   0.5923676   0.9066905  -0.1592650   0.1196869
   0.0830938   0.0250453  -0.1748767   0.6101383   0.0893056  -0.9735589
   0.9713142  -0.1240669  -0.0546700  -0.3059351   0.2498058   0.2031468
   0.3938952   0.2957654   0.8620342  -0.5099224  -0.6125127  -1.2261342
   0.2344329  -0.2147946  -0.3751380  -0.8433580   0.6287981  -0.8886352
  -0.3194098  -0.0889457   1.1451045   0.0635705   0.2201900   0.2177415
   0.5104380   0.2788923  -0.7759949  -0.1328154   0.1725503  -0.5998464
  -0.2517513   0.0730386  -0.0499936   0.0799023   0.6903461   0.4114782
  -1.0391555   0.3012403  -0.1225176  -0.0828304  -0.0773827   0.4202809
   0.1257823   2.6358564  -0.8416019   2.0044099   1.2948415  -1.6361108
  -0.3214064   0.3397968   0.1419771   0.1798418   0.2729026   0.0272729
   0.8055966   1.4545074   0.9819761   0.1465583  -0.1241628   0.1875620
   1.2791918   0.0584102  -2.1036076  -0.2289614  -0.5575018   0.6411434
   0.0069137   0.0305757  -0.2032215  -0.7377206  -1.0022265  -0.3885904
   2.0866397   0.0792286   0.5562252   0.2338324   0.2110559   0.1943867
   0.9402721   1.1737325   0.3668461   0.5525641   0.3377469   0.7687940
   0.0977799  -0.0813580  -0.1718065   0.7810176   0.0030251   0.9679081
  -0.9347276   0.1785689  -0.7143726  -0.3912528   0.0608175   0.3505074
   0.6656646  -0.0665616   1.6342212   1.2156773   1.0016664  -0.0491578
  -0.0994062   0.2833190  -0.1404818  -0.2356051   0.5361754  -0.1974210
  -0.7737625  -0.3098070   0.3816207   0.0642475  -0.2315879   0.0152312
   1.2287099  -0.6807887   0.7739337   0.5614643  -0.3484300   0.7026145
  -0.0702861   0.0451705  -0.1097311   1.6461502  -0.4621563  -0.0624711
  -1.1571049   0.4243150   1.1432787  -0.2227017  -0.1047528   0.0121607
  -1.1443586   1.3705432  -0.5703692  -1.2640891  -0.4336773   0.3338679
  -0.0710602   0.1030048   0.1270423   0.6092856   0.5179200  -0.1939886
   0.8469563   1.9759626   0.9911089   0.3080266   0.2289570   0.0584184
   0.1060553  -0.5911803  -1.2429350   1.1337485  -0.4770617   0.5417022
   0.1426442   0.2250565   0.0878882   0.3858164   0.9155941  -0.5599706
  -0.0689532   0.3711773  -0.0705386   0.3377158  -0.2023618  -0.1309792
   0.7886394   0.0686959  -0.1814740  -0.1818328  -0.5127948   1.9470292
   0.0739829   0.4892305  -0.0839985   0.1458403  -0.6939172  -0.0180930
   0.3262556   0.1201135  -0.5204611  -0.1648480   0.4889694   0.2179636
  -0.0644320  -1.6136665  -0.1955840  -0.7970257  -0.6292332  -0.0984489
   0.2929048  -0.2551141  -0.0378942   0.3055233  -0.9478073  -0.4562878
   0.4276839   0.2398814   2.0270502  -0.0229409  -0.0162012   0.0272190
   1.2066427   2.5011561  -0.5303305   0.5963235   0.0977803   1.9904984
   0.1658601  -0.2146441  -0.1979571   0.4572671   1.2807076   0.2389344
   0.8308270   0.6179495  -0.3554309   0.1768247   0.1201604   0.2190204
  -0.3499967  -0.4019298   0.3603776  -1.0632508   0.4673221   0.8348824
  -0.1479440  -0.2001876  -0.2809836   1.1454194  -0.4308418  -0.7590027
   1.0558508  -0.1479973  -0.7431786  -0.3183861   0.2625626   0.1334921
  -0.0812065  -0.6899807  -0.5142352   0.5911157   1.1912292   1.0134283
  -0.0885659  -0.2688880   0.1046071  -0.3966688  -2.0143154  -0.0843012
  -0.9205897   0.3626157  -0.6813373   0.1864391   0.1656239   0.0409977
   0.9467628  -0.1919183   0.1841297   0.2584592  -0.7272616  -0.3188259
  -0.1384359  -0.2650218   0.1328074  -0.3205629  -0.8482675  -0.2020175
  -0.1936736   0.2814768  -0.8179422  -0.0091432  -0.1021017   0.0504495
   0.6922763   0.7813141  -0.2110720  -0.1883916   0.5561054   0.3396994
   0.2256413   0.2508615  -0.0024299   0.0896248  -0.9497169   0.9622020
   0.0093550   0.5356951  -0.3042351   0.1417042  -0.0191668  -0.0425482
   0.8920154   0.8159165   0.8784116  -0.4892820  -0.3046471  -1.0794830
  -0.4780836  -0.0702484   0.4861388   0.1745331   1.5527124  -0.4807534
   0.3466390  -0.4694607   0.5333194  -0.1563815  -0.0025862   0.3150657
   0.8451494  -0.5840405  -0.9750521  -0.7212799   1.6321052  -0.8767466
   0.0714670  -0.1840193  -0.1220305  -0.9717428   0.0641204  -0.4739417
   0.3229081   1.3805576  -0.3876827   0.5847630  -0.0264920  -0.0289793
  -0.3171329   0.8483569   1.7884723   0.9606088   0.3247608   0.2538869
   0.2257537  -0.0083677  -0.2321356  -0.8395110   0.4284492   0.2271918
  -1.6154553   0.2695132  -1.2435937   0.1055097   0.2146354  -0.1290670
  -0.6820451  -1.1711823  -0.4379132  -0.2234416  -0.5069315   1.6053209
   0.5351015  -0.1586455   0.2679947   1.4404263  -0.0699466   2.0681612
   0.4071794  -0.5848177   0.6211840  -0.0398955   0.1726869   0.0124602
   1.2201516   0.7316202  -1.0128758  -1.2914449  -1.0682630  -0.1087831
  -0.0217041  -0.3251401  -0.1567929   0.4092664  -0.2156980   0.1474001
   0.4128077   0.4591677  -0.1382704  -0.2099667  -0.1093381   0.3038625
  -0.1534205  -0.7111220   0.3999846   1.2078728   0.7169375   0.6207489
   0.2249480  -0.0575451   0.0062657   0.2329653  -0.3525090   0.6767231
  -0.0035788   0.1431697   0.0977254   0.3062403  -0.3072695  -0.1008693
   0.9906177   0.1887138  -0.0897613  -0.4361661  -0.9889243  -1.5365121
   0.0469858   0.2637002   0.0991395  -0.1992603   0.4733914  -0.5391205
  -0.3186090  -1.2174708   0.8144306   0.1275616  -0.0464191  -0.1956495
   0.0698687  -0.7014558   1.3949823  -0.3976174  -0.4260496  -0.2342601
   0.2527056   0.1733596   0.3440456   0.6080881   0.0612900  -0.1882133
   0.5171412   1.4723618   0.5201284  -0.0547119   0.0512576  -0.2620102
  -0.8695158   0.1047391   1.3911376   0.9727822  -0.1654551   0.4495914
  -0.4608845   0.1946582   0.1028964  -0.3834074  -0.1384787  -0.0267633
   0.2727119  -0.0853108   0.7394122  -0.1680352   0.0547920   0.3786571
   1.2789378   0.2550026  -0.9863300  -0.3446123   0.5979048  -0.5855135
   0.0676791  -0.0674981   0.2115143   1.7738873   0.7760649  -1.1847539
  -1.2686563   0.5324885  -0.0603190   0.1565417  -0.2054363  -0.1724773
  -0.4449711  -0.7228302  -0.5153834  -0.2928313  -0.9227796   0.4210125
   0.0235147   0.1391815   0.0449179  -0.2931763  -0.8329456   1.1135526
   0.1832638   0.3515342  -0.3790020   0.2146847   0.0597669   0.2026748
  -0.0181619  -1.2493592   0.0772608  -0.2351733   0.6930577   1.4127534
   0.5107308  -0.3033910  -0.1864694  -0.1996715  -0.3489525   0.7990330
   0.8830822  -1.1550725   0.3015463   0.2610903   0.0557237  -0.0031197
   0.4983324   0.5220119  -1.2610777   0.3728972   0.9000736   1.6990948
  -0.2515124  -0.1446035   0.3835057   0.3533967   0.6501143   0.2514906
   1.3976820   0.7200778  -1.3889429  -0.2470167   0.3116395  -0.1780861
  -0.8757255   0.3789343   0.0410642  -0.9020310  -1.4845954  -0.5560717
   0.2128397   0.0433906   0.0423366  -0.3142489  -0.0356283  -0.8173957
   0.3588788   1.1849709   1.0255922   0.1288774  -0.0635031   0.0505108
   0.1810712   0.5735238  -0.9811142   1.2121176  -1.0870951  -0.1086412
  -0.0987723  -0.0879351   0.1288027   0.0864152  -0.8014213   0.5431998
   0.6561154  -0.8750697  -0.3281507   0.2669926   0.2508198   0.0496428
  -0.1406821  -1.6664795   0.1160515   0.6447016  -0.7000105   0.7217061
   0.0987840   0.0342126   0.0316886   1.9138907   0.0879967   0.7445251
  -1.0916056   0.6194345  -0.2439018   0.1691119  -0.0069062   0.0192870
  -0.3264520   0.3385553  -0.7990283   0.8560393   0.4090106  -0.6157913
  -0.3495776  -0.4572883  -0.0916508  -0.1919616   0.8930301   0.0682339
   0.8273374   0.6702869  -0.9316093  -0.0253255  -0.1892602   0.0259282
   0.6426409   0.2888996  -0.3165635   0.5023184  -0.6956643   0.4948854
   0.0938124   0.2849614   0.1915372   0.5357569   1.1179130  -0.8204801
   0.5043654  -0.4510581  -0.5315258   0.1244016   0.1914791   0.1483710
   0.3345828  -0.0029790   0.5652640  -0.5726892  -1.2502093  -0.5844267
   0.1580720  -0.0016863   0.0041536   1.1827213   0.1647114  -0.4335253
  -0.8865947  -0.0675896  -0.1795554  -0.0535666  -0.1037146   0.2367620
  -0.1318111  -0.2354617   0.9440995   0.1849901   0.5085200  -0.6471578
  -0.1467724  -0.3477800  -0.1587125   0.0607305   0.0895904   1.4455076
   1.2242879   0.2181464  -0.3226832  -0.0068987   0.3528833  -0.3877999
   0.5495631   0.2325129   1.3788010   0.0185331  -0.5552277  -0.5014489
   0.1500475  -0.1208806  -0.3655947   0.1257231   0.5326259   0.3487162
  -0.2259327   0.6381336   0.7857482  -0.3782738   0.0675013   0.2520966
  -0.1703714   0.5564266   0.2620297   0.5228706  -1.2735455  -0.0046696
  -0.3760603   0.1845126   0.0883665  -0.5556473  -0.5982456   0.1997369
  -0.6387685  -0.5080562   0.8852461   0.1866002   0.1469380   0.0300116
  -1.2766204  -0.3113322  -0.0399099  -0.7517042   1.4903141   0.0281771
  -0.0800109  -0.3019852   0.1095508  -0.4972583   0.7287144  -1.1873229
  -1.1041798   0.0653463   0.4548409  -0.3641523   0.2349358  -0.0269807
  -0.6289885  -0.2887280   0.8000705  -0.4353376  -1.4495231  -0.0013146
  -0.1659367  -0.0777307  -0.0479528   0.0660703   0.4543784  -1.2982339
  -0.3649806   0.5872266   1.8194880  -0.0174954   0.0723142  -0.3206943
  -0.0971694   0.3963472  -0.3513618  -0.1896085   0.6108916  -0.2465916
  -0.4083912  -0.0541173  -0.1199566  -2.0615864  -0.2439388   0.6858089
   1.4222441   0.2094225  -0.7042141  -0.2385331   0.1207391  -0.0624082
  -0.4441839  -0.1040029   1.2241768   0.0269996   0.9432913   0.9477141
   0.0286025  -0.0664564   0.1920106  -0.5517057   0.1063123   1.2165682
  -1.0216010  -1.0583925  -0.0936851   0.0526097   0.3029039  -0.0493519
  -1.3489559   0.8663164   0.8004750  -0.2360481   1.1207584  -1.8331041
  -0.1512476   0.3042675   0.0460296  -0.5022014  -0.0586100  -0.5816484
  -0.0033992  -0.1019469  -0.7892287   0.0645932   0.1602645  -0.2212280
  -0.1220624   0.6595643   1.1167683  -0.1326750   1.1990808   0.2889937
   0.1656728   0.0813908   0.0844570  -1.1043464   0.3336491   0.0462794
   0.3023030  -0.7043891  -0.4666332   0.0012377   0.0483251  -0.2248963
   0.7142457  -0.7111944  -0.8195586   1.2844249   1.5070843  -0.8976722
  -0.0443135  -0.1442422  -0.1929130  -1.3580922  -1.1497888   1.2898330
  -0.5844136   0.3209589   0.4240113  -0.0273318   0.0326536   0.2285637
  -1.0294033   0.2074388   0.3874279  -0.6234603  -0.3606061   0.4284821
  -0.2837898   0.0574132   0.2351698  -0.1142522   0.4684375  -1.0891846
   0.0908660  -1.2403306   0.6985856   0.0663770   0.3747675  -0.2023405
   1.0170832  -0.0927320   0.7261859   0.9023932   0.0423494  -0.1869587
   0.1101976   0.0979355   0.0305981   0.7029472  -0.7235086   0.2833947
  -0.3120168   0.1447065  -0.1572820   0.1604053  -0.3774401   0.1321368
   1.1049419  -0.3223480  -0.3078589   0.2672137   0.6401505   0.6559167
  -0.0678574  -0.2467711   0.2484077   0.1967507  -0.8983356   1.0880670
  -0.3414193   0.1350751   0.8273613  -0.1179309   0.0952485  -0.1023477
   1.0267878   1.1465727  -0.6633707   2.0982691  -0.0190716   0.4309901
  -0.1963221   0.0886639   0.1213922   0.3730895  -0.7303153  -0.0072306
   0.3342658   0.0461457   1.8303556   0.1075490  -0.2896659  -0.0279345
  -0.0007180   0.9752788  -0.7503277   1.6706522  -0.4243875   0.5717168
   0.0406116   0.0038530  -0.1403210  -1.1281444   0.1335928  -1.4025356
  -0.7231900  -0.7559568   0.5171962  -0.0860974  -0.3208863   0.3517123
   0.1519871   0.9997001  -0.9782143   1.5424649   0.3442095  -0.3924985
  -0.0301419   0.0973297  -0.0598233   0.9164724   1.1875066  -0.7681651
   1.1785442  -0.0018395  -0.6422574  -0.2493222   0.0837538   0.2460096
  -2.2427034   0.3745552  -0.0954697  -0.1110603   0.6551769  -0.6241990
   0.0251836  -0.0378420   0.0206218  -0.1078328   0.7777872  -0.7076931
   0.3079092  -0.7800653  -0.7534545   0.2492195  -0.2699947  -0.1146292
   0.5248361  -0.1028394   1.1180237  -0.2628232  -0.5808430   0.7340805
  -0.0826721  -0.0249172  -0.3959548  -0.3262669   0.8833086  -0.4260525
  -1.6789280   0.2614593   0.1495761   0.0714041   0.0841650  -0.1742087
  -0.1081794   1.5246296   0.3610047   1.4423372   0.1160492   0.3554745
  -0.2797058  -0.0597994  -0.1489851   1.1017659   1.0948281   0.4881165
  -0.4302062   0.6695481   0.9196837  -0.1646646   0.3150053  -0.2369183
  -1.0157101   0.5080960   0.0637060  -0.0908998  -0.4235835  -0.2211380
   0.0505591   0.1220874  -0.0511572   0.6915678  -0.4115889  -0.9961391
   0.1531990   0.2591478  -1.3833623  -0.2249020   0.3074774   0.0341002
  -0.4370397   0.7713106  -0.3562840   0.4594788   0.6881585  -0.3967199
  -0.0476106   0.0538448  -0.0548761  -0.7920168   0.8652957   0.0802740
   1.6284633   1.1894171   0.2160516  -0.1501512   0.2082852  -0.3711256
   0.2579103  -0.6769366   2.0047196   0.2001852   0.8337132   1.1665215
   0.3360940  -0.0595625   0.0124606  -1.0051561  -0.8178054  -1.0787754
  -0.0784861   0.5650385  -0.6495732  -0.2957396  -0.1729823  -0.0221939
   0.9699450  -0.7744184   0.5185691  -0.3090858  -1.1010389  -0.3889283
  -0.0185838   0.2263706   0.0658502  -0.4619856   0.2491948  -1.5575674
   0.1946936  -1.1947282   0.6654502   0.0569561  -0.0138329   0.1014555
  -0.8892351  -0.3950038  -0.4031052  -1.1340523  -0.2476354   0.3688144
   0.0357529  -0.0927198  -0.2102266   0.8395221  -1.1961476   0.0884026
  -0.4030173  -1.0791582   0.3328455  -0.1312647   0.1830635   0.0650240
   0.3276302   0.6354181   1.4180207  -0.5382246  -0.0218805  -0.2935426
  -0.1250282   0.2759235   0.1055264  -0.1155502   1.1728968  -0.1222213
  -0.1794153  -0.3889603  -0.9793432  -0.1317707   0.2072568  -0.0109770
  -0.3818203  -0.9707317   0.1076845  -0.9986019  -0.2819096   0.0070051
   0.0324502   0.0202342  -0.1566219  -1.2096276   0.2851856  -0.9451205
   0.1791534   0.4582557   0.7102966   0.0845669  -0.2655885  -0.0865579
   0.4347788   1.6152304  -0.6298304  -0.1941550   0.2785104  -1.0933650
  -0.2800189  -0.1920775  -0.1451138  -0.3770341   0.9218334   0.7141171
  -1.4108243   0.5508190   0.7081168  -0.0215018   0.3989996   0.0874606
   0.5182694   0.5828166   0.2701039  -0.8039663   0.0057136  -0.1412439
   0.2582363  -0.2452999  -0.1373351  -0.7372652   0.1677995   0.9876955
  -0.3154604  -0.3356162  -0.4026095   0.1791098   0.1162576  -0.2751854
  -0.9196083  -0.7992491  -0.3394695  -0.4799058  -1.0561970   0.2887641
   0.1179753  -0.1552475   0.0608603   0.4799570  -0.1549704   0.6259992
  -0.9497879  -2.2880085  -0.7499198   0.0158768  -0.1465964  -0.2278828
   0.0808022  -1.1404973   1.4568269   0.8295554   1.3981820  -0.1271541
   0.1377181   0.0283651  -0.3759527   0.6376191  -0.0109788   2.1982645
   0.3115538  -0.1309300   0.7638976   0.2915690   0.0947863   0.1933207
  -0.1048409  -1.1016449  -1.2111068  -0.4555680  -0.2579641  -0.8883688
  -0.1696014   0.2866889   0.0621320   0.0833053   0.1915815  -0.0798732
  -0.9242452   0.5815610   0.2836582  -0.1405670   0.1736499  -0.1399870
  -0.7743086  -1.2654719   0.4933042  -0.1719016   0.4367265  -0.4590422
   0.1670596   0.0433697  -0.1038120  -0.0942250   0.8958970  -0.1809920
  -0.2079688   1.5102270   0.6660627  -0.1845994  -0.0878540   0.0413550
   1.2499477  -1.3417461  -0.0217824   0.5082731   0.4854369  -1.2768101
   0.3123483  -0.2076851  -0.0159960   0.8455947  -0.1330036   0.7715915
  -0.2231617  -0.7189648  -0.0800016   0.0003840  -0.0656755   0.1496526
  -0.5936277  -0.5556939  -0.4126249   0.2965897  -1.1232622  -0.1050839
  -0.0263570   0.1026491  -0.0153983   0.0728531   0.2973780   0.5117725
   0.4453846   1.6032164   1.0748877  -0.1368056  -0.1135036   0.1248023
  -0.4766437  -0.6168467   0.3345168   0.1948326   0.4610058  -0.1039111
  -0.1267384  -0.0777964   0.1944904  -0.1006408   0.4741954   1.0018190
  -1.5269581  -0.0469380  -0.2281916  -0.0900372   0.0144915  -0.3975586
  -0.0000145  -0.0212847   0.8471999  -0.3916995   0.4839430  -1.2380751
  -0.0650464  -0.1185940   0.0851667   1.3235715   1.5979298  -0.1670286
   0.9944161  -0.6885972  -0.8184579   0.0807553  -0.0832457  -0.0176610
  -0.2625450  -0.2908910  -0.9037054  -1.0786177  -0.4188348  -0.6185181
  -0.4128837  -0.0409963  -0.1978184   0.7459381  -0.7320498  -0.4237555
  -0.3068606   0.2901730  -2.4240760  -0.0631728  -0.3660470  -0.0639191
   0.3398685   0.2173082  -0.4926169  -0.3125864   0.8586584   0.5682731
  -0.0306163   0.0466746   0.1664305   0.0069958   0.2230445   0.9617279
  -0.3896664  -1.7174572   0.1430348  -0.1225185  -0.0498266   0.1158031
  -0.5896851  -0.2868043  -1.4671940  -0.7056838  -0.2497605  -0.5337202
  -0.1904213   0.2455358   0.0643816   0.2307342   1.0551866  -0.6113660
   0.3438985  -0.5057429  -0.1920923   0.1428961  -0.1693587   0.1802659
   0.3348612   0.5284854  -0.7847593  -1.3502142   1.1525824  -0.8241758
  -0.1251663   0.2327605  -0.2138684  -0.2764852   0.6077636  -0.1989994
   0.6587158  -1.0332665   0.1045242  -0.1165019   0.0792193  -0.0173955
  -0.5207312  -0.2021635  -0.2168963   0.1532574   0.6490600  -1.7725567
   0.0519709   0.1285703  -0.0473419  -0.8660984   1.1738970   1.7455051
   0.3377878   0.7849242   1.5427903  -0.1625151  -0.1349000   0.1660626
  -0.1757795  -0.6560991   0.0203907   0.1990628   0.4909501   1.0209184
  -0.2760416   0.6055197   0.0369406   0.6349551  -0.8022933   2.0376734
  -0.4717031  -0.6500272  -0.7747182  -0.1553104   0.0046752   0.0505476
   0.0843635   0.2606105  -0.0079498   1.4560436   0.6692975  -0.2529688
   0.3353385   0.0213339   0.0442330  -0.5615225   0.7193276   0.1940091
   0.9422309  -0.9466500  -0.5084732   0.1102699   0.1222211  -0.0561477
   0.7039181   0.6173979   1.2706712  -0.6034279  -0.6372526  -1.1759576
  -0.1144732   0.2893242  -0.0807126   0.3525063  -0.4892706   0.5845372
   0.7825460  -0.0082193   0.0141002  -0.0738470   0.0600349  -0.0720824
  -0.8245544  -0.0360420   0.4991753  -0.1778802   0.8870574   0.9649663
  -0.1468933   0.2259996   0.3069374   0.9241702   0.1545857  -1.1547839
   1.1492868   0.8541344   0.4998737  -0.1692341   0.1315193   0.3133782
   0.3095398  -0.8543342  -0.0129909  -0.1606895  -0.7537212  -0.2210321
   0.1895162  -0.0037506   0.0036017  -0.8630965   0.2434861  -0.0991036
   0.0824277   0.0960972   0.4117674  -0.1678597  -0.1422236  -0.1132798
  -0.3566662  -0.1631610   0.2752658   0.2561282   1.6989125   1.9616135
   0.2016066   0.1390715  -0.2002186  -0.5257358   0.4470906  -1.4649891
   1.7892368   0.0505076  -0.2663749   0.0027547  -0.0768295   0.0267454
  -0.0398042   1.2290838   0.4183615  -0.7709604  -0.9684843   0.5731708
  -0.2307670   0.1879211  -0.3196535  -0.2962785  -0.0106817  -0.2334896
  -1.0303609   1.8319149  -0.3165707   0.0298475  -0.0342882  -0.0833269
  -1.2526805   0.7593311   0.1036897  -0.3741627  -0.5074987  -0.2425737
  -0.1891009   0.2284426   0.2102974  -0.6565371  -0.4353879  -0.2947868
  -0.0316522   0.1680315  -0.4424633   0.0489725   0.0619024   0.2466687
   0.1644562   0.6617268   0.4082028   0.2263892  -0.6907396  -0.5782721
   0.0823365  -0.2622337  -0.1135156  -0.5618768  -0.8046844   0.5459308
   0.3767422   0.8860134  -0.2863474  -0.2633783  -0.1370637   0.0670623
  -0.7477346   0.6445101  -0.5815433  -0.6790462   0.8641934  -0.4691462
   0.2178547  -0.0869291  -0.0881195   0.1643981   0.6805026   0.0864698
  -0.7163666  -0.9498104  -0.2403267  -0.0634057   0.0833604   0.1000633
   1.2309473  -0.0611729   1.3237881   0.8449322  -0.6375891   1.4730922
  -0.0180397   0.1101747   0.0149827   0.4288545  -0.5130717  -0.1110292
  -0.0959185   0.6324886  -1.0805053   0.0890036   0.1684395  -0.1231590
  -0.7659478   0.5584470   0.3943686  -0.7097321  -0.3850712  -0.4093268
  -0.2022690  -0.0107010  -0.2511662  -0.1459423  -0.6070872  -0.4338969
  -1.4606136   0.2888440  -0.1306477   0.0651341  -0.0295465   0.1516757
   0.0076515  -1.1254502   1.2183520   0.0609796   0.3308455   0.7945612
   0.2562497   0.0581509  -0.0590452   1.0897629   0.1542369   0.8899825
   1.4059387   0.0861781   0.1145346   0.2678879   0.0602257   0.0340802
   0.2078114  -0.7369093  -0.3723782   0.1895216   0.4273936  -0.1978903
   0.1794324  -0.1179360  -0.0150251  -1.7185654   1.3676837  -1.7873429
   0.1073819   0.1397861  -0.1417541  -0.1811321   0.1378218   0.1179157
   1.4048443   0.8479769   0.7651997   0.2365659  -0.8135848  -0.3606286
   0.2059039   0.0678282  -0.2208935   0.6587753  -1.1134201   0.1639049
  -0.4045488  -0.0615391  -0.5823173  -0.1196933  -0.1509496   0.0376937
  -0.1736643  -0.3264852  -0.3436220   0.0630872  -0.8859932  -0.7124144
   0.1229127  -0.0460108   0.0758009   0.5071574  -0.6179092   1.3208940
   1.1709192  -0.2856317  -0.1211667  -0.0361136  -0.0206516   0.2078722
  -0.4032236   1.0229522   0.9023195  -0.3181560  -1.4331763  -0.7087564
   0.0827592   0.0294442   0.0881358  -0.5587408  -0.4950784  -2.3626206
   0.1646584  -1.6383197  -0.3572847  -0.0566499  -0.0501440   0.0672100
  -0.2482834  -1.0807312   0.8228857  -0.9435339   0.5989240  -1.6821480
   0.0896950   0.1996063  -0.1765974   0.5250115  -0.4020579  -1.0928851
   1.9488649  -0.3337038  -0.5334444   0.0688920  -0.2074699   0.3577558
   0.0995025  -1.1367662  -0.9580742   0.7285287   1.3324292   0.0022072
  -0.1240421   0.0269011   0.1780778  -0.4572196  -0.1273714  -1.3753262
   1.2084883  -1.0187400  -0.3561665  -0.0950762  -0.0940543  -0.1109969
  -1.1989607   0.0614125  -0.5402083  -0.6699160  -1.2521581   0.2801400
   0.0831117  -0.2751225  -0.0039651  -0.1838705  -0.7384259   1.0420628
  -0.3555021   0.8206613   0.2357235   0.0387780   0.1760152  -0.1454737
   0.7469699  -0.5006133  -0.4127648   1.6114949  -0.0868052   1.5694512
  -0.0253481  -0.1188819   0.0048684   0.3494648   0.3396427   0.5567612
  -1.1295590   0.5843970   0.1497678  -0.1048696  -0.2572613   0.2034401
   0.0708923   0.3739455  -0.2639014  -1.1549049   0.2699804   0.7589843
   0.2364126  -0.2423504  -0.2217009  -1.1183382   1.1141727   1.2064208
   0.2677996   0.6178311  -0.5673684   0.1340743  -0.0204261  -0.2786363
  -0.8122456   1.0091462   0.4659801  -0.6211092   0.4543193   0.0031526
  -0.1017835   0.0744488  -0.1072267  -0.6135712   0.5703920   0.9520308
  -0.0706144  -0.7535715   0.0703365   0.0772750   0.1954218   0.1519505
   0.3290156   0.7222342   0.5993275   0.7037130  -0.8634753  -0.2020064
  -0.0985809  -0.2416547  -0.0034523   1.1928684  -1.3315678  -0.1824294
   0.7246177  -0.0933043   1.7856267  -0.1131407   0.2754464  -0.0539185
   0.2757279   0.7426052  -0.1667557   0.7463525  -0.0424720  -0.7108166
   0.0298297  -0.2122209   0.0901354   0.3627246  -0.6691025  -0.2944314
   0.5376764   0.7555016   0.2688559  -0.1154739  -0.1120278  -0.2722308
  -1.1790029   0.9516819  -1.0343735   0.4008948  -0.5105127  -0.3396768
  -0.2633440  -0.1624239  -0.1763443   0.2701372  -0.5357109  -1.6392791
  -0.2856262   0.5164179  -0.3365111   0.2338756   0.0778494   0.3614302
  -0.1334660  -0.4654996   0.6807185  -0.1175330  -0.5433548   0.4554949
   0.0505392   0.0242914  -0.1847878   0.2670216  -0.1386488   1.3588317
   1.3341820   0.5750908  -0.1061572  -0.1938558  -0.2858085  -0.0107991
  -0.1041415  -0.4025511   1.1950084   0.2796991   0.7445581   1.3821751
   0.1472325  -0.1958251   0.0752920  -0.1640176   0.9183087   0.1488881
   0.0238051  -0.2118484  -0.6138555  -0.1740532  -0.1839340  -0.1271347
  -0.5127795  -1.2377868   1.6330277  -0.2446994   1.6103678  -1.4059018
  -0.1993363  -0.0396183  -0.2039417  -0.5130352   0.8022522  -0.3808076
   0.6020592   0.5293077  -0.5457077  -0.2425023  -0.1620464  -0.2427140
   0.5687433  -0.7999907  -0.0044004  -0.6176835   0.2331908  -0.3269612
  -0.0105959   0.1376105   0.0955554  -0.1833308  -0.1687288  -0.8415399
   0.0099902  -0.5229404   0.8208498  -0.1074950  -0.0598869   0.0750847
   1.4254107  -0.4308602   0.9245343  -0.4435022   0.7815969  -0.6201609
  -0.3985693   0.1637233   0.2305678   0.4351019  -0.3798994   0.2547274
  -0.1721524   1.2589416   0.5085775   0.0199482  -0.1305112  -0.0028358
  -1.8053661   0.1983638  -0.3357516   1.7387281   0.6152297  -0.7841189
  -0.0647710   0.2202130   0.1764601  -0.1235640   0.0258451   0.0804134
  -1.0091722   0.0212756  -0.4790580   0.0346665   0.0408945   0.1990041
   0.4098575   1.4546207  -0.3662401  -0.2503514   0.8826600   0.1112509
   0.3017292  -0.0315823  -0.2070888  -0.1303467  -0.8484453   0.2552552
   0.4992380  -0.0772144  -0.0268913   0.0129387  -0.2316260   0.1499071
   0.9201992   0.0395130  -0.2506801  -0.1081258  -0.9226095  -0.1552166
   0.1504689  -0.3126852   0.1559222   3.1133713   0.3140470   0.6424581
  -0.1752654  -1.2259405  -0.8632550   0.3228333   0.0237327   0.2943228
  -0.4157516   0.5771588   0.2922852  -0.2026185  -0.7753575   0.8074045
  -0.1867217   0.0442009  -0.4601017  -0.9576992   0.8061271  -0.2444559
  -0.2010716  -0.6945802   0.2495454  -0.0062154   0.2074820  -0.0610162
   1.2495903  -1.1281052   1.3535768  -0.1595250  -0.6347503  -1.4752866
   0.0884783  -0.0024516  -0.0563806   0.3302868  -1.1654416   1.7995268
   0.4747755  -1.3744137  -1.0430513   0.0044611   0.0252600  -0.0611058
  -0.5458060  -0.4839919   0.1129383  -0.0176960  -0.8352526   0.0044973
   0.2470551   0.2849996   0.0289837   0.8650903   0.2585586   0.4969040
  -0.5921279   0.1248112   0.6708277   0.0841757   0.0466442   0.2715336
   0.2520967  -1.0036089  -0.4004512  -0.5356326  -0.1721706   1.9918751
   0.0233677  -0.2891163   0.1099103   1.4333847  -0.5491417  -0.8208730
  -0.1463626  -1.1138283   0.4802168  -0.0328687  -0.0172560  -0.1074197
  -0.6129760   0.7105920   0.5060309   0.0125954   1.3280716  -0.0960100
   0.0094055   0.2753377  -0.1743270  -1.6475888   1.6839317  -0.5729625
   1.3595601  -1.4430410  -0.5728692   0.1499090   0.4003169   0.1434859
  -0.8467553  -0.1641751  -0.1201287   0.5668791  -0.5129574  -0.0400779
  -0.3299681   0.0474000  -0.2271602   1.1813532  -1.5990446  -0.0429760
   0.1057606   0.4188180   0.0105236   0.0975664   0.1266641  -0.3603601
  -2.0645196  -0.1126675  -0.6310337   0.0077879  -0.2698334  -0.6129076
  -0.0294709  -0.1283398   0.3800494   1.0245858  -0.5208923   0.0541375
  -0.2887726  -0.4209802   0.5005541  -0.0184941   0.1898056   0.0416716
  -0.4842604   0.2856193   0.9686956  -0.3784638   0.7419875   0.8207094
  -0.1989169  -0.1197962   0.1150239   0.4685398   1.3496893  -0.0757101
   0.0536296   1.0814319  -0.9016756   0.0282810   0.0115195  -0.0853631
  -0.7397277   1.7221984   1.9570956   0.8031703   0.4425044   0.7118710
  -0.3024122  -0.2752803   0.0905510  -0.1336633  -0.0461858   0.2965208
  -0.8597509   0.0131665   0.6335503   0.0410115   0.0566539   0.0324621
  -1.7392918  -1.5433987   0.3756051   0.3330194   1.0804003   0.5655111
   0.4319074  -0.3362336  -0.1826164   1.2394945  -0.1679369   0.1304814
  -0.1448629  -1.5655401   0.7634480   0.3337419   0.2676372  -0.1831507
  -0.5251332  -1.1327333  -1.2934544  -0.4520155  -1.0318631   0.3789758
   0.2791262  -0.0624909   0.1500120   0.5170078  -1.4144716  -0.0061491
  -0.3963473  -0.4887642  -0.4547325  -0.0296526  -0.0878330  -0.3036213
   1.4576800  -1.3085071  -1.4007753  -0.7764300  -0.8082279   1.1362070
  -0.1992890  -0.0760128   0.4118925  -0.5603530  -0.7818813   0.5585651
   0.1215682   0.6837054  -0.6753551   0.1205545  -0.0494013   0.1504455
  -0.0403284  -0.4068781  -0.8114799  -1.5521642  -0.0230581   1.8916378
  -0.2318395   0.0167922   0.1699712   0.2356617   0.8984843  -0.8777025
  -0.2683944   0.0510772   1.1291317   0.1254167   0.0394291   0.5677510
   0.3485952  -0.2452665  -1.6821445   2.1785249  -0.7400961   0.5358868
  -0.1097798  -0.0329444   0.1278834  -0.4097623  -0.7853608   0.5173594
  -0.2591721  -0.5871379  -0.4696367   0.0805309   0.1512088   0.3882637
  -0.8166742  -0.1987329  -0.6606351   0.2755773   0.8766402   0.5683686
  -0.0649849  -0.1820201   0.1229248  -0.6014379  -1.0493939   0.5930019
   0.3191653  -0.2885945   1.4424539  -0.0707285   0.2621675   0.4298411
   0.8573132  -0.5178142   0.1932807  -0.2135401  -1.6923949  -0.2065783
  -0.1575913   0.0978151   0.0275575  -0.6647957   0.1656620  -0.3159877
  -0.5535798   0.5032026   1.0428975   0.0526003  -0.0440575  -0.0889574
   0.5146478   1.1644178  -0.8701232   1.6383335   0.7184877   0.2310754
   0.0242617   0.1182924   0.2327123  -0.1513579   0.3018654  -0.3564614
  -0.5151870   1.3199048  -0.5681229   0.2677892  -0.1115627   0.1677347
   0.0774419   0.3967168  -2.8746305   0.9230010  -0.1734365   1.7605941
  -0.1308218  -0.1340238  -0.2231052  -1.3376014  -1.0576880   1.0124192
   1.4157104   0.4028137  -0.5039488  -0.0095531  -0.2098659  -0.1168208
  -0.6507302  -0.1361268   0.4019366  -0.3476513  -0.1392836   0.1113372
   0.3019606  -0.0406504   0.2061612   1.3199699  -2.1939828   0.3127722
  -0.0390263   1.4748706  -2.1934262   0.2266881  -0.1468143  -0.2807704
   0.4538498  -0.0289388   0.5060043  -0.5912694  -0.5465213  -0.1378810
   0.3863171  -0.1024742  -0.0292250   0.9454086   0.5617349  -0.0748211
  -0.2567324   1.8630703   0.1550089  -0.3028022  -0.2159043  -0.1714812
   0.3256864   1.2559672   0.2408461   0.2170038  -0.7085926   0.5981352
   0.0296680   0.2249242  -0.2963130  -0.7169785   0.0796467   0.0284235
   0.0859921   1.0005284  -0.1508444   0.2770904   0.5094421  -0.2981049
  -0.2222234  -0.0168072  -0.8428799   0.3728892  -0.1468829  -1.2084843
   0.0937722   0.1845311  -0.0667827   1.8405910   0.5611170   0.1582302
   0.3194450  -0.9937311   0.5605477  -0.0837357   0.0355027   0.0426491
   0.0666497  -0.2746717  -0.6890958   0.6281667  -0.3206526  -0.6422303
   0.0076561  -0.0140440  -0.0569494  -2.0845985   1.2861123  -0.2468129
  -0.1352197   0.0579679   0.4462617   0.0021172   0.1404880   0.2067474
  -0.4214165   0.2200127   0.7077297  -0.2743917  -0.4492329   0.9849701
   0.1533871   0.0898151   0.3223033   1.4143775   1.3774813   0.5109516
   1.1458114  -0.4848584   0.0035031   0.0572647  -0.0079185   0.3302180
   0.8487469   0.6884914  -0.3987328  -0.0633607  -0.4640214   0.1596194
  -0.2721104  -0.2513504   0.5149687  -0.0254558   0.5537830  -0.5568406
  -1.1630991  -0.0031087   0.4255111   0.1998708  -0.0416431  -0.2258678
   0.4799584  -0.6475369   0.2634637   0.4356107   0.6905267   1.0088390
  -0.1101645   0.1010653  -0.1561370   0.8325412   0.0881138   0.6513686
  -0.5609049  -0.0028916   0.5845262   0.0460879   0.0880535   0.4680618
   0.2328742  -0.2127530  -1.5726629  -0.0749872   0.2820899  -0.8894245
  -0.0130998   0.0061084   0.1147338   0.3018150   0.1889925   0.7595157
   0.6899323   0.1701779   0.2994641  -0.1825794   0.4635290  -0.0941681
   1.2448685   0.1790581  -1.2570104   0.5369181  -0.1485250  -0.6019690
   0.2331419  -0.0273297   0.0471024  -0.9316713   0.3595383  -1.0433909
   0.1901432  -1.4507357   0.2603611   0.2626560  -0.0600895  -0.1992394
   0.5043997  -0.1899298   0.1348091  -0.9957866   1.4336960   0.6397709
  -0.1106097  -0.2921557   0.0472149  -0.2419409   0.6082549  -0.1674221
   0.8531743  -0.8261827   0.3237683   0.1375766  -0.1820932  -0.0037078
   0.4364805   0.6210385   0.1762662   0.6286592  -0.1535966   1.0069275
  -0.2143889  -0.0689061  -0.0245670   1.1013771  -0.5199551  -0.1397963
  -0.0352276  -1.3644312   0.9345519   0.1744821  -0.0009696  -0.0892793
   0.1221099   0.7752630  -0.3080403   0.5943189   0.8493918   0.4818479
   0.2148589  -0.3173037  -0.0191770  -0.1136306  -0.4492083   1.4469644
   0.2536432   1.1806667   0.8301054   0.2746552   0.4857008  -0.2056171
  -0.1589764  -0.0361445   0.4533003  -0.2005479  -0.3112477   1.4150954
   0.1771144   0.1821782   0.2368559  -0.6316202   2.0322654  -0.8986834
  -0.8538096   0.4195828  -0.4550573   0.1548319  -0.0238764  -0.0066177
   0.2403060  -0.9461293  -0.5925312   0.9382238  -0.2046287  -0.4388793
   0.3271271   0.0162634   0.0568509  -0.5750033   0.0074401   0.8877743
  -0.1159291   0.1179545  -0.0386199  -0.0979580  -0.0589177  -0.1566246
  -0.7813143  -1.4666684  -0.9374953  -1.3327019  -1.3921546  -0.3744049
   0.0647991  -0.3559170   0.1082600   0.6580499  -1.3491377  -0.0678385
   1.2419885  -0.9740715  -0.4879609  -0.0424642  -0.1986605  -0.0419353
  -0.0459974  -0.1300351  -0.2975412  -0.2535489  -0.1728930  -0.5929457
   0.2232173  -0.0606354  -0.0340874  -0.1785378  -0.9760992  -0.3631667
  -0.9027880  -0.0321731  -0.5857001  -0.2325459   0.0481999  -0.2967769
   0.5758791  -0.3294352   0.1972913   0.8574663  -1.3421255  -0.2576137
  -0.1304110  -0.0815466  -0.0954816  -0.4838423   0.0949820  -1.2781377
   1.0660159  -0.9123371   0.4479982   0.2711831   0.2249497   0.4631971
  -0.5220847   0.1172492  -0.2783368   1.1701987   0.7328544  -1.3564661
  -0.1987799   0.1727272  -0.0167360  -1.1550276  -0.9221023  -0.7584800
   0.1014381  -0.1601121   0.9880069   0.3085492   0.2001255  -0.1879548
   0.1023944   1.3879737  -0.0418035  -1.0369154   1.6908850  -0.1010725
  -0.1548458  -0.0588213  -0.1799592  -0.3024008   0.5996680  -0.9097578
  -0.6828040   0.4809038  -0.9268130   0.0005807   0.2094066   0.2346330
  -1.0423949   1.3744378   0.2418319  -0.9986028   0.2850474  -0.1374972
   0.1636407   0.0626765  -0.2788908  -0.3643004   0.1001533   1.0733190
   0.4232568   0.7922240  -0.6375786   0.0522414   0.1727882   0.2828294
  -0.4522974  -1.4328710   0.8394091  -1.8478664   0.3757236   1.5802749
  -0.0700814  -0.5198417   0.0292236   0.2945623  -0.3335745  -0.2826744
   0.6897344   1.3236699  -0.7232111  -0.3174239   0.1244691  -0.0190322
   0.1301774  -1.3895682  -1.0890410   0.7016077  -0.9328891   0.6235600
   0.1306510   0.0148549   0.0260537   0.5050799  -1.3498221  -0.5985770
  -0.3712601   0.1726114   0.1256228  -0.1040458   0.1101645   0.1946784
  -0.3794412  -0.3864409   0.0599714   1.5041627   0.6680528   0.3547745
   0.1016017  -0.3825636   0.0582996   0.4344874   0.1948236  -0.6134930
   0.6718105  -0.1696893  -0.3564801  -0.1975197   0.2295101  -0.0571437
  -0.3870679   0.9130198   0.0966824  -0.6366340  -0.2350859   0.2837293
  -0.0706843  -0.1017651   0.1289103   0.1610313  -0.2593520  -0.5522990
  -0.5514000  -0.4570893  -0.5856489   0.0192306  -0.2127158   0.2401811
   0.3754323   1.3687548   0.4088031  -0.9817286   0.8077568  -0.9950339
   0.2955855   0.0856132   0.5511077  -0.5389022   0.3590418   0.6223442
  -0.2794307   0.0534033  -0.5701877   0.1404966   0.0081501   0.1100013
   0.7151438   0.2458498   0.3065279  -0.4510580  -0.8475269  -0.1283507
  -0.2569629  -0.1081741  -0.1067788   0.0835463  -0.5546527  -0.7072972
  -0.1941123  -0.4346802  -0.1560017  -0.0107795  -0.0441755   0.2787155
   0.8678085   0.9704820   0.8365641   0.9786044   0.3529407  -0.6534329
   0.0457001   0.0105237   0.0036505  -1.0437200  -0.0891397  -0.9218508
  -0.0953994   0.3166160   0.9625224   0.0379625   0.1642645  -0.0696048
   0.0603434   1.1516680   0.1230576   0.9211178  -0.8215245  -0.9660048
  -0.0416455  -0.2668126  -0.3654822  -0.0622765   1.6015807  -0.6982878
  -0.0614624   0.1300005  -0.6288616  -0.0326031   0.3487162  -0.2514712
   0.0993153   0.4219234   0.9016928  -0.4661125   0.6037360  -0.7777513
  -0.2758644  -0.0315762  -0.2645307  -1.2917768  -0.1837394   0.1880837
  -0.2350682   0.5898160   0.5877862   0.2131491  -0.0302210  -0.2691362
   0.6025104  -0.4480924   1.2807496   0.6192715  -0.4837243   0.3595224
  -0.1570966  -0.2777282  -0.0452429   1.0087598   1.2627847  -0.9394264
   0.5971639   1.0545513  -0.3639522  -0.3592454  -0.0683387  -0.0038027
   0.1443356  -0.1334772   0.3162905   0.1331727  -0.7025074  -0.6696060
   0.1189736  -0.0788951  -0.1118817   0.9894226   0.1963639   0.0131822
   0.5561259  -0.6957928  -0.4211534   0.1658127  -0.0522473   0.1616398
   2.2830682   0.5923660  -0.5001999   0.3879037  -0.2959352   0.2584859
   0.0385178   0.2896075  -0.0733374  -1.3000365  -0.6743596   0.4985050
  -0.5952640   0.6741203   0.4949159  -0.2104218  -0.0395277   0.2111740
  -0.5809096  -0.6190572   0.1046241   0.8544072   1.2932995  -0.2961329
  -0.1153461  -0.2358175   0.1363018   0.0650777   0.6579273   0.2193770
   2.0458229   0.4049647   1.0385806  -0.3769187   0.0976202  -0.3357352
  -0.6077601   0.4675277  -0.2459485  -0.2751496   1.6623982  -0.4000746
   0.0494713   0.1004686   0.0204888  -0.0541732  -0.6777404   0.3681400
   0.3278858  -0.8478462  -0.4748863  -0.2972602  -0.0387305  -0.0136688
   0.6219832  -0.1621111   0.6399989  -1.0939564  -0.4605312   0.4010156
   0.0103341   0.2172628  -0.3610322   0.0801079  -1.0866497   1.6817454
  -0.0441914   0.6774239  -0.0886389   0.0541413   0.1956725  -0.0996139
  -0.6578948   0.0939672  -0.0364339   0.5508367  -0.1322012  -1.9181710
   0.1157613   0.0301403  -0.1996171   0.3027106  -1.5676976   0.3483518
  -1.1115558   0.3574281   0.7553216   0.0447136   0.1216312   0.1721573
  -0.2781347  -1.7079578  -0.2032282   0.9007064   0.3765821  -0.6061194
  -0.1865356   0.0122425   0.1129015   1.1040120   0.2020240  -0.8830796
   0.4927020   0.1023254   0.4081885  -0.0041978   0.5588341  -0.2930270
   1.6586644   0.2655783   2.1808900  -0.7064375  -1.0993474  -1.7372144
   0.1776297   0.1255992  -0.0237443  -0.3622568  -0.9475450  -0.4909284
  -0.8789826  -0.0438548   0.9511923  -0.0475176  -0.1225522  -0.1388315
  -0.5598717  -0.1076711   0.5053845   1.9341163  -0.9646011  -0.9409345
  -0.2874985  -0.2082101   0.0643838   0.8118358   0.9486447  -1.7002146
  -0.2485726  -1.1491315  -0.4224548   0.2638570  -0.1288428   0.0705072
  -0.5349006  -0.2287686  -0.4691480   0.1734592   1.3756214  -0.7766968
   0.1587554  -0.1191477   0.4581994  -1.1243982   0.3507686   1.4948115
   1.0524342   0.4757294  -0.8672180  -0.1579107   0.0420392  -0.0585041
  -0.4247391   0.4536438  -0.4743787  -0.0555810   0.1465286   1.1267583
   0.0035991   0.3302481   0.1288057  -0.6805635  -0.4984535  -0.2892315
  -1.1976246  -0.9748488   0.0510456   0.1226236  -0.0237513   0.3516675
  -0.5355591  -0.5048448  -2.2668661  -2.5052106  -1.2751604   0.5105397
   0.2126223  -0.2352841  -0.1868957  -0.2180780   0.6755858   0.1215760
   0.9158148  -0.3650099  -0.6941590  -0.1052632  -0.2283495   0.1010618
   0.4805148  -0.2170332  -0.4695736   0.3357723   0.1488105  -0.0678408
  -0.3997565   0.2265066   0.0295880  -1.0749745   0.9616940   0.0491381
  -1.0910574  -0.2303810   0.7745741  -0.2286465   0.0498320   0.1274747
  -0.2422257  -0.4272770   0.3010354   0.3207648   0.2246063  -0.7474827
   0.0058913   0.2051255   0.2561075  -0.2862209  -1.4093026  -0.4039955
  -0.9466794  -0.0197353  -0.3750126   0.0634834   0.1094748   0.0392912
  -1.4073911   0.7928807   0.1301815  -0.8200134   0.5421044   1.1504510
   0.0060793   0.1829074  -0.0084601  -2.4370662   0.3601491   0.2194544
   0.6364445   0.5398992  -0.8833826  -0.0885869  -0.0743442  -0.1149642
  -0.6318840  -1.3121644  -0.0143852  -2.0745932   1.3272034   0.3903076
  -0.2021155  -0.0049362  -0.0570986   0.7678778  -0.1254245   1.0515768
   0.3334828  -1.0038421  -1.1006457   0.0385294  -0.0443239   0.0551852
   0.6513147  -0.3865055  -1.3941468   0.5248468   0.5249694  -0.5060902
  -0.3570715  -0.1046268   0.2173035   0.8907427   0.0058879   0.2427340
  -1.4545252  -0.4072379  -0.7162352  -0.2360359  -0.3548034   0.1791917
   0.4048332   1.3264548  -0.3581708   0.2003847   0.5383517   0.1125570
   0.1085482  -0.1637197   0.2692243   0.1536432  -0.4915763  -0.0417614
   0.5800891  -0.7811408   0.4240012   0.1093844  -0.0139389   0.1206592
  -0.5124409  -0.7836754   1.8315381   0.0488733   1.1064216  -0.2631992
  -0.2139497   0.1621955  -0.1748475   1.3764695  -0.1973454   0.2158999
   2.3512646  -0.6625536  -0.3707368   0.1805259   0.2180275   0.2037434
   1.0558363   0.4806821   0.7068134   0.7930648   0.5263309   0.0280065
  -0.0123879  -0.0363786   0.0817265   0.7437766   1.1092961  -0.5078089
  -0.3095436   0.0367798   0.3646058   0.0244035   0.0471970   0.1394610
   0.2256206   0.4093184   0.5775801  -1.8975121   0.9854135   0.4756125
  -0.1839369  -0.3386960   0.0408324   0.2693323   0.1853873  -0.4474274
   0.8578446   0.3299154   0.4452974  -0.1657658  -0.1492989  -0.1392810
   0.2407581   0.4016809   1.0104841  -0.3834500   0.0637414  -0.2509187
  -0.1608979   0.1358091  -0.0493730   0.7000111  -0.5197852  -0.9462933
   0.6186404  -0.2162715   0.9855398  -0.1687433   0.1080554   0.0972632
   0.8428826  -0.2758222  -0.0404218  -0.6488400  -0.2579226  -0.5393623
  -0.2867105   0.2293018  -0.3329193   0.1601466  -0.6630924  -0.3936104
  -0.0760144   0.1290658  -0.1932731   0.4603218   0.0168930   0.0556227
   1.0785342  -0.7773590  -0.3913116   0.4126155   0.1426944  -0.1252989
  -0.0704700  -0.1211233  -0.0271674  -0.7251923  -0.2138755   0.1392639
  -0.3834147  -0.2425263  -0.2137788   0.1696101   0.2470403  -0.1765094
   0.3904285   0.5185188   0.4900085   0.4461687  -0.6702313   0.1158491
  -0.2343196  -0.0390907   0.1936800   0.3168364  -0.6305740   0.9851295
   0.4820091   0.2719443   0.7764591  -0.2189288  -0.0987534  -0.0448911
   0.5768885   1.0713660   0.2559069  -1.3710430   0.4232439   0.7164177
  -0.2136340   0.1032739  -0.0912349  -0.0361996  -0.1805974   0.2623405
  -0.6601210   0.7281361   0.8304046   0.3624816  -0.1555411  -0.3860486
  -0.8601082   0.2012305   0.0032267   0.7174314  -0.6395266   0.3803983
   0.3321862  -0.0046746   0.3007673   0.5122767  -0.4244019  -0.0701028
  -0.2389880   0.8475060   1.0739926   0.0717941   0.3223921   0.0788728
   0.7159549   0.6240205   0.0864283   0.6351797   0.4358281  -0.0053529
  -0.0760490   0.0726188  -0.1997495  -1.3459175  -0.2952120   0.7795663
   0.7624107   1.0370219   0.4351186  -0.0200144  -0.1218907  -0.0427740
   0.1810872  -1.3179442   0.3591905  -0.4522026  -0.7145598   0.6358158
   0.2692715  -0.2442646   0.1771700  -0.1699642  -0.2350486  -0.0652261
   0.2541276   0.8526881   1.0845018  -0.3259893   0.0530769  -0.0472946
  -1.1790052   0.2941869  -0.6605175  -0.9544147   0.1850821  -0.6600722
  -0.1827948   0.0490002  -0.1220088   0.0698579  -0.8994807  -0.4395919
  -1.4473013   0.7871667  -0.2944301  -0.0516339  -0.0374738  -0.1195364
   0.6999903   1.1614367  -0.1772795   0.7540811  -0.6592599  -0.2214623
  -0.0024597  -0.0390648  -0.4090191   0.6594520   0.1010749  -0.6100062
   0.0536774  -0.9734461   1.2515763  -0.1522618  -0.2944396   0.0447410
  -0.8739479  -0.3037768  -0.3736247  -0.0171336   0.2372700  -0.2993838
  -0.0432830   0.3291640  -0.1649939   1.6075083  -0.6663249  -0.0738742
  -1.1383570  -1.1117681   0.8714280   0.0439992   0.0628737  -0.1847316
  -0.7207283   0.9472216  -1.0667811  -0.1093991   0.9245214  -0.0136726
   0.1646883  -0.0092254  -0.1336480   0.0779981  -0.7071498  -1.2655876
   0.1741760  -1.1511364  -0.0139485  -0.2932543  -0.3077072   0.0823541
   0.2829012  -0.5301629  -1.0961853  -0.6216614   0.1799436  -0.0395368
  -0.2396734  -0.0975782  -0.1380607  -0.7126305  -0.0418103  -0.0095827
  -1.4109532  -1.5803478  -0.1164931   0.3321463  -0.0512253   0.0601161
  -0.7956104  -0.3805291  -1.0249131  -0.1889571  -0.2062007   1.9233924
  -0.2135175  -0.1637012  -0.1585463   1.5734899   0.0637439  -0.6662831
   0.3284117  -0.5744338   0.0968343  -0.0982427  -0.0016294   0.0684109
   0.2370681  -0.7308628  -0.8542951   0.0562450  -0.4393434   0.5314081
  -0.0887407  -0.1147556  -0.2279062   0.0487899   0.3610448   0.2182501
   0.5881073  -0.3682215  -0.7595051  -0.2761944  -0.2238942  -0.2733542
  -1.0189254   0.1721042  -0.6975182   0.5573685  -0.9841082  -0.3889056
   0.0036415  -0.4317217  -0.0003857  -0.3751775  -0.3288904   0.8421363
  -0.8758813   0.2921081  -1.1114812   0.1724951   0.1593527  -0.0064465
  -0.7035129   0.0137634   0.3627743   0.2347978  -0.8125174   0.8420775
  -0.2895287  -0.3856020  -0.0023091  -0.2470458  -0.2538123   0.5753242
   0.5317482   0.6645741   0.4824061  -0.0808255  -0.4315800  -0.0548442
  -0.5556645  -0.4857038   0.8409190  -1.2523911  -0.4981355  -0.5224212
   0.1118491   0.1877079   0.1455127   0.5004199   0.1359127   0.4693376
  -0.2092254  -1.1125979  -0.5913005   0.1222180  -0.1056630   0.1161943
  -0.3287122  -0.3863752  -0.3458514   0.5752931   1.0415527   0.7701094
  -0.2511888   0.0021006   0.0281843   0.4952296  -0.1623800  -0.1386850
  -0.2144856   0.4263648   1.6263901  -0.0325103   0.2172927  -0.2588985
   0.4537817   0.4704926  -0.9563684   1.2139168  -0.7983930   0.7870499
   0.0788760  -0.0678719  -0.0721994   0.5934819   0.9012425   0.7158159
  -0.7590123   0.0148370  -1.1862042   0.2184557   0.0220507  -0.2907052
   0.4245549  -0.2742347  -0.4463254   1.8821020   0.5996504   1.0828382
  -0.0460896  -0.1385449  -0.1312837  -0.9062278   0.4233110   0.6190050
   1.2745191  -0.6012978   0.3235228   0.0112932  -0.1561331  -0.3502704
  -0.2270205  -0.1055881   0.1248339   1.2681498   1.7870529  -0.8678149
  -0.0190924   0.0642230   0.1360596   0.8203153  -1.0740940  -0.2950211
   0.7861891  -0.0129388   0.5177199  -0.0286778  -0.0209725  -0.1487610
   0.9735939  -0.9245093  -0.7060867  -0.4957591   0.9638016   0.6442976
  -0.0634953   0.1076701  -0.1595452   0.3056353   0.0827682   0.5907062
  -2.3485315   0.9600625   0.8933639  -0.2773610   0.1648289   0.0539827
   1.3000715   0.6559770  -0.3744752   0.1688501  -0.2602600  -0.1070970
   0.2421177  -0.2049571  -0.3891291   0.1597262  -0.1545184   1.8626958
  -1.0493783  -0.5046118   1.0231000  -0.1581165  -0.0910526   0.2449836
   0.2142969  -0.9155810   0.7428179   0.1750504  -0.7688322   0.6712626
  -0.0087502   0.0824820  -0.1548567   0.8929789  -0.8705636  -1.3281425
   1.1632624  -0.6572837  -1.0476695   0.3311503  -0.3961982  -0.0216152
  -1.9974943   0.1698499  -0.4738731   0.6583981  -0.2253868  -0.5315999
   0.0171064   0.0471305  -0.0290850  -0.7473651   0.2119553   0.3092120
   1.3029342   1.0609209  -0.8231836   0.0741909  -0.0305230   0.0487838
  -0.7502347  -1.2181078  -0.1910217   0.6597083  -1.1599598  -0.3397917
  -0.2284660  -0.1148136   0.3208463   0.0309581   0.1063621  -0.7388755
   0.1478514   0.6587402  -0.0463543   0.0624614   0.2249590   0.1305184
  -0.2356171  -0.1613504  -0.3845116  -0.2202303   0.8305412   0.2989084
  -0.0069501  -0.1921848   0.0976838  -0.0483445   0.5221065   0.3542320
   0.4538701  -0.0075565   0.0421754  -0.0687247  -0.0356879   0.0956719
  -0.8678904   0.2912693  -0.5501032  -0.1776138  -0.9216479  -0.3969814
   0.0685463  -0.1409027   0.1814014  -0.9564284  -0.4341938   0.1969767
  -0.2245602  -0.0324854  -0.4848223  -0.0442010   0.1510990   0.3072973
   0.4370140   1.3634425   1.5468031  -0.2908104   0.2055058  -1.0195177
  -0.1336499  -0.1366085   0.1395061   0.7581253   0.3167192   0.0115636
   0.3415135  -0.1357082   0.0055808   0.1852214  -0.0262970  -0.4950530
   0.1006425  -0.5298441  -0.0932223   0.3290701   0.0741581  -0.7404500
   0.2005597  -0.2058628  -0.1691638   0.4800937  -0.4356024   0.2006863
  -1.5818884  -0.0701105   0.7246278   0.3921545   0.0292393  -0.1099812
   0.9330188  -0.7644439  -0.5077981  -1.2109042  -0.4841073  -1.3460643
   0.4128335  -0.0252350  -0.0085720  -0.2941025  -1.6009075   1.2784845
   0.1991058  -0.1936485  -1.6090288  -0.1094386   0.0160861  -0.0584232
   0.2506503   0.3781448  -0.7182914  -0.7470352   0.5861063   0.4531152
  -0.0759970   0.0732821   0.2509389  -0.0766925  -0.3535764   0.1263033
   0.3838659  -0.7023369  -0.5965258  -0.2079375   0.0443777   0.0374639
   0.2002740   1.2126124  -0.3730903   0.9136771   1.1662592   0.6711342
   0.0271822  -0.1445007  -0.0678529  -0.1056085  -0.5748962   0.5320956
  -1.4398784   0.7067019   0.4606370   0.0379466   0.3302569   0.1607829
  -0.3895911   1.0811455  -0.6973992  -0.7179957   1.2797682  -0.3760170
   0.1120977   0.2674660  -0.2828971   0.4953391  -0.4699099  -0.0696448
  -0.0252866  -0.5598858  -0.1707273   0.3224146  -0.2191182   0.1911544
  -0.9341785   0.5916199  -0.6396929   1.1770942   0.7757681  -0.4981952
  -0.1153365   0.1164641  -0.1396624  -0.0635050   0.9898241   0.0373360
  -0.0889795  -0.2645172  -1.5576461  -0.0056643  -0.2275867  -0.4379808
   0.0641189  -0.8486813   0.2862210  -0.1774835   0.9807349  -0.6565937
  -0.0963727   0.1389770  -0.0171725   0.5107135  -0.2117998   0.0816391
   1.5379917  -0.4013256  -0.7245325  -0.1651751  -0.1255894   0.0051501
   0.0093582  -0.2543247  -0.3920898  -0.0215346  -1.4923045  -1.0615851
  -0.1446624  -0.0474551  -0.0286726  -0.1098908   0.0245742   0.0999445
   0.0610808   0.2907968  -0.9121402   0.2478970  -0.1327187  -0.0515211
   1.4087975   0.3896386  -0.3886499  -0.3495481  -1.1786920   0.2589303
   0.1255137  -0.3593006  -0.0037073  -1.1739570  -0.0059955  -0.8361321
   0.4502296  -0.4983986   0.6505148  -0.0843470   0.0747250   0.1110043
   0.4597518   0.1801781  -0.0390997   0.5292090   0.0479247   1.6583964
  -0.2597939   0.0384130  -0.0552850  -0.0886887   0.3600485   0.9126746
   0.9300170  -2.7238220   0.2213332  -0.3928274  -0.1532958   0.1951106
  -0.1480508  -0.8742247  -0.8655807  -0.4562575  -0.0388918   1.4433729
  -0.2803128  -0.0434291   0.0481868  -0.1831699  -0.5590240   1.2998687
   0.4474567  -0.6482752  -0.0110252   0.0727137  -0.3220066   0.1702963
  -1.0296091  -0.7662262  -0.1142747  -1.0403336  -0.2447521   0.9661500
  -0.0019269  -0.1597889  -0.2459511   0.0866418   0.3896516   0.0300435
   0.8800934   0.8690026   0.2338179   0.3397903   0.3261406   0.0314618
   0.4680540  -0.5197973   0.2280542   0.6947007  -1.2863006   0.1870290
   0.2451836  -0.3578571  -0.2396796  -0.0515981  -0.2329359   1.0778219
  -1.0252943   0.2180060  -1.4428800   0.1715837   0.1165083   0.2440009
  -0.1976229   0.5349419   0.2915554  -0.5988524   0.0928893  -0.7297130
   0.0222284   0.0415019   0.1247152  -0.2604305  -0.3238004  -1.3813832
   0.7013376  -1.0205132  -1.2944822  -0.1231268  -0.3157745  -0.1196967
  -0.8985974   0.1655359  -0.4995636  -1.1370779   0.2598056   0.6172213
   0.5092951   0.0300301  -0.0742842  -0.1699962  -1.6137292   0.9387319
   1.0075042   0.0914292   0.1099508   0.1514362   0.0122099  -0.2988056
   0.6099203   0.4306753  -0.3067424  -0.4031206   0.8396504  -0.0087146
  -0.0774789  -0.2821089  -0.0636452   0.6111821  -0.1157974  -0.9399284
   0.5385880   0.4763244   1.4473596  -0.0171938   0.0808075  -0.3215429
   0.5761855   0.2736255   0.3280645  -0.1082222   0.0521594   0.5209350
  -0.2499651   0.1153765  -0.1031556   0.8278543  -0.5283731   0.7604832
  -0.5862046   1.2137312  -0.0946520  -0.2395116   0.4560459  -0.0370960
  -0.0485980   0.1555981   0.7263929   0.7389559   0.7126722  -0.4254460
  -0.1181788   0.1206766  -0.0876734  -0.0039944   1.4174350  -0.0433895
  -0.3731118   1.3415259  -0.4123871   0.3647955  -0.0673314  -0.1221019
  -0.6372099   0.7402039   0.1938314   0.0694007   1.4173224   0.4166474
   0.1807066   0.1841986  -0.1697453  -0.8384019   0.9820126   0.0687537
   0.2226085   1.0144522   0.6873939  -0.2879475  -0.0544250   0.0192534
  -0.5607317   0.7541443   1.2451575   0.6547894  -1.9472749  -0.9797734
   0.2826995   0.3463550  -0.0253803   0.2531172  -0.2974323   0.8252850
  -0.4654449   1.0466435   0.3894984   0.2326811  -0.0996337  -0.0172748
   1.0968648   0.2804501   0.2338337  -0.7525097   0.3999959   0.6392232
   0.2829406  -0.2984485  -0.2618757   0.5468059   1.7274047   0.0805467
  -0.8483271   1.2271925  -0.9471871  -0.0452453   0.0451669   0.2470571
   0.8671622  -0.2526875   0.7803348  -0.7778948  -1.2329259  -0.0968649
   0.0201212  -0.3616699   0.2874549  -1.5108894  -1.0330289   0.0695440
   0.2551364   0.7314521   1.3467072   0.0082605  -0.0719318   0.1106418
  -1.0930654   2.2625701  -0.8812676  -0.8095470   0.4957978   0.8486427
   0.3176004  -0.1555138  -0.3413990   0.4826688  -0.4913909  -0.2793487
   0.9838534   0.0927124  -1.8826276   0.1755168  -0.2716626   0.1056031
  -0.2870712  -0.8707099  -0.2922194   1.0622297   0.2085709   0.2496962
   0.0067462   0.0931391  -0.1193304   0.2410275   0.2460768  -0.8749483
   0.4664096   0.4178898  -0.9970980   0.1889294  -0.2240646   0.1510061
   1.0254638   0.1480672  -0.5761875  -0.5391602  -0.3026739  -0.4057098
   0.0068035   0.2074912  -0.3622866   0.2915025   0.6387578   0.0810811
  -0.7214795   0.0640782   0.2603987  -0.0196024  -0.1410379   0.0576872
   0.7591730  -0.5088451  -0.2708676   0.8136053  -0.1167868  -2.2017138
  -0.1452191  -0.0976490  -0.2694508  -0.5356257  -0.0477829  -0.1587369
  -1.2318277  -1.2705827   0.3379891   0.2937178   0.1895646   0.2246075
   0.6540400  -0.4966493   0.0327849   0.2771172   0.7345755  -0.5539862
  -0.3172119   0.1670308  -0.2209390   0.7720515   0.2901371   0.2756612
   0.2603549   0.1551963   1.1404674   0.0410844   0.0336077  -0.1441994
   0.0515754   0.3985483   1.0282000  -0.0762523   1.2968685   0.7023934
   0.0342129  -0.1668402   0.0364904   0.8533093   0.9144268   0.5068529
  -0.0023236   0.3762357   0.1178461  -0.1267119  -0.1581012   0.3994825
  -0.5735884  -0.4006293   0.6383967   0.4064824   0.5521815   0.7500888
   0.0726069  -0.0284933  -0.0587788  -1.4940381   0.2059808   0.0074634
   0.6185490  -0.4476285   0.1726128  -0.0132856  -0.4869439   0.1010552
  -0.9352467   0.6845535  -0.6584244  -1.1504040   0.4720062   0.9118388
  -0.0515314  -0.2582982   0.0857652   0.0849467  -0.3609849  -1.2534349
   0.9591251  -0.9130623   2.3610239   0.1136418  -0.0645730  -0.0932324
  -0.8382614  -0.3349545  -0.8259474   0.4287495   0.5208063   0.7057726
   0.2510855  -0.2289158   0.1086673   0.0063961   1.8126890  -0.3064151
  -0.5125454  -0.6803650  -0.2272685   0.0319870  -0.1847317   0.3620766
   0.3734189   0.1190251  -0.1277045   1.5261652  -0.2499395  -0.1017391
  -0.1141700  -0.2228277   0.2421776   0.1727781  -0.5240792  -0.3472568
   1.9780558   1.2938192  -0.2331221   0.0460350  -0.0146121  -0.0534561
   1.0389463  -0.1183392   0.4669060  -0.1866623  -1.3897434  -0.2577411
  -0.2509393   0.0624001   0.0393309  -0.4538667  -1.0782229   0.0965648
   0.6092165   0.7149056   1.0042326   0.3818599   0.3321976   0.2707445
   0.0420760  -0.8271936   0.3185071   0.2963802  -0.9485486   0.9026428
  -0.0083767   0.1811659   0.3211320  -0.7309432   0.2694597  -0.0330949
   0.5637414   0.6711518  -0.0551000   0.1458556   0.2051933  -0.0242620
   0.0253861  -0.9441954  -0.1351694  -0.2530673  -0.1322496   0.7854828
   0.1080895   0.2595730   0.1630678  -0.4757196  -0.1104730   0.2597989
  -0.5702884   1.4496927  -1.1575650   0.2092934  -0.1073935   0.3666709
  -0.2944638  -1.4125035  -0.7510095   0.9465856  -0.8065952  -0.7161842
  -0.0858760   0.2974330  -0.5028544   0.4167053  -1.0949862   0.2091466
  -0.5994167  -0.5815694   0.0149902  -0.0563957  -0.3249869  -0.3903031
  -1.5954187   1.2447335   0.2011094   0.0055252   0.3241626   0.4179357
  -0.0423896  -0.1947990   0.0674473  -0.0095988   0.6001102   0.8346547
   0.1419341  -0.0188322  -0.0624696   0.3892847  -0.2882384   0.0972461
  -1.5023689   0.1113060   0.0280008  -0.3319174   1.3259159  -0.0796174
  -0.1953387  -0.0808315   0.0269991  -0.8504146   0.6218715   0.3692792
   0.2768720   0.3583817   0.6562578  -0.0145541  -0.1013968   0.0349268
   0.3260000   1.1721364   0.2345717   0.3110556   0.0770725   0.3085413
   0.1890696   0.2468679  -0.0098416  -0.6652534  -0.5803697  -0.2628049
   1.3132102  -0.7444574  -0.5937439  -0.1632637   0.0463843   0.0844495
  -1.1302745   0.1575756   0.2687296  -0.7637813   0.5390842  -0.3964774
   0.0299043  -0.0467746   0.1527173  -0.1436937   0.2050881  -1.2487238
  -0.3103654   0.0185588  -1.3499012   0.0321567   0.2103192   0.1086183
  -0.1599109   0.1329107   0.6802306   0.1658629   0.5348218  -0.1234418
  -0.3183720  -0.3588476   0.0770896  -0.4772451  -0.2894696   0.6333943
   0.1243210   0.1464940  -1.1642183  -0.1342486  -0.0826661   0.0474052
   1.8885471  -1.0584550   0.7398723  -0.6318706   0.0774007  -0.1834287
  -0.3516828   0.2222288  -0.0467313   0.6240185   0.5887394  -0.4675655
   0.2522679  -0.9437904  -0.7245800   0.1309280  -0.0922090  -0.3431429
   0.4629866   0.1375236   1.5196732  -1.3551458  -0.1236568   1.5209904
   0.2807937   0.3970081  -0.0303763  -0.1874615   0.8250511  -0.1965002
   0.5511812   0.1065912   0.2815109   0.3413907   0.0673727  -0.5265134
   0.1159509  -0.3412950   0.5682260   1.0466108  -1.8955853   0.3346296
   0.1169608  -0.3968032   0.0545415  -0.1056072  -0.2088867  -0.5168281
  -1.0128472  -0.2318369  -0.1377692   0.0163663   0.0097490  -0.3563798
  -0.0712881   0.1689568  -0.6886959  -0.7727033   0.7737589  -0.7037471
   0.0404187   0.2685614   0.0445599  -0.8292632  -0.7805552   1.1662597
  -1.5907132   1.5289365   0.9960219  -0.0761007   0.3086618  -0.0286020
  -0.5392612   0.1868352   0.4868640   0.6773419  -0.3461124  -0.1479626
  -0.0334122  -0.1141288  -0.0690167   0.5080218  -1.9209802   0.0817878
  -1.1477665   0.2797727   1.4837641  -0.0130016  -0.1343093  -0.1454427
  -0.7638659  -1.5643863  -0.9175720   0.3263994  -0.7156236   0.5493792
   0.4579144  -0.1967468   0.1000013  -0.1746115   0.7929251   0.3816525
   0.7409357   0.7411894  -0.8892395  -0.1234070  -0.2686913   0.3943262
   1.0873095  -0.0886660  -1.6464023  -1.2634341   0.5853189  -0.6924408
   0.1138048  -0.0490755   0.1482250  -0.4468412  -1.2896163  -0.2552133
   1.1645902  -0.3973099   0.2183165   0.0632535  -0.0330719   0.0153542
  -0.2781945  -1.3193490   0.4448965   0.2450092  -0.3875803  -0.9212906
  -0.2193756  -0.1136056  -0.1205305  -1.4953420   0.4562904  -0.3508069
  -0.5379738   1.1535371  -0.1609863  -0.4229071   0.0376653   0.3026468
  -0.4954511   0.9751000  -1.4772977   0.9904752  -1.3252213  -0.9025469
  -0.3094344  -0.0386985   0.1887599  -1.0974842   0.1777888  -0.3983489
   1.0845822   0.1407821  -0.1555829  -0.4861743   0.1326725   0.3605583
   0.4181631  -0.1137218   0.2265488  -0.3367947   1.0413309  -0.8853586
   0.0238350   0.0503133  -0.0290161  -0.2082086  -0.1674414   0.7428720
  -0.0796846  -0.1611651  -0.7921560  -0.0487212   0.3100759  -0.0238701
  -0.1938241  -0.9046363   0.4444071  -0.0672943  -0.0861230  -0.3477257
  -0.2518415   0.0570992  -0.1022474   0.4119027   1.9053956  -0.4292846
  -0.5008984   0.2125151  -2.1184429  -0.2913988  -0.0537395  -0.1915968
  -0.0252605  -1.0835325  -0.7733049   0.9199013  -0.7399092  -1.7824726
  -0.1149248   0.0578896   0.0198331   1.2869501  -0.3496143  -1.1939784
  -0.8957049   0.3094076   0.4266067   0.1762821   0.1617150  -0.3910140
  -0.5260136   0.1543437   0.7518340   1.1232239   0.7262872   0.5205274
   0.3088652  -0.0296448   0.1465659  -0.2925246  -1.2551957  -0.4891579
   0.2675450   0.2648549  -0.2107282  -0.1443004  -0.0779167   0.1392711
  -0.5825876  -0.0459131  -1.0800779  -0.4321487  -0.0905364  -0.5363080
  -0.2907158  -0.1931548   0.3742858  -0.7991275   0.4864217   1.6062639
  -0.1694492  -0.6919695  -0.8539883   0.0647968  -0.1321296   0.1075988
  -0.4822626   0.1079019  -0.0086544  -0.2670158  -0.7998307  -1.1700551
   0.0805743  -0.5511020   0.0888658   0.4121177  -0.6766119  -1.6542876
  -0.2008303  -0.2479258  -0.0362008   0.1076472   0.0797047  -0.0748374
  -0.6818631  -0.1250310  -0.8387658   0.7781484  -1.6084968   0.3621415
  -0.1153220  -0.1414139   0.1772761   0.4216959   0.0680835  -0.0166896
   0.0157597  -1.0958511  -0.0959904   0.1390093   0.1717620  -0.1427706
   1.0868020  -0.5859338  -1.1956719   0.8409217  -1.3247843  -0.7335246
  -0.1528883   0.2091364  -0.1977270   0.9099832  -0.3340906   0.6798161
   0.2188489   0.0931112  -0.1303791  -0.0358308  -0.2458118  -0.1569187
  -0.3077785   0.8748640   0.4100889   0.6750358  -0.3046814   0.3338623
  -0.1669961   0.1432286  -0.0526209   0.6742420  -0.1039903   0.0427031
   0.7957944  -0.2406148   0.3081221  -0.0922434  -0.1245824  -0.0798321
  -0.5399339  -0.2868812   1.5075082   0.1243986   0.6795844  -0.0098041
  -0.0509293  -0.5102991   0.2099744  -1.1138460   0.5002960   0.1033616
  -0.7823257  -0.0673964  -1.2396949   0.1190394  -0.1208366   0.1158098
  -0.8720760  -0.9187185  -0.7426922  -0.6924405  -0.7258877   0.2735138
  -0.0426962   0.1327587   0.1860914  -0.0871318  -0.5024399   0.1839829
   0.2105679   0.0537511  -0.0066964  -0.2116353   0.1973845   0.1378250
   0.3080771   0.8785907  -0.5244221   0.2377101   0.7882001  -0.5611615
  -0.2859076   0.3416912  -0.1626727  -0.8514649   0.2541571   0.9503319
  -0.0008167  -1.1217916   0.3251204  -0.2718684   0.5410099  -0.2336372
  -0.9669817  -0.2374162   0.4997717  -0.1623219   0.9871345  -0.4753310
   0.0629982  -0.2443785   0.0407332   0.7553566  -0.5063487  -0.8405477
  -0.2666640   0.2341697   1.5812349  -0.0175125  -0.0018509   0.1961389
  -0.0677316   0.7584980  -0.6743444   2.1765498  -0.7044671  -0.5414798
  -0.0203092  -0.0325044   0.3623391   0.4258429   0.8482151   0.2608429
  -0.3797864   1.1885276  -0.2428771  -0.3807982  -0.0487841   0.0771574
  -0.2563217   1.0571533  -0.7492458   0.7065332  -1.5345465  -0.4566091
   0.0075902  -0.1638542   0.0638280   0.7304287  -0.5198444   0.7246660
   0.9352915  -0.8906587  -0.5780014   0.5174548   0.1356038  -0.1150107
   0.3111442  -0.9226232  -0.9698707   0.1264404   1.4984029   1.2100600
   0.2624678  -0.0839370   0.0050101   0.3856452   0.2351637   0.1318511
  -1.1186099  -0.4928844   0.5057892   0.1399353   0.1001035   0.0073954
  -0.2868777   0.4266529  -1.4536676   0.3508798   0.2932814  -0.3579907
  -0.2079644  -0.0308319  -0.0917765  -1.1927777   0.1781400   0.5893199
   0.6527175   0.3623459  -0.4217703   0.0656811  -0.2054972   0.0132682
   0.7818623  -0.7990366  -1.3050160  -0.4658437  -0.2814240  -1.0124568
  -0.3618804   0.0947692   0.1183750  -0.1412860  -1.1184140  -0.0421201
  -0.2983570  -0.4186642  -0.3833760   0.1167226   0.2605024  -0.1747083
   0.4658364  -1.0058118  -1.5616670   0.0045960   0.0802485  -0.3209385
   0.1644648   0.2621026  -0.1401690   0.3626328   0.0054995  -0.4039983
   0.9053364  -0.1901471  -0.2672168  -0.2887028  -0.2463052  -0.3580483
  -1.0567667   0.3169478   1.0547693   1.3572919   0.6496682  -0.9560189
  -0.2351239   0.0860060   0.2971950  -0.3612906  -1.8304674   1.4031379
  -0.4343315   0.2103688  -0.3260617  -0.1440460   0.1340912   0.2170781
   0.0681636   0.2562174  -1.6726356  -0.0647044   0.3975646   0.5701455
  -0.1326694   0.0508357   0.1802716  -0.9139418   0.1382379  -0.7018793
  -0.5689327   0.6360396  -0.6795586   0.3155430   0.0790037  -0.1027850
   0.3939995  -0.8076764  -0.0438584  -0.6506212  -0.3059784  -1.0033237
   0.1751925   0.0668176  -0.0134008  -0.3080489   0.3966305  -0.0534354
   0.0822955   0.1338389  -0.2476202   0.1849964  -0.1992656  -0.2082572
  -1.2864552  -0.2127486  -0.7978525   1.1807742  -1.2418499  -0.3758934
  -0.0913865   0.1361611   0.0406480  -0.6010171   0.0103472  -0.2191421
   0.7565305   0.8687743  -0.1438254  -0.2635570   0.2544123  -0.0539020
   1.3545959   0.1325839  -0.5390266  -0.1398828   0.3121746  -0.7263797
   0.0483683  -0.0183581   0.0191305   1.1240771  -2.2341229  -1.2671343
  -0.4173525  -0.8309917   0.1805552  -0.1545419  -0.2232997   0.0962772
  -1.3446804  -0.6737674   0.4523328  -0.6648116  -0.7383410  -0.0984137
   0.2779849  -0.0489247  -0.0944458  -0.3580915  -0.0535958  -0.5568285
  -0.3038711  -1.4837656  -0.1609560   0.0303686   0.2037267  -0.1116430
  -0.2503646  -0.7244253   0.4076016  -0.4258895   1.0245693  -0.5117957
   0.1613126  -0.0139193   0.1101534   1.4616549   0.6586525   0.3806773
  -0.8820691  -0.7983488   1.1142008  -0.2494176  -0.1483650  -0.0446136
  -0.6295817  -0.0498020   0.0581052  -0.0784080   0.1523987   0.6339590
  -0.0800172  -0.0331315   0.0295269   0.2023022  -0.3296715   0.7298552
  -0.1624518   0.0698313  -0.0931870   0.0949902   0.3573690   0.1334761
   0.3969534   0.1657843   0.2227388   0.5270820  -0.6033598  -0.3276549
  -0.2692734   0.1233906   0.0572367   0.0071950   0.0119221  -0.4259517
  -0.1768208  -0.7000773   0.3850392   0.0010544  -0.0044471   0.0485402
  -0.1386031   0.8519752  -0.0280365   0.3200495   0.0150430   1.0734583
  -0.0505033  -0.0868985  -0.1726036  -0.0118043   0.5040005  -0.0469756
  -0.3515096  -0.6885841   1.0348002   0.2588627  -0.0879208  -0.0878523
  -0.2021604   0.6627487   0.2909632   0.5164299  -1.2175521   0.3251553
   0.2416769   0.1861597   0.5568186   0.2096965   0.5807910  -0.6026354
  -0.2325697  -1.6160020   0.3091394   0.1734815  -0.2337484  -0.1613135
  -1.0084140   0.9162144  -0.0692897   0.5458535   0.2494948   0.6620776
  -0.1446669   0.2728479   0.3744346  -0.0761780   1.3482650  -0.7201614
  -1.0148218   1.0672881   0.9170919   0.2270570  -0.0273122  -0.2420980
  -0.0261919  -0.7464087   0.1073093   1.2778578  -0.2485394  -1.9179357
   0.3202065   0.0752753   0.1501897   0.4259296   0.5012809   1.1664613
  -0.9480402   0.1961680   0.0918737  -0.4015545   0.0345311  -0.3265669
  -0.3124110   0.7306622   0.8282694  -0.0665667   0.6518111   0.1907326
   0.0647042   0.2234307  -0.1144534  -0.0390070  -1.2527730  -0.4357280
  -0.0209303   0.8815784  -0.0992155   0.1299644  -0.1078472   0.1282924
  -0.3681184   0.7619762  -0.1844146  -0.4015712   0.5705185  -0.5682096
  -0.1241200  -0.1263598  -0.3143114   0.1729865   0.0644341  -0.8582026
   1.6020699   0.2717211   0.3632436  -0.1240395  -0.2755358   0.1148726
   0.1329764  -0.2162779  -0.3753454  -1.3665021   0.9595232   0.7295321
   0.0815962   0.0362120   0.2349055   0.4524252  -1.5852014   0.7303250
  -0.0983209   0.1741516  -1.7782356  -0.0469371   0.2869693   0.0311629
   0.0910075   1.3215588   0.1460604  -0.4202449  -0.7892794  -1.0263078
  -0.0355363  -0.2109154   0.2162145   0.4406214   0.4321252   1.9580072
   0.0062804  -1.8073189   0.0887570  -0.0290231  -0.3477347  -0.1092567
  -0.6457288  -0.4343732   0.4473978   0.6396812  -0.1638023   0.2716007
  -0.0619895   0.2260026   0.1308743  -0.1799455   0.0971533   0.9596959
  -0.5287961   1.1105888  -0.7453489   0.0427390   0.2149366   0.2531348
  -0.0484658   1.7349751   0.7888299  -0.4566420  -0.9695118  -0.1672032
   0.1376045   0.0989466  -0.1364533  -0.7895821  -0.6856712  -0.2488261
   0.7393935  -0.0819716   1.8583990   0.0484569   0.0283860   0.0585072
  -0.3210994  -1.0475147   1.2424248  -1.9909532   0.6280858   1.6087278
  -0.1352605   0.0793127  -0.1714857  -0.1331938  -0.2031256   0.4064584
   0.8732778  -1.3165421   1.7024891   0.0235593  -0.2769971  -0.0975675
  -0.5525176  -0.1155871   1.6652611  -1.0991720   1.5643653   0.6847258
  -0.0796172  -0.0772621   0.1458937  -0.7434525   0.5186649  -0.9356363
   0.6901111   1.1602282  -0.6804191   0.0440294   0.3698527  -0.0844531
  -1.1173005  -0.7626340   0.4354740   0.4103528  -0.2244054  -0.0270244
   0.0765494   0.0086974   0.0939963  -0.8448681  -0.4286202  -0.1505784
  -1.3759562   0.5497593  -0.1864820   0.0687227   0.0553777  -0.0078132
   0.5205434   1.0587835   0.4357434   1.3041406  -1.8867550   0.4928027
  -0.1383506   0.0262406  -0.1711852  -0.2474341  -0.8376986   0.2102386
   1.3922504  -1.1933587   1.3220297  -0.2828403   0.0376948   0.1593604
  -0.9919033   1.2725305  -0.3742660   0.2295305  -0.7797498  -0.0282440
  -0.1231909  -0.0422319  -0.0799881  -0.6097253   1.1555946  -0.3506712
  -0.0058770   0.4734461  -1.1465996  -0.2860412  -0.0356743  -0.0955092
  -0.4017250  -0.3713288   0.1427677  -0.2577027   0.8980385  -0.1729890
   0.0832685   0.2801403   0.1685250  -0.6198475   0.1335965   0.2482824
  -0.1880221  -0.6916846   0.0663274   0.2434700  -0.4274074   0.3744269
   0.3126385   0.4784985   0.4788121   0.2715035   0.3849972   0.6699517
   0.2239694  -0.0501753  -0.1954643  -0.3915138   0.8322638  -0.6451701
  -0.5860163   0.3484418  -1.1311758  -0.0102263  -0.1200597   0.3199376
   0.4287233  -0.9964242  -0.9496467  -0.2070619  -1.0939462   0.2115727
  -0.2254827  -0.1476893  -0.0331419  -0.3816763  -0.8845064   0.0404681
   0.3998222   0.7991069  -0.3950171  -0.1447487   0.0734608  -0.0698617
   1.5185625  -0.9385772  -1.5331049  -0.6301223   0.8491233  -0.2641108
   0.0364121  -0.0169413   0.0829940   0.6187311  -1.1200032   0.0806388
   0.8210309  -0.7062193   0.6647737   0.1993003   0.0048689  -0.1273286
  -0.0408374  -1.2179595   0.1270237   0.0229516   0.6534163   0.6632944
  -0.0586737   0.5481840  -0.2493855   0.1438556   1.1883542   0.7080346
  -0.9610332  -1.0419530   0.3173687   0.0500760  -0.2046965   0.0534147
  -0.2056195   0.7456816   0.1133165   0.4017115   0.0900837   0.9901525
  -0.1744201  -0.1829422   0.1878897  -0.6599725   0.2020698  -0.3257373
  -0.3831976  -0.5542179   0.4223515  -0.2727591   0.2062880  -0.1333912
   1.0067578   0.6365764  -0.0063605   0.6357100  -0.1360170   0.4411727
   0.4385064  -0.2129362   0.2947151  -0.1629960   0.1586528  -0.6188972
  -0.0823449   1.7245243   0.0174464   0.1843746   0.2148258   0.1633907
  -0.1550248  -0.0517223   0.2488994  -0.2988185  -0.3217977  -0.5855735
   0.1195663   0.2085035   0.1033153  -0.4216767   0.0820213   0.3922031
  -0.1039205  -0.0744039   0.6708313  -0.1441759  -0.4034423   0.0238411
   0.1911733  -0.8031043   1.2845003   0.2610869   0.3924743  -0.1802686
  -0.1329535   0.2535237   0.0319750  -1.4729975   0.7419376   1.0474957
  -0.3928209   0.8479202   0.3449168  -0.0520307   0.3889779   0.5141205
  -0.9445715   0.2373561  -0.0408852  -0.3521865  -0.3992556   1.4973761
  -0.0593473  -0.2379664  -0.0639821  -0.7793438  -0.2414441   0.9623601
  -0.8862152   0.2318718   0.0565909  -0.2666313  -0.2289668  -0.0107345
   0.2910998   0.2752027  -0.7971656   0.0708416   0.1777439   0.1921747
  -0.0368335   0.1872360  -0.3149930  -0.2655544   0.5416678   0.3169447
   0.4725245   1.5833267  -0.3208003   0.1415009  -0.1366346   0.0548986
   0.9998331  -0.3558823   1.2671957  -0.3354077   0.3143578   1.1348256
  -0.0475376  -0.0659545  -0.1854323   0.8453134  -0.0368566   1.2522497
   0.6873081  -0.5984573  -0.6723427   0.2455778   0.0644236   0.3471991
   1.0945218  -0.0066441   0.5131787  -1.4109620   0.1909343  -0.5071601
  -0.0161786  -0.0457695   0.1787087   0.7470182  -0.6203791  -1.0119329
   0.6151614  -1.3803910   0.4517725  -0.1472683   0.0355969  -0.3166130
  -0.3295566  -1.9900394  -0.0158337  -0.5127543  -2.2483626   0.4912165
  -0.0970343   0.3433665  -0.3329828  -0.2868901   1.0219087   0.0905317
  -0.6982844   0.1839891   1.2012434  -0.2169449  -0.2817980   0.4550795
  -0.0549732   0.2489076   0.0317386   0.5480049  -0.0580755   0.9811138
  -0.1139931   0.1216489  -0.0248540  -0.1824512   1.2454665  -0.3972355
  -0.2828313  -1.1716801   0.2520174   0.2392346   0.3343456   0.0879871
   0.1089054   1.1091044  -0.2564313  -0.5037738   1.1235612  -0.7309237
   0.1626815  -0.0265350  -0.0187372  -0.4729665   0.2850017   0.9015805
  -1.6031350  -0.7026200  -1.2572035  -0.0300267  -0.1952073  -0.1782802
  -1.6563914   0.1090009   0.4003781   0.2789522  -0.4340268   0.6272931
  -0.1890964  -0.1765851   0.1396725  -0.5060002   0.6898429  -0.5816021
   0.3191087   0.3384750   0.5797584   0.4860319   0.1779669   0.0457878
   0.8841885   0.0974248   1.4273692   0.2920626  -0.3858294   1.5463438
   0.0708674  -0.0513963   0.2241947  -0.7665225  -0.4511523  -1.1287574
  -1.3445160  -1.0435335  -0.1713508  -0.0113188   0.1613398  -0.1272973
   0.2835718   0.6656025  -0.4923020  -0.0696308   1.0206079   1.5688726
  -0.2888967   0.3680429  -0.0543453  -1.0169549  -0.5953389  -0.0417009
  -0.0877529  -0.3788608   0.7576995  -0.3479578  -0.2593126   0.1141075
  -1.9618367   0.9414658  -1.0041794   2.1150804   1.8410333  -0.5748065
   0.0282465   0.1210514  -0.1235768  -0.7439212  -0.6416415  -0.2862642
   0.3356965   0.7713923   0.8586360   0.2191825  -0.0448601   0.1219787
   0.7134602  -0.1115481  -0.8047362   0.7765295  -0.3876066  -0.9998559
   0.0684159   0.1012181   0.0638214   0.3633734   1.7186910   0.2767595
  -1.3593385  -2.1223904   0.4753010  -0.0914204   0.0535514  -0.1416660
   1.8280569   0.0844659  -0.5090428   0.8654592  -0.8104389  -0.4713691
  -0.2193051  -0.0496420   0.0340800  -0.0428279   0.5676361  -0.8646587
   1.3253601  -0.3515318  -0.3580206   0.1825148   0.1602244   0.1569205
  -0.2370181   0.0276618  -1.0565634  -0.1366257   0.4965708   0.0122448
  -0.4471008  -0.0272003  -0.0676080  -0.3626178  -0.9902169   0.2346181
  -0.2980208   0.1098632  -0.8629023   0.1426084   0.0078667   0.1276758
   0.3267346   1.5399966   0.9707523   0.5987562   0.3642508  -0.1442002
  -0.2781642  -0.2448663   0.1983717  -1.2963791   0.2030744  -0.6914415
   1.0329712  -0.1887744   0.3590126  -0.3390293   0.1922485  -0.2454785
  -1.3641103  -0.3429829   1.0047803  -1.3895477  -0.0910581   0.6889436
   0.0924007  -0.2962456   0.1243271   0.7057196   0.0868365  -0.4510126
  -1.0357402  -0.1467673  -0.0284083  -0.0727335  -0.0698444  -0.2547639
  -0.3095253   0.9563391   0.3403993   0.0566006   0.4236459   1.0886956
   0.1330050   0.0033896  -0.0915913  -0.3277891  -1.3621722  -1.2149356
  -0.4532745  -0.5290359  -0.9580650   0.0773624  -0.2170610   0.1730281
   0.8342415   0.0900457   1.6656916   0.9541953  -0.4937280  -0.0298067
   0.1464712   0.0500264   0.1344218   0.2143637  -0.2112806   1.1232312
  -0.3432219   0.3611349   0.5633475   0.1154783  -0.0463956  -0.0504441
   0.9266685   0.4919456  -1.3102930   0.2048446  -1.4780207   0.9553818
   0.0015302   0.0110522   0.1798731   0.9655630  -0.2237721  -0.0296144
   0.2065875   0.1297497   0.1770828  -0.0183160   0.0527959   0.0897009
  -0.3335527   0.1874583  -0.8003345  -1.1116574   0.8777327  -0.4580675
  -0.0725228   0.1494089   0.0221534  -0.3318193   0.3416296  -0.8852052
  -0.5960454   1.3185139  -0.9783500  -0.1244163  -0.4645910  -0.1459612
   1.0225770   0.4586603   0.3946338   1.1872136  -0.7237188  -0.1113900
   0.2141427  -0.1119122  -0.1586062  -1.3874953  -0.1980118  -0.1835093
   1.6031184  -1.0789498   0.7138374   0.1830846   0.1540794   0.1014584
   0.1073915   1.1198945  -0.6631584   0.6228646  -0.1354132  -0.9124623
  -0.2473589   0.0518655   0.3749679   0.7951644   0.0899519   0.6056702
  -0.1431215   0.7377790  -0.1537316  -0.2264055  -0.2593665   0.1270206
   0.8140327  -0.0259308   0.5510795   0.3613708   0.0361695   0.0800765
   0.1202888  -0.1789545   0.1532353  -0.1702995   0.0697533   0.8267868
  -0.1723631   1.2636329  -0.7902697   0.0524240   0.0663274   0.0614321
   0.1867567  -0.9326333   0.6367262   0.1645579  -0.4140046   0.8480008
  -0.4035720  -0.1171122  -0.1633237   0.9327980  -1.1214243   1.3163089
   1.6052104   0.8038499   0.5467885   0.0336746   0.2189316   0.3048641
   1.1174171   0.2319294   0.4171259  -0.4994572  -0.1767883  -0.5085145
   0.0807062   0.0639939   0.2480224  -0.2558571   1.3367526  -0.1859553
  -0.3690504  -1.9099492  -0.5586453  -0.0584216  -0.0539314   0.1810509
   0.3345696  -1.8901912  -0.9779419   0.7318073   0.1384444  -0.5421866
   0.1060532   0.3620107  -0.1553605  -0.3221166  -0.5934790   0.1970575
  -0.3998462  -0.4037040  -0.3215586  -0.1404578   0.0026236  -0.0388150
  -0.9506713  -0.6268603   0.5371925   0.2238413  -2.5361940  -0.5130390
  -0.0205550   0.0705942  -0.0066036   0.5835910   1.7922354  -0.2481884
  -0.6998396  -0.1848057  -0.0064006   0.0327938   0.1305705  -0.2684815
  -1.0804022  -0.8050166  -0.3347708   0.2705674  -0.1557569  -0.7394209
  -0.2299926  -0.2735367   0.1888042   0.6351628  -0.8911726  -0.2676941
  -0.5333945   0.5584283  -0.2580141  -0.1204451  -0.2232161  -0.0051659
  -0.1228024  -1.1726875   0.5722626   0.8565676   0.7020116   0.2162438
  -0.1671675   0.2420318   0.2342825   1.0200998   0.9592994  -0.4492009
   0.9530280  -0.1689345  -0.6852146   0.1091822  -0.1704851   0.1348432
  -0.7721642  -0.3045429   0.5394659  -1.1620369   0.5008301   0.4868600
   0.0959932   0.0050856   0.1851185  -0.0532760  -1.3868030   0.4377801
   1.4851596   0.6241679  -0.3611375  -0.2348151  -0.2958997  -0.1570032
   1.3520308  -0.5301279   0.5516081  -1.7987335  -0.2031167   0.9324410
  -0.1127773  -0.0943090  -0.1438724   0.2998960  -0.2963090   0.0169906
  -0.9690989   1.1176959   0.3382591  -0.3027634  -0.1425484   0.1920590
   0.9071260  -1.4319179   0.1076584   1.2061198   0.7236247  -2.2591391
  -0.1590326  -0.0483910   0.3298662   0.1425168  -0.6480597   0.6446525
   0.8003295   1.3266613   0.1525686  -0.1020313  -0.0668091  -0.0746523
  -0.0943105   0.3714783  -0.9507514   0.0821051   0.0210712  -0.3773908
   0.5240705  -0.2565558   0.3100275   0.6989621  -0.3187158   0.5188633
   0.2720570   0.1629098  -1.3370888   0.0888645  -0.0361241   0.2866798
   0.8564675   0.3301057  -0.4903932  -0.4647015   0.0958028   0.3927972
   0.0415589  -0.3226624   0.0316009   1.4188153  -0.1856210  -0.1434941
   1.0448495  -0.2840435   0.6326885  -0.2077673  -0.0861160   0.2182545
  -1.7198185  -1.8349441  -0.5989742  -0.1025603   0.0477572   1.0156142
   0.1578125  -0.2967182   0.2317597   0.6136802   0.2419973   0.9166078
  -0.6104580   0.4274140  -2.2949462  -0.0960472  -0.1448020  -0.2831707
  -0.2375663  -1.0746555   1.5170673  -0.2107106   0.2288864   0.0975430
   0.0582151  -0.0915468   0.0951617  -0.7662503  -0.2945687  -0.5986649
  -0.5357420   0.2271369   0.5155731  -0.3023991  -0.0873855   0.0057909
   0.0193983  -0.1309933   0.4050325  -1.5595523  -0.3616208   0.3912115
   0.0212586   0.2181748   0.1087917  -0.9314631  -0.2326150  -0.9415664
  -0.4122451   0.2433737   0.4461830  -0.0435797   0.0928372   0.0736938
  -1.0052926  -0.6045706   0.0672171   0.6419751  -1.0875321  -0.9861086
   0.1714365  -0.0366116   0.0483389   0.2875158   1.4322361   0.0480887
  -1.6488220  -1.3178348   0.0269602   0.0209843   0.1305111  -0.0486756
  -0.9404295   0.6495501  -0.5339979   0.0970896   0.1448426  -0.0114979
   0.2638683  -0.0574706   0.1596168  -0.0330775   1.5875353   0.0931710
  -0.1769553  -0.2185985   0.2662886   0.2607814  -0.1868597  -0.2608962
   0.4543318   0.1753581  -0.1795653  -0.7069365  -0.6194487   0.6973600
   0.3265309   0.3482119   0.2327125  -0.3947318  -0.2548770   0.3590854
  -0.6014330   0.8546940  -0.3358667  -0.0275018   0.1375790  -0.1216537
   1.5918719   1.2429727   0.0628858   0.9745343  -0.5939793   0.0441415
  -0.0659362  -0.1421425  -0.0644160   0.5060123   1.6554441   0.6744197
   1.1925148   0.4956887  -1.0956983   0.1157275   0.0760873  -0.1058664
   0.4781693   0.8152848  -0.9383263   0.2943723   0.0901262   0.0760890
   0.1463075   0.2001071   0.2118319   0.3949038   1.0375526  -0.5721636
   0.6019125  -1.0246591  -0.9141249   0.0310472   0.1220284   0.1942742
  -1.2838462  -0.7206659  -0.6157614   0.3324810   0.4749655   2.6975701
   0.0891073  -0.0395209  -0.0054847   0.1422778  -1.0181582   0.1329813
  -0.1006637   0.1201619   0.7232208   0.5324699  -0.1428762   0.1574314
  -1.5623326   0.3018302  -1.1595710   2.2643255  -0.1621644   0.0691012
  -0.1633254   0.0486792   0.0236329   1.4502481   1.1191764  -0.4323727
  -0.6597844  -0.6900593   0.4406671   0.0984619   0.0666915   0.1037278
   0.0655894  -0.4139609  -0.2749573  -0.2015790   0.0720061  -0.2545787
   0.0323729  -0.0645145   0.2111289  -1.2086899  -0.7585411  -1.2246610
  -1.0390861   0.7487138   1.3494007   0.1835650   0.1595735  -0.1377869
  -0.5849271  -0.0093222  -0.6149849   0.6653665   0.4898349  -0.0789616
   0.1208974  -0.1848591   0.1297333   0.1452544   0.1797562  -0.2357175
  -1.1939569   0.4691735   0.5681587   0.3753745  -0.0165180  -0.0500456
   0.2958031   1.2226917  -0.6633002   0.6873858   0.0251324   0.1716742
  -0.0665867  -0.2829400   0.1395023   1.1381682  -0.3830805   0.0252899
   1.1646613  -1.2688774   0.6389400  -0.1502605  -0.3120172  -0.0735290
   0.7790925  -0.4722054   0.6774800   0.8696267   0.8968386  -0.3216172
   0.0230944  -0.1342282   0.0577889  -0.2058524   0.0825370   1.0756794
  -0.6731349  -0.3414927   0.8136775   0.1158349   0.2155545  -0.0438745
  -0.0796505   0.4683512  -0.2596734  -0.2801620  -0.7484590  -0.8367232
   0.0042662   0.1734161   0.1884926  -0.0439836   0.2839060  -1.7755607
   0.5352561  -0.8060252   0.1756259   0.0065923  -0.3713606  -0.2307002
   0.8193075  -0.9071393  -0.4372527  -1.4772274   0.7118679   0.0128747
   0.3363897   0.1780898   0.0052092   0.0319724   0.1688005   0.1278082
  -1.1084364  -0.0122033   0.0435081   0.3880034   0.0677376   0.0864256
  -0.2930713   1.0036142   1.3477589  -0.4935485  -1.6450755   0.1953983
   0.3360124  -0.3186906  -0.1341778  -0.2021249   0.7944950  -0.5526289
   0.5817357  -0.3260495  -0.8997230  -0.0004833  -0.0354570  -0.0211519
   0.3986206  -0.2900423  -0.2545433   1.3761162   0.0047170  -0.3841863
  -0.2508636   0.3496429   0.2521549   0.1548955   0.6909047  -0.6244106
  -0.1425122  -0.2816813   0.1731393  -0.1415868  -0.0473374   0.2986309
  -0.7131920   1.7061102  -0.7505787   1.1702762  -0.9096115  -0.5899268
   0.3028726   0.1026504   0.0532580   0.0324123  -0.9667648   1.0149025
   0.3766702   0.1525763   0.0739649   0.1136133  -0.2901049   0.0788394
  -1.3358695   0.2135488   0.9086146   0.9904528   0.1446567   0.2919563
   0.1337563   0.3010405   0.1663647   0.0349876   0.5899657  -0.2196855
  -0.8380044   0.2256616   0.2111124  -0.0429366   0.1521594  -0.1786051
  -2.0924060   0.3635766  -0.4823144   0.0852684  -0.6291451   0.2762102
   0.0808960  -0.0155130   0.0531812   0.6605957   0.0234352   0.6229634
   1.0476553   1.5131394   0.8636429  -0.2915825   0.2153200   0.1594965
  -0.0617243  -0.3424340   1.7564218  -0.5409351   0.2281422  -0.1445195
  -0.3034636  -0.2866539   0.0062583  -0.3927317   0.0720351   1.3409133
  -0.5239168   0.1259201   0.6101885  -0.2703507  -0.1696856   0.1103858
  -0.7469576  -0.8144473   1.0335275   0.9653613   0.8458707   0.1485580
   0.1173744   0.1910629   0.2400722   0.7641176  -0.0397120  -1.6108138
  -0.2425086  -0.6139965   1.2222211   0.2703209  -0.0667116  -0.1573425
   0.3685874  -0.6630011  -0.7784818  -0.3852711  -1.0899079  -0.2419007
   0.2104514  -0.2156853  -0.0392836   0.6496924  -0.1317278   1.3988741
  -0.1655538   0.2911478  -0.3197849   0.0126390  -0.1299724  -0.1096192
   0.4786501   1.5824401   0.7126974   0.6067215  -0.3457101   0.0346155
  -0.0653642   0.2390619  -0.2347652  -0.0028928  -0.1532038  -0.0186097
   0.3398856   0.9670922  -0.6185064  -0.3469290   0.1692548  -0.0668630
   0.2006140   0.6105927  -1.1581571   0.3857666   0.9855473  -0.4040656
   0.1492414  -0.1264242   0.2087651  -0.3625968   0.5832517  -0.6156163
  -0.9157430  -0.1268266   0.5839042  -0.3480477  -0.1566258   0.0138794
   0.3954816  -1.1763377  -0.1609215  -1.4184331   0.1041308   0.1770329
   0.2182661  -0.0703648  -0.2189566   0.9058149  -0.9174816   0.2730450
   1.5763567   1.2583839   0.0790589  -0.5015172  -0.0320667   0.1486423
   0.0857725  -0.8404378  -0.1589071   0.6556978  -0.3873109  -1.4729231
   0.0187284   0.3284664   0.0553436   1.2128203   0.3449656   0.8402396
  -0.0598438  -0.0017270  -0.3126522  -0.0044086   0.1432298  -0.0271600
  -1.0477702  -0.8411789   1.0078946  -0.1812455   0.3614255  -0.8327605
   0.2386266  -0.1436781   0.1546781   1.2481443   1.7297527  -0.4327518
  -0.8407134   0.0084277   1.9205461   0.0888420   0.2720722  -0.0795106
  -0.0911745   0.2695099  -0.7997230   0.3592839  -0.7497686  -0.2272889
   0.0008742   0.2410013  -0.3959377  -0.6054528   0.9353160   1.5726576
  -0.6335224   0.2678395  -0.8157158  -0.2249798   0.3123467   0.3234358
   0.9740548  -0.5459104   0.1283094   0.1077709  -0.3407985  -0.4530591
   0.1824194  -0.0563682  -0.1279540  -0.3824639   0.2895017   1.2006492
   1.0037353  -0.1510065  -0.0314340   0.0286638   0.2469989  -0.0036240
  -0.5877500  -0.2027403  -1.3885943  -1.0437196   0.3409586   0.1368555
  -0.3008899   0.6291954   0.0483495   0.0997322   0.9161061   0.8982203
  -0.0399860  -1.1158846  -0.4928866   0.1796425  -0.0134568  -0.2994721
  -0.7605179   0.3671062   0.4078326   0.1456990  -2.0356787  -1.0171129
   0.0249326   0.1692922  -0.0721763   0.1660048   1.3876661   1.2268835
  -0.6879684  -0.9190141   0.2619044   0.3202063  -0.2968524   0.0519904
  -0.6218285  -0.9906443   0.3078436  -0.7398120  -1.1831888   0.0996354
   0.1209429  -0.0027706  -0.0810781   0.0166171   1.6084867   0.3840601
  -0.2894203  -0.7655970   0.5410949  -0.1972923   0.0579946  -0.0895960
  -0.4585106   0.9753104  -0.9929553   0.3830362  -1.3722916   0.0627614
  -0.0273276  -0.0559049   0.0765453  -0.8797558  -0.8986675   0.8816487
  -0.3286329   0.7874770  -0.1342781   0.3893913   0.2144819   0.2253320
   0.2071976   0.6017031  -0.1937091   0.8600157  -0.1404401   1.1895857
   0.1872310  -0.3369498  -0.1038988   0.3984211   1.0390854   0.9520395
   0.4058756  -0.3763625  -1.1551938   0.1428934  -0.5340786  -0.0861843
  -0.4893894  -0.7312766  -0.0697281  -0.2834814  -0.0170352  -0.1112302
   0.0173350   0.1211184   0.0774948   0.5057906  -0.2453393  -0.1794906
   0.9479841  -1.0041048  -0.3115357  -0.1505427  -0.2609251  -0.2158016
  -0.3288780  -0.7033378   0.0769780  -0.1185134   0.4564602   0.6027200
  -0.1766861  -0.2684766   0.2304796   1.1174257   1.2595426   1.5559900
   0.0099825  -0.7856442   0.6979573   0.0156517   0.0229689  -0.2043023
   0.1712841  -1.6103016   0.4573639  -0.7248987   0.8074401   0.4959694
  -0.4309752  -0.0217299   0.0498643  -0.9477710  -0.3939730  -0.8111206
  -1.1123565  -0.7978908   0.5595288  -0.0317522   0.0449257   0.0537063
  -0.5232309   0.9805707  -0.4138350   0.1026342   1.0986348  -0.2144205
   0.2985118   0.1719542   0.3048253   0.6114028   0.2878446   0.0887400
  -0.5007538   0.0064143  -0.5113660   0.2932115  -0.0452810  -0.0655152
  -0.9912224   0.5615336  -0.3106672   0.1419801   0.0088678  -0.8630917
  -0.3044352   0.0267840  -0.1781921  -0.0152649   1.0170835  -0.8932562
   0.0431549   0.3647485  -0.4000898   0.0271187  -0.0739142  -0.0237993
   1.0454581  -0.1506491  -1.2784264  -0.5691619   0.3137802  -0.7518041
  -0.0975850  -0.0011423  -0.0583700   0.9791146   1.6885955   0.5485543
  -1.0571156   1.0732720  -1.5154810   0.2206318   0.1385337   0.0533719
   0.9307073   0.1958548  -0.4463529   0.4365705  -0.3619339   0.7111737
  -0.0983769  -0.2125131  -0.2581785  -1.3392119   0.0501927   0.6269507
   0.1897590   0.1492274   0.6502731   0.0624639  -0.2179254   0.3135687
  -0.5237715   0.6024806   0.3474421   1.7375258   0.9100204   0.6091508
   0.1443823   0.0755045   0.0810243   0.1978162   0.8944918  -0.0478719
   1.1235297  -1.6976427   0.2471310  -0.0842146   0.1768626  -0.5906653
  -0.3207033   0.8476350  -0.3073610   0.2690514   0.4325672  -1.1262571
   0.0313442  -0.2896139  -0.0290313   0.0246143   1.1939472   0.8295867
  -0.5708493   0.5173879   0.1671891   0.2937390   0.0140599   0.1743347
   0.4909420   1.0749368  -0.0318740  -0.2612263  -0.4493557  -0.7232115
   0.2150632   0.1205976  -0.6020159   1.2862664   0.0807995   1.4610386
   0.5393176   0.6274588  -0.0265913  -0.1217964  -0.1999672  -0.0056849
   1.1170791   0.0450108  -0.0599205  -0.7190849  -0.8417112   0.4045532
  -0.3113809   0.2131748  -0.2555769  -0.3266572   1.0282296   0.6586134
  -0.4989470  -1.2202733   0.9218619   0.0050247   0.1873855   0.0855798
   0.6072533   1.4223104  -0.7966190   0.9786413   1.2946590   0.3090419
   0.1607945   0.0639309  -0.2557900   0.4520660  -0.2271852  -0.5079116
   0.5193237   0.9401425  -0.1644051   0.0108837  -0.1187749  -0.2497217
   0.7377018  -0.0318723   0.1412065  -0.0076608  -0.4259812  -0.6570054
  -0.2140236  -0.1586613  -0.1076558  -0.3398611  -0.5384552   0.9211217
  -1.0142749   0.2338407  -0.2601956   0.1514772  -0.2553616  -0.1858387
   1.2486006   0.6690629   1.2446434  -0.6141565  -0.8760548  -0.5081717
  -0.2487966  -0.0947162   0.2356438   0.8658653  -0.4305874   0.4364768
   1.3924426  -0.5964663  -0.7394113  -0.3114889  -0.0562050  -0.2383867
   1.0037488   0.4622525   0.6497733   0.4865413  -1.2185435  -0.7285351
  -0.0087730   0.1952091  -0.3078672   0.3676866  -0.4025327   0.0665683
  -1.2786530   0.2543883   0.3019126   0.3214792  -0.1225474   0.0270949
   0.8289308   0.4018176   1.0815732   0.8119041  -0.3910662  -0.8649064
   0.0716788  -0.0077285   0.1264973  -0.2431030  -0.2038967   0.6269993
   0.7927980   1.3418769  -0.1909319  -0.1352794  -0.0528544  -0.1647848
   1.1163952   0.6772004  -0.6254739   0.2142556   0.3702690  -0.6893535
   0.3990726   0.0071157   0.0452958  -0.9347893  -0.6886968  -1.0361382
   0.1496749   0.0660376   0.7235766   0.4528104  -0.1361427   0.0365137
  -0.8761688   0.7439702   0.1777285  -0.5887756  -0.3599637  -0.0282989
  -0.1124112   0.1512119  -0.1055580  -1.0173581  -0.4007156   0.0986561
   0.7645108   0.3857948   0.3606509  -0.2229088  -0.1249498   0.2106319
   0.2049490  -0.0795732  -0.0192875   0.5356340  -0.3732735  -0.2157895
   0.1924713  -0.2764496  -0.2217280   0.4720157  -0.6279120   0.0712995
  -0.9941596   0.4632189  -0.7702099  -0.1432637  -0.2509276  -0.0236118
   0.7400070   0.4191478  -0.9674579   0.6616085   0.0496773   0.0575813
  -0.1585120  -0.0378748   0.1997975   0.0723962   0.4143497  -0.3650838
   0.3318149   0.4246034   0.3550720  -0.2603101  -0.3274967   0.1063852
  -0.3438961   0.1929062   0.3202037  -0.5354253   0.0808629  -0.9643123
  -0.5237828   0.1925924  -0.1503236  -0.2467302   0.1835041   0.7010255
  -0.1710682   0.7087811  -0.9687838  -0.0949757  -0.0681501  -0.2960922
  -0.1706353   0.3040434  -1.1335819   0.1501228  -0.7612290   0.8068756
  -0.3263654  -0.1839955   0.1802186   0.2604925  -0.3672039  -0.1068828
  -0.7278872  -0.8553852   0.1390738   0.0536382   0.0309821   0.0363293
  -0.3318545  -1.0550933   0.3372954   0.5866227  -0.4273904  -0.0475577
  -0.1212268   0.0061186   0.2667281   0.4897047   0.2052726   1.0627027
   0.0660352  -0.5482063  -0.4792527   0.5321820  -0.0399649  -0.2364468
  -1.0694022   0.7718532  -0.5612242  -0.7477999  -1.1457082  -0.8804125
   0.1631070   0.0625308  -0.0342378  -0.6047523   0.4559510   0.7046973
  -0.0204734  -1.0432818  -0.5805688   0.2487643   0.0236551   0.1187328
   0.5992709  -0.6635585   0.5976663  -0.0036561   0.1444972   0.4200414
  -0.0000656  -0.0000564   0.0883819   0.3902106   0.0407535   0.6983378
   1.8153054   1.6375624   0.9120086  -0.0929859   0.2204956   0.0634669
  -0.8014651   0.1351183  -0.2975672  -1.1004090  -0.9248092   1.0045381
  -0.0458822  -0.1603183  -0.1505758  -0.3718343   0.7493050   0.1857103
   0.3792442  -0.1578082  -0.3465867  -0.2590384   0.3344769   0.1848256
   0.1525627   1.2592162  -1.2984231  -0.4025243  -0.7705831  -1.5200613
  -0.1547824   0.3148656   0.0277647  -0.6890514   0.3122184  -0.5629416
   1.4875049   1.3639840   1.7225349  -0.0144541   0.0431719  -0.1941529
   0.4571461   0.0020527  -0.1176298  -0.1345525  -0.2412857   1.6077905
   0.0427303   0.0116677   0.0466182  -0.3304352   1.2683738  -0.7462160
  -0.2901895   0.8972757  -0.2429725  -0.1300831   0.0775286  -0.0262748
  -0.8947189  -2.4402144   1.4800033   1.0992095   0.3870033   1.1623001
   0.1644147   0.0014313   0.0023381  -1.6593525   1.6352151  -0.2263650
  -0.3596924   0.3806395   1.0380310  -0.2783814  -0.2628775  -0.1808105
   0.2162552  -1.3175918   1.0808746   1.0019085  -0.6782544   0.4421083
  -0.0321982   0.1245697   0.0200224  -1.0784351   0.9805789  -1.1707317
  -0.2192881  -0.3307564  -0.5424623  -0.0431496   0.1603314  -0.0349750
  -0.6537393   0.7947647  -1.5827857  -0.4027552   1.7588720   1.4875074
  -0.0571752   0.1932700   0.0654574  -0.1681869   1.5344998   1.2203632
  -0.3888104   0.0348489  -0.9549514   0.0455146  -0.1567999  -0.4164151
   0.3529414   0.3287298  -0.4296059  -0.2937551  -0.1230855  -0.5249120
  -0.0273606  -0.0556509  -0.1597439   0.6131527  -0.9014099   0.6005541
  -0.8270575   0.2513418  -1.0483327   0.0779857   0.2225405   0.3127721
   0.2352472  -0.5346192   2.3678007  -0.6498018   0.2350044  -0.1964891
  -0.1346780  -0.1181682   0.1717493   1.4210649   0.3813641  -1.1565989
  -0.8065074  -0.5690423   0.3291692   0.0988630  -0.1663302  -0.2691574
   0.2579230  -0.2096665  -1.2549695  -1.1168083   0.7030777  -0.4714353
  -0.2054233  -0.0847476  -0.0674403  -0.0855478  -0.7486307  -0.3666870
  -0.5964314   0.3751620   0.3306426   0.1803342  -0.2439177   0.1417788
   0.3638913  -0.3770807  -0.2834986   1.0102571   0.3458058   0.6819449
   0.1106062   0.0229579   0.1809726   1.1239262  -0.4395978  -0.7456228
  -0.2091113  -0.3972470   1.2109263  -0.2283295  -0.0193673  -0.0321931
   0.1421448   0.1200875   1.2930805   0.7809085  -0.8770016   0.7569758
   0.0421095   0.3092877   0.1541484  -0.2892675   0.4253572   0.5973655
   0.0592126  -0.9128523  -0.1165108  -0.0965599   0.5033678   0.0203664
   0.2311122  -1.1193212  -0.6595577  -0.5073940   0.2261509   1.1850773
   0.0705225  -0.0409914  -0.0937247   0.1827180   0.0393433  -1.3667052
   1.1126749   0.3207453  -1.4546475   0.1166814  -0.2961989  -0.0810240
  -0.2516124   1.0808240   1.8490680   0.1903568  -0.8931225   0.3671761
  -0.1089942  -0.0197646  -0.0424985   0.3341617   1.1153114  -0.6574781
   0.3082649   0.1180645  -1.0792555   0.2467002  -0.1262458   0.2145357
   1.6483662   0.7396082   0.2509302  -0.1035120   0.3902169  -0.6100205
   0.1227910  -0.0461320  -0.0708622   0.6656173  -0.0004612   0.2378094
   0.0990908   1.2353111   0.1381259   0.1513838   0.2587746  -0.2379964
   0.1849942   0.7251307  -1.3877233   0.8006591   1.4026544   1.2609755
  -0.0355419  -0.1078571  -0.1495953   0.8765221   2.0056581   0.3395455
  -0.3543084   0.7304318   0.3348237  -0.2563867   0.2202673  -0.1504879
  -0.4071086   0.4760979  -0.2689232  -1.1165098  -0.3694897   0.2287976
  -0.1021425   0.1237806  -0.0464853  -0.2529334   0.2454252  -0.3007064
   1.3759268   0.2517301  -0.1792945  -0.2053902  -0.0652776  -0.2690849
   0.3739896   0.9311389   0.6869875   0.2971248  -0.1847945   0.6903108
  -0.0858480   0.0851131  -0.0020305  -0.1491008  -0.1804278  -0.8663129
  -0.0818145  -0.3528384   0.0518652   0.0053714   0.1278610   0.1602416
   0.5029989  -1.3114949   0.8084805  -0.4114360   0.3060904  -0.5872566
   0.2613907  -0.0230957   0.3263947   0.2316214   0.6388206  -0.7318629
  -0.7964298   1.0179339   0.4986670   0.0887291  -0.3095938  -0.0827383
   0.6403152  -0.6508967  -0.1574281   0.4750419  -0.0889932   1.3350820
  -0.4107509  -0.3051867   0.2912159  -0.1831534  -0.1385157  -1.3963912
   0.3236429   0.3722649   1.0305031  -0.0609139  -0.0492488   0.1453373
   1.5617366  -1.5660617   0.5568470   0.3330286   0.0807621  -1.1042905
  -0.0713840   0.3623941   0.1090362   0.2115495  -1.4082347   0.2850547
   1.1106651  -0.1441560   0.8014328  -0.0729486   0.2450272   0.1853607
   0.7011462  -0.5964165   1.0140709  -0.1981242  -0.5430221  -0.8802136
   0.3810297  -0.1380757   0.3463471  -0.9433083  -0.2450292   1.4207053
   0.0999331  -0.1569635  -0.2502208  -0.2362909  -0.2316846  -0.0735070
  -0.5317870   0.7558902   0.8583477   1.1800124  -0.9549260   0.1150920
   0.1830768   0.2223935  -0.1841212  -0.5967571  -0.4302714  -0.2787854
   0.6411271   1.3418526  -0.3770618  -0.0164872   0.2713762  -0.2349520
   0.3550398   0.9827897   1.1705753   0.5343907  -1.6176812   0.4745491
  -0.0981482  -0.2645031  -0.0634941  -0.2864808  -0.0965922  -1.2464241
   1.4557243  -0.9733691   0.3127083   0.1642904  -0.1597231  -0.0538428
  -0.2657182  -0.3936735   0.9136014  -0.4430289  -1.0205249   0.1035990
  -0.3635719   0.2747144  -0.0949177  -0.4544920  -0.9450459  -0.4092103
   1.3773616   0.6821041   0.0761903   0.1436604   0.0349065   0.2145234
   0.3324684   0.7426911  -0.4315047  -0.6469941  -1.2832004   0.6309120
  -0.0012827   0.0687284  -0.3219925  -0.8811829   0.2954606   1.3855815
   0.1702795   0.4598529  -0.5738291  -0.0000945   0.3533229   0.4126478
  -1.0119557  -0.9186964  -0.2336438   1.1576527   0.2528594   0.3421471
   0.1433851   0.0249291   0.2168563   0.8604665   0.2091984   0.4785767
  -1.9430128   0.3662325  -1.1640083  -0.3057454  -0.1325410  -0.0135519
   0.5184212   0.4520471   0.4745785   0.5151319   0.8209184  -0.4390674
   0.1379368   0.3097628  -0.1731822   0.2192368  -0.3979697  -0.3942048
   0.9266162  -0.2266087   0.4710168  -0.1424338  -0.0629072   0.2057852
  -0.0867902   0.0797815  -0.5257234  -0.3351625  -0.7425031  -0.2845667
  -0.2056855   0.0330328   0.1563055   0.3556985  -1.1036212   0.9677589
  -0.4477223   1.0714182   1.6429773   0.0557359  -0.1816330  -0.1014343
  -1.3601105   0.5679768  -0.4569905  -0.6725932   1.8787662  -0.2265767
   0.0776753   0.0445623  -0.0468954   0.5004494  -0.7985984   0.1100406
  -1.5809995  -0.0144514  -1.1167592   0.1535892   0.1960943  -0.0283105
   0.7971478  -0.3525246   0.9892888   0.8931103   0.5341776  -0.6697032
   0.1358429   0.1175139   0.0751295  -0.2260635  -1.4149191   0.0352824
   0.2976664  -0.7512215  -0.6495810  -0.2159964   0.0466926  -0.0322092
  -0.1245814  -0.7598000   0.9835539  -0.2940231  -0.5658400   0.3751764
  -0.0015637   0.2076641   0.3254256  -0.8741129   1.8084609  -1.2372764
  -1.0796150   0.1833221   0.9711583  -0.2401183  -0.1696070   0.0180172
  -0.9164589   0.7374866   0.1543748   0.0423745   1.4242630  -0.2232010
  -0.0760947   0.1278731   0.1782880   0.3729859   0.4790683  -0.1394257
  -1.4886531   0.8321619  -0.3135162   0.0500096   0.1382427   0.0508948
   0.6075770  -0.2081606  -0.0502167   0.2157616   0.1805000   0.0284310
   0.0496303  -0.0200019   0.1894150  -0.8733891  -0.6902776  -0.0457496
   0.3632890   0.7399659   0.0492876  -0.4222679  -0.0149749   0.1510253
  -0.9652085   0.1770283  -0.8474012  -0.4029902  -0.4476622  -0.3215783
  -0.0388262  -0.0761669   0.1210987   0.0823899   1.5288031  -0.6830768
   0.0523934  -0.3973513  -1.7608509  -0.0873901  -0.3423608   0.1360370
   1.1554204  -1.2181211  -0.8475763   0.2371603   0.5809697   0.3302313
   0.3811357  -0.3500545   0.4614711  -0.6425060  -0.6421063   0.4056142
   0.4168180   0.2600811  -1.0095868   0.0934778  -0.0686191   0.1870292
   0.1068254   0.4539835  -0.0711541   1.4023302   1.0917495   2.2517798
   0.0606771   0.0028161   0.0188320   0.0437393  -0.5409936  -0.3833572
  -0.1631525   1.4064273  -0.3799064   0.3689106   0.3666846   0.2481072
   0.5405057   1.2350761   0.2292686   1.0078948   0.7419405   0.8036457
  -0.0561214  -0.2378001  -0.0961178  -1.1161807  -0.2771232   0.1665213
  -0.1547064   0.3227698  -0.6305768   0.0705669  -0.0912223   0.1193632
   0.2383143   0.3351248  -0.2365892   0.2347414  -0.5814388  -1.5650980
  -0.4126566   0.2730464   0.0922940   1.3270539   0.2169005   0.1349281
  -0.4416571  -0.1644712  -1.1396298  -0.1374178  -0.2093028   0.1473633
   0.4819402   0.4280889  -1.0023359   0.1521566   0.2163373  -0.9189278
   0.0915863  -0.0978558   0.0539738  -1.6417746   0.9418147  -0.5881932
   0.8810789   0.0584015   1.4111589   0.0478660  -0.0349757   0.0819176
   0.4223993  -0.3280752  -0.1579271  -0.2545587  -1.2794786  -2.0796452
  -0.1755001  -0.2568015   0.2242121   0.5317070   0.0313411  -0.9898062
  -1.5897603  -1.4037562  -0.4812536   0.0568292  -0.1253705  -0.0599555
  -0.9903682  -1.3073194  -0.8217936  -1.1928676   0.9360468   0.2019692
   0.1241206  -0.0836168  -0.0248042   0.5054294   1.2588738   1.4595102
   0.7536890   0.2004045   0.4722633  -0.2281421   0.0694896  -0.2484728
  -0.7830110   0.3544701   0.1047270  -1.0265402   0.8828366  -0.6038666
  -0.0907378   0.1081674   0.1825648  -0.6232533   1.5384009   0.1352101
  -0.4128175  -0.3204859  -0.0190998   0.1783354  -0.0545218   0.0818221
  -0.6354135   0.3241188  -0.5322445   0.1349798   1.0545123   0.3452408
   0.0879148   0.0604130   0.0065622   0.7333559  -0.6327300   1.2017969
  -0.6814308  -0.6740839   0.7907518   0.1709901   0.0434539   0.1872835
   0.2818521   0.1376254   0.5123803  -0.1601910  -0.6404879  -0.1471467
  -0.0867737  -0.0321005   0.3711079  -0.6605725  -0.2838532  -0.7339879
   0.8716513   0.1997701   0.2674350  -0.0319019   0.0947886   0.0691326
   0.2946391   0.2362799  -0.0281343  -0.3280955  -0.8981513   0.9342886
   0.2642731   0.2631431  -0.1584016   0.7708724  -0.8583089   0.2541394
  -0.3350785  -0.2373386   0.5515506   0.0231716   0.0479569  -0.1156995
   0.1072334   1.0253828  -0.2670164  -1.2043177  -0.0177902   0.9953679
   0.1230048   0.1330609  -0.1010176  -0.7907867  -0.0644013  -0.0286888
   0.8531020   0.1487030   0.1220576  -0.0094884  -0.2352085  -0.0073711
   1.7093003  -0.2543777  -0.3125245   0.0745734   0.1126195  -0.4649715
   0.2190691   0.0501615  -0.3534029  -0.9725104  -0.8932909   0.6142713
  -1.6611847  -0.2152550  -0.6416441   0.1761610  -0.1197977   0.0189506
   0.2854218  -0.5308385   0.9581841   0.9871908   1.5110889   1.1471109
  -0.1218683  -0.1121185  -0.0050091   0.5053747   0.0231517   0.8160605
  -0.2053151   0.6681107  -0.5245050  -0.0118238   0.1489648   0.0865506
   0.4676476   0.3471097  -0.4605539   0.6366350  -1.3912724  -0.4453883
   0.1473232   0.0307301  -0.1294278  -0.3954602   0.6474238   0.2456761
  -0.1796412   0.5258098  -1.2770126   0.3958249   0.3732365  -0.0860953
   0.1475991   0.3401047   1.1314480   0.9818283   0.2569066   0.3390577
   0.1354262   0.0489101  -0.1480912  -0.1937746  -0.1462204   0.4613543
   1.3115186   0.5600216  -0.7111725  -0.0130706   0.4899070   0.1632146
   0.2805776   0.7025949   1.2407262  -0.6979432  -0.0466334  -1.1059644
   0.1847095  -0.1565545   0.2589483  -0.4138741   0.6980975   0.1950452
   0.0887916  -1.9088093  -0.0840862   0.0855382   0.0191039  -0.0520556
   0.8515609  -0.3729310  -0.5273866  -0.7182526  -0.4242419   1.6757485
  -0.3500296  -0.1793563   0.0149988  -0.6467980   0.7239516  -0.3629662
   0.3639613   0.8227024   0.2723328   0.0333296  -0.1028082  -0.3070824
  -0.8008138   0.9215666  -1.4232790   0.6112183  -1.2308323  -1.3794988
  -0.0718650  -0.1049787  -0.1258751  -0.1960646   1.1812671   0.7439600
  -0.2084366  -0.2230191   0.4715467  -0.0240107   0.0846989   0.1619568
   0.0571280  -0.0373967   0.4460817  -0.1485332  -0.5679155  -0.5356384
   0.0460377  -0.1112608   0.1172382  -0.2148291   0.7078622   0.0707883
  -0.3102655   0.3484323  -0.3376479   0.2145034  -0.2160755  -0.1732740
  -0.4441260   0.0790480   0.9945457   0.4318474   1.2340848   0.1029367
  -0.0391668   0.0156795  -0.0497445   0.0537662  -0.5363367  -0.2435578
   0.3113096  -2.0632412   1.1208844  -0.2277899   0.1591664  -0.0224880
  -0.7114921  -0.5108867   2.1873632  -0.4045448   0.3984679  -0.4606432
   0.1137604  -0.3746696  -0.1486435   0.2867298   0.5625151  -0.3157812
  -0.9096065  -0.3285854   0.0169112  -0.1365081  -0.0922384  -0.1094225
   2.3461329   1.4627906   0.3575982   0.2230128  -1.7420692  -0.7458196
  -0.0169701   0.1039615   0.0155639  -0.8433389  -0.8178857  -0.8117649
  -0.6848773  -0.5864444   0.1365004  -0.3599534  -0.1427811   0.2244346
   0.1580046   1.2528384  -0.7801709  -0.2491686   0.6154894  -0.2801103
   0.1341408  -0.3112831   0.3412587   0.6400677  -1.2386000   0.0708680
   0.1909134   0.0970552   0.0987147   0.2280966  -0.4481808   0.0289453
   0.1345304   0.0602694  -0.3596508   0.8001674   0.0849591  -1.8600603
   0.4256592   0.0815854   0.1448627   0.9893197  -1.5411447  -0.1726424
   0.0431632   0.3685161   0.9962605   0.0747962   0.0415663  -0.1278051
   0.7707379  -0.5968120  -0.2263511   1.4696960   0.6407408  -0.4990882
  -0.0133521   0.1596764  -0.0296199   0.3749323   0.0459520  -0.2135682
  -0.7257948   0.7200895   0.6838745   0.0154801   0.1408559   0.0323358
   0.0457732  -0.8831791  -0.0338040   0.4799832  -0.2448042  -0.5402906
   0.1862523   0.1254778  -0.1547541   0.2260072   0.6198468   0.3028618
   0.9834926   0.0677945  -0.4334002   0.3217091  -0.0669006   0.0274546
   0.6483474   0.3259958  -0.8542820  -0.9134816   0.4699442  -0.6590629
   0.0843308  -0.4518313  -0.1500763   0.7909026  -0.9999548  -0.2200101
   1.8070583  -0.7513434  -0.7267050  -0.0562258   0.0874402   0.3652228
  -0.0502611  -0.8565382  -0.6296414   1.7454164   1.5908962   1.8547635
   0.1864650  -0.0173241   0.2118799  -0.9002231  -1.4855327  -0.5578023
   0.4611912   0.1353472   0.9316061  -0.3563342   0.0386733  -0.2632053
  -0.2265524  -0.3024457   0.5570114   0.4795534  -1.9161227  -0.8973207
   0.3263790   0.0037491   0.0088501  -0.6399513   0.5049957  -0.2278948
  -0.5874314  -1.0163335  -0.5709851  -0.2336128  -0.2488897   0.2013798
   0.2164798  -0.9919885   0.6726203   1.1033283   1.1322711   0.5581675
  -0.3115186  -0.2444835   0.0836717   0.0518459  -0.0011010  -0.2462083
   0.5896440  -0.4113803   0.5685949  -0.2093633   0.1396320  -0.1649376
  -0.3962399  -1.5849556  -0.4963844  -1.1504096   0.5296666  -0.1996918
  -0.1523218   0.1564785  -0.2693030   1.0450276   1.5226734   0.2962045
   0.0384058   0.1701707   0.4137664  -0.0208212  -0.2431094  -0.2739475
   0.1249408  -0.6994469  -0.1608879  -0.0515848  -0.8711729  -0.4998740
   0.1752797   0.1453251  -0.1211936  -0.7110486  -0.4173041  -1.4279194
  -0.1647165   0.7568817  -0.9033466   0.2010705  -0.0507011  -0.0327540
  -0.4536543  -0.0062489   2.1262647   0.1849176  -0.4108789   0.9117616
  -0.3273538  -0.1653024   0.2097436   0.4558958   0.2236168   0.2985802
  -0.2512759  -0.2384798  -1.0013097  -0.0417151  -0.1450381   0.2431787
   0.7374545  -0.3127832  -0.3754073  -0.0454753  -1.1904877  -0.0919728
   0.1609244  -0.1355292  -0.0619691  -0.2375511   1.0512055   0.9176374
   0.0648440   0.1999363  -0.2236469   0.0037863   0.1846460  -0.3189864
  -0.2551002   0.6843014   1.7092867  -0.1640919   0.4780180  -0.1518729
  -0.0726316   0.0998268   0.0525993  -0.7327669  -1.5326294  -1.5016930
   0.9986339  -0.2046887   1.4394186   0.3642757  -0.1153186   0.1930121
   0.2075165  -0.3865536   0.2795377   0.3435399  -0.7869197   0.3015467
   0.2020043   0.1499714   0.1230767  -0.3636149  -1.4566034  -1.2306249
  -1.8084260   0.3479838  -1.0267017   0.2668441  -0.0043203  -0.1944514
  -0.8701485  -0.3400021   0.4721584  -0.0313848   1.1735792   0.8585327
  -0.2466853  -0.1865733  -0.3071584   0.6346947  -0.1989721  -0.8496810
  -1.2196793  -0.0774352  -1.1197897  -0.6032115  -0.0115990   0.2732208
   0.7825972   2.0338902  -0.1536573  -0.0747186  -1.6629110   0.7381586
   0.2784414  -0.1021860  -0.2144086  -0.5081978   0.2457519  -0.1068773
   1.6364422  -0.1290283  -0.5241081   0.0092168  -0.1230396  -0.2536200
  -0.3716430  -0.5134050   0.7571369   1.3081690   0.0082629  -0.1288632
   0.0795215   0.0852169   0.5157248  -0.3831731   0.6150918   0.8685818
   0.4138043  -0.5337873   0.4132076  -0.0381055  -0.2699692   0.0093673
   0.4944884  -0.1416333  -0.7247673  -0.0163726   1.0863542   1.2016082
  -0.3857334  -0.0401883   0.1421576   0.2151752   0.2434711  -0.5899136
   0.7628094  -0.1656660   1.4777672  -0.0097383   0.2242884   0.3574209
   0.8558075  -0.9584372   0.1180425  -0.8486618   1.2306318  -0.6605568
   0.0006434   0.0298411   0.2363833  -0.3829884   0.7174770  -0.6886058
  -0.3687934  -0.5510075  -0.3834635  -0.0299277   0.5009789  -0.1603656
  -0.9605609  -1.1087600  -0.6040373  -0.5452401  -0.9926617   0.7966770
   0.3540889  -0.2395626  -0.2928343   1.0734841   0.3197495  -0.1114014
  -0.2396995  -0.2935236   0.7126302   0.3225649  -0.0448680  -0.1633569
   0.5017909   0.7351131  -0.6547359   0.8876915  -0.1187654   0.9728079
   0.0662495   0.1843369   0.0998966  -0.2663364   1.3671616  -0.0602216
  -0.6393801  -0.8060886   0.5739684   0.0155724   0.2543156  -0.1053633
  -1.0485348   0.2379600  -0.1640929   0.1038375   0.7660702  -1.7284957
  -0.0906388   0.0890085   0.2561855  -1.3576286  -0.4771446   0.0281888
  -0.5295541  -0.4408251   0.9367700  -0.0809530   0.2887999   0.1003320
   0.3471961   1.2218744   1.6639175   0.6304188  -0.7787799  -0.2434380
  -0.1288461   0.1427383  -0.0377601  -0.4643338   0.2123353   0.4985290
  -0.7063407   1.0039781   1.0169927   0.1184263   0.0860897   0.1025620
  -0.5569210   0.3757861   1.2066020  -0.1572961   0.9561811   0.3532784
   0.0121814   0.2064747  -0.0275134   0.3243681  -0.2603357   1.3570993
   0.2575667   1.5262999   1.3209806   0.1121958  -0.0525732  -0.0893558
   0.8341147   1.6648471   1.2304681  -0.0791541  -1.3922120   0.1950731
  -0.1504495   0.1922299   0.3751290   0.7884557  -0.6560231   1.4243250
   0.6724925  -0.3103338   0.1923277   0.3929851   0.2320528   0.3853843
   0.4911949  -0.4390434  -1.3250487   0.1860429   0.5159843  -0.3965732
   0.1246977   0.0174646  -0.3313289   0.5714307  -0.1107243  -0.2023436
  -0.2035631  -0.2606962   1.2680907  -0.2093184  -0.1119541  -0.0522890
  -1.2832333   0.9658640   0.6833753  -0.7557396   0.7880577  -2.0018708
   0.2478526   0.0235346  -0.1146659   0.3622930  -0.6930126  -1.8953972
   0.4285231  -0.2153480  -0.4121031  -0.1420234  -0.0244766   0.1994918
   0.0444353  -0.0451754  -0.5026573   1.0887626   0.5915411   0.0434152
   0.1561782   0.2372092  -0.1965375  -0.0908520  -0.4324959  -0.3480939
   0.4008186  -0.3253904   0.9990336   0.0837981   0.1548122  -0.0601100
   0.1504857   0.1820220  -0.5742136   0.4860602   0.6181625   0.4685900
  -0.2694603   0.3436618  -0.0895633   1.2539956  -1.8637571   0.1900927
  -1.2614391   0.0536716   2.1372779   0.0705016   0.1634594   0.1188377
  -0.0675673   0.4254469   0.7871605  -0.1231957  -0.5121697  -0.7613543
   0.3019510  -0.2316847  -0.1008611  -0.6070331  -0.4708739  -0.0940518
  -0.6362960  -0.3934677  -0.7149004  -0.1330725  -0.1156495  -0.0892101
  -0.0066630   0.9720093   0.7781440   0.4884114   0.3368628   0.8038414
   0.0427681  -0.0485536  -0.0530232   0.4277278  -1.0727965   0.0218858
  -0.9321062   0.8554616   0.1631603   0.0178667  -0.2543466   0.0985787
   0.4999162   0.9505644   0.5706077  -0.5204047  -0.4057367   0.3102367
   0.1814787  -0.0610902   0.0502694   0.7752328  -0.3329544   0.9438797
  -0.4934297   0.0209800  -0.3106357  -0.1878003   0.3957342  -0.1840887
   0.4295611  -0.2883849   0.3676379   1.1902835   0.3564428   0.6345437
  -0.2244128  -0.0011671   0.3429796   0.4926226   0.1763605   0.5859006
   1.0572589  -0.2006987  -0.3933505  -0.1182238  -0.0166642  -0.0112411
   0.0926462   0.3199378  -2.1150845   1.3001553   0.6061913   0.2385421
   0.0585005  -0.0296945   0.0250529  -1.0269540  -0.2800074   1.3151215
   0.1131488   0.6044168  -0.9611848  -0.2182309   0.2157798  -0.1125385
  -1.1709706   0.2763508  -1.8793251  -2.0220919  -0.4787152   0.2422163
   0.1882599   0.3910267  -0.1251631   0.3490764  -1.6532108  -0.4147471
  -0.8057628   0.8788247   0.0574453   0.4465834  -0.2330313   0.2081435
   0.9090820   0.6156743   0.1050597  -0.4324418  -1.2666100   1.2687969
  -0.1060491  -0.1349787  -0.0488713   0.3213022   0.1784940  -0.2002396
  -0.0200162   0.5106671   0.4536713  -0.2266273  -0.0691299   0.2117900
  -0.7858263  -0.8854790  -0.4448257  -0.0699017   0.0561816  -0.8985351
   0.0945509   0.1527722  -0.0447654  -0.1923215  -1.2834317   1.7239573
   0.6271709   0.0603606  -0.4348177  -0.2258168   0.0616419  -0.1337702
  -0.0906175   1.6205495   0.0643090  -1.1991802   1.2143813  -0.5118261
  -0.0021038   0.0471803   0.0997083  -1.0473133  -0.1099124  -0.2221994
  -0.0667180   0.1836299  -0.2849052   0.1724636  -0.0498552  -0.1663284
   0.3572272   0.5978028   0.5179433   0.7343476  -0.8509538  -0.1377314
  -0.0028297   0.2029930  -0.1149597   0.9389805   0.4315766  -0.0529351
   1.4209176  -0.0251242   0.1404147  -0.1834457   0.2448488   0.1441938
   1.1549886   0.6874311  -0.5548112   0.2216383  -1.2127256   1.0236338
   0.4481399  -0.0501458   0.1343276   0.9157672  -1.3895248  -0.3810388
   0.0491237   0.7594815   0.5193822  -0.3101028  -0.1194670   0.2784702
  -0.9980586   1.4078413   0.6297291   0.0785155   1.0586126  -0.7014125
   0.0638601  -0.3582407  -0.0118106   0.2046708  -0.6358225  -0.8504048
  -0.4386245  -0.1568487  -1.3210671   0.2728030  -0.1053371   0.0878739
  -0.3001624   1.1405947  -0.7136936  -0.1272394   0.8948766   1.3175266
   0.0083959  -0.0688734   0.1026556  -0.7775652  -0.9177115  -0.0848871
  -0.0369109  -0.1473935   0.2120312  -0.4072036  -0.0672851   0.1304883
   0.6072245   0.8110988   0.3310043   0.1319334   0.8771765  -0.5486748
  -0.1748338  -0.2167141  -0.2553811  -0.4509149   1.7757290   0.7619510
   1.0956257   0.1303590   0.2399366   0.0756470  -0.5668574   0.1959227
  -0.2407152   0.9979585   0.3409047   0.5999976   0.4645131   1.3514652
   0.1675395  -0.1920077   0.1845037  -1.2404160  -0.0021324   0.5526635
  -1.3557600   0.5698622  -0.9211266  -0.1861076  -0.0968646   0.2423306
   0.3502733   0.3004977   0.3034759   0.3022765   0.9763693  -0.6155059
   0.1518672   0.0283212   0.1164198  -0.0873353  -0.0831365  -1.4289590
   0.6015943   1.4971459  -0.8533468  -0.1722822  -0.2192370  -0.2929940
   0.3946696  -0.0393084  -0.3141350  -1.1445677  -0.4026182  -0.3445465
  -0.1519088   0.1191329   0.1850255   0.3480632   0.8982637  -0.0875487
   1.7017992  -0.5610310   0.3905127  -0.1849186  -0.2913897   0.0371298
   0.3788064   0.2674897  -0.0297201  -0.2371473   0.6150457   0.5082916
  -0.0761726   0.0844627  -0.0187618   0.5183220   0.5921891   1.0109532
   0.7653975  -0.4501782  -1.5699459   0.1166105  -0.1731385   0.2997139
  -0.8174725   1.0843283  -0.7298498  -0.8686439   0.1135120   0.6380067
   0.1295765   0.0327045   0.1036571  -0.1721940  -0.0363023   0.4801413
  -0.3540250   0.6802028   2.0431011  -0.0009268  -0.0415118   0.1360703
  -0.1864518   0.0456627  -0.0631915  -0.3739965   1.0637194   1.7792751
  -0.0245513  -0.1202084   0.0647624   0.0136036   0.4093121  -1.2130346
  -0.0314506  -0.5483521   0.3777493   0.1034185   0.0689796   0.0056754
  -0.5115435  -1.1329209  -0.4683287   0.0620782  -0.9398942  -0.0615607
   0.1468696   0.1201101  -0.2969351   1.0302580  -0.3653004  -0.2369754
   1.0110291   0.2756066   0.6116847  -0.1138997  -0.1667677  -0.0507644
   0.3252826   0.3571794   0.3291435   0.5061351  -0.4569606  -1.7098581
  -0.4192251   0.0005125  -0.1426596  -1.4119070  -0.3802649  -0.4638068
  -1.2411425   0.2979611   0.2966259   0.0315819  -0.1784096   0.0546986
   1.6301711  -0.4501460   0.2690375   1.0881571  -0.0632432  -0.3312507
  -0.0095597   0.1789175  -0.4467512   0.2465223   0.3985473   1.0108496
   0.9634853   0.2099024   0.5867770  -0.1299912   0.1036031  -0.2632780
  -0.2093064   0.7312618  -0.1088426   1.1403492  -0.5100033   0.8994016
  -0.0066045   0.4062386   0.2416911   0.7586665   0.9400347   1.2046139
  -0.3452901  -0.2843405  -0.2885075   0.2149015   0.1115972  -0.2519186
   2.0916417   1.4725193   1.6932551  -0.3624804   1.3518189   0.1668931
   0.1544934  -0.2687984  -0.0480992   0.3342796   0.2886248  -1.1184829
   0.9872292  -0.2473159   0.6401277   0.3680960  -0.0704109  -0.0033165
   0.4578103   0.0771160  -2.0904011   0.2184791   0.3808175   0.2970308
   0.0918788  -0.3213332  -0.2430096  -0.0159412  -1.9179315  -0.7624725
   0.0622413  -1.3581836  -1.1155281  -0.3226975  -0.1992010   0.3127178
  -0.0215565   1.6222264  -0.2011894  -0.5383340   1.4985356   0.5609556
   0.0274000  -0.0910601   0.2238927  -1.0123537   0.9115085   0.2136333
   1.9519583  -0.9087743  -1.2997280  -0.0957890  -0.1201092  -0.1099268
   0.2679848  -0.3867076   0.0550460  -0.2039295  -2.3399021   0.1086771
  -0.0886573   0.1594970   0.3440349   0.6177658   1.3391306  -1.0661957
  -0.7794843  -0.0102591   0.2933652  -0.3538409   0.0832707  -0.1753007
   0.8604838  -0.3557258   1.8914636   0.1696273  -0.7372037   0.3974855
   0.2356748   0.0572839  -0.2201454  -0.3520998  -1.3580543  -1.6756744
  -0.5140736  -0.8495655   1.6689001   0.0185451  -0.2433029  -0.0545349
   0.6613989  -0.0048824  -0.4345249  -0.4359895   0.5390654   0.4617737
   0.0979072  -0.0730706  -0.0297271   0.2274500  -0.0401381  -0.0958623
   0.6662261  -0.9937083  -0.3835065   0.3120718   0.2005340   0.0064627
  -0.1993041  -1.7395469  -1.0650346   0.6009646  -0.1641028   1.1478693
   0.1770841   0.0987318  -0.1174286   1.3590406   0.5439261  -1.2894777
   0.3415104   0.3867762   0.7219235   0.0395729   0.2774397  -0.0916443
   0.5783179   0.7251567  -0.1739731   0.3968197   0.2153893   0.4234035
  -0.1140329  -0.2641894   0.0694116  -0.4081379   0.0036837   0.9551428
   1.7002578  -0.3993845  -0.9217775  -0.2363778   0.2262546  -0.2388742
   0.1531455  -0.2790419  -1.0082669  -0.4407990  -0.3958599  -0.5986974
  -0.4895556   0.1714393  -0.0590766   0.9643900  -0.8224691   0.1462386
   0.4572555  -0.4491480   0.7599666   0.0732907   0.0449848   0.0805072
   0.6638142   0.3140212   1.1933653   0.7627835  -0.3926858  -0.0564691
  -0.1514430   0.0350667  -0.0458520  -0.0634463   0.2045751  -0.1962729
   0.0107215  -0.0462255  -0.1043252  -0.0863328   0.3369578  -0.2742281
  -0.4337150   0.2680818   0.8178580  -0.4523656   0.4595568   0.5034799
  -0.2132274   0.3181773  -0.0906520   0.2408416  -0.5953688   0.6571477
  -0.7015441   0.5068122  -1.2999102   0.0148375  -0.3380049  -0.1759892
  -0.2159807   0.5217234   0.4903420  -0.7073637   0.4636763   0.6857735
  -0.2702896   0.0193119   0.1328389   0.2013708  -0.3401853  -0.5326895
  -0.5696042   0.3246070  -0.3370210  -0.0871962  -0.0010062   0.1323478
   1.2773832   0.9775781   0.0705257  -0.6594402  -0.6414986   0.0451671
   0.0902684   0.2145301  -0.0947556  -0.0329189   0.7166043   0.6402605
   0.6505638  -1.2686024   1.1904875  -0.0080112  -0.1101909   0.2729767
  -1.3376601   0.0405544   0.1936530   0.1361249  -0.1443178  -0.9034702
  -0.2075733   0.1166359  -0.0062170   0.7960847   0.6468541  -0.7457703
   0.2569054  -0.2943396  -0.8513923  -0.1218585   0.3721791   0.2065940
   0.2037702   0.0341471   0.6941244  -0.7343610  -2.1056328  -0.9598060
   0.1553848   0.1877278   0.0047601   1.0223897  -0.6367406  -0.9620620
  -0.5561768   0.0183622  -1.9071743   0.2053642  -0.2829196  -0.0963583
   0.0113198   0.5785738   1.2111300   0.4430634   0.2184512   0.1708994
  -0.2844981   0.0590355  -0.0615389  -0.1739275  -0.1372241   0.2405866
  -0.0091806  -1.5736289   0.0861039  -0.1413793  -0.0100075  -0.0264249
   0.0420936  -0.8123458   0.1266929   0.4019246   0.5712333   0.3565451
  -0.0119733   0.1565998   0.0515395  -0.7291966  -1.0309172  -0.5512773
  -0.3218448   1.3375122  -0.0164796   0.0614459   0.3184046   0.2521644
   0.1184864   1.0168671   0.2759651  -0.6121243   0.2791169  -0.8380220
  -0.1037433   0.2408581  -0.0519038  -0.0127902   0.6910329   0.4286157
   0.3232733   0.5808679  -0.5096138   0.1821984   0.0051142  -0.1039512
   0.7857404   0.8768814   0.9617770   0.1695052   0.0643971  -2.4354207
   0.0645282  -0.0394642  -0.1986913   0.2974762  -0.1688490   0.1415047
   0.9367345   0.3609434   0.2365716  -0.2397803  -0.1228460   0.5760411
   1.1884495   0.0805621   0.6432077   0.4395939   0.1894763   0.4547258
   0.0008954  -0.1452126   0.0586621   1.1265471  -0.5547675   0.8197304
   0.1526076   0.8527083  -0.7989778  -0.0206056   0.0362682   0.1165769
   0.1352371  -1.0635647   1.5916878  -1.1918735  -0.1515233  -1.0251296
   0.0963571   0.1280120   0.1618291   0.5117356   0.5252383  -0.3580684
  -1.8286399  -0.0700173   1.9140712   0.0112260   0.2360680  -0.1835341
   0.2671421  -0.7139851  -0.3869014   1.0959819   0.6216760   0.3073561
  -0.1067502  -0.3248172   0.2956154  -0.0892569   0.6632483  -0.2779831
  -0.9786724   0.1409192  -0.1636571  -0.2537285  -0.6218562  -0.0192655
   0.4217741  -1.5301161  -0.1545135   0.0437672  -0.3822982  -0.5300023
   0.1554174   0.0015016   0.4565010  -0.3377050  -0.2901256  -1.2623920
  -1.1727628   0.8710339   0.9883165   0.1772055  -0.1460008   0.1338375
   0.0312921  -0.8708514  -0.3225752   0.0485682  -0.7931968  -0.7435928
   0.1792514  -0.1453075  -0.0628643  -0.0464111   0.0035335  -0.0358128
  -0.4374628  -0.0267682  -0.5330678  -0.1157835  -0.1553997  -0.1230876
  -0.1986486  -1.0444133  -0.1240796  -1.1197134  -0.1321336  -1.0064983
   0.0438602   0.0677750  -0.2601888   0.2190137   0.1209199  -1.2148900
   1.0891614   0.6184080   0.2120221  -0.0589607  -0.4360270  -0.0724287
  -1.0578291  -0.8853873   0.7919014   0.8463104  -0.6648771   0.2522341
   0.0969899  -0.1061723  -0.1522119   0.8104957   0.0423226   0.3233857
  -0.1409454  -0.4198060   1.1224702   0.1480825  -0.1741488  -0.0698470
   0.4069077   0.7818113   1.3949666  -0.0898252  -0.5310403   0.7434495
   0.0016758   0.1441217  -0.0920568   0.0728756  -0.1715098   1.0177520
   0.3275021  -1.1467081  -0.4882323  -0.0531056   0.3205964   0.2129920
   0.0333291   0.1064535  -0.5799103   0.6738080  -0.5378244   0.0433145
   0.1774938   0.5186202  -0.0150363  -0.6399298   0.0378800   0.2603893
   0.8393539  -0.0642589  -0.2022555   0.1963925   0.1263062  -0.0024053
   0.0299070   0.2526413  -0.5475097  -1.5357752   0.7168175  -0.2834232
   0.0221856   0.0992429  -0.0777809  -0.5621026  -0.2841263   1.3580746
  -0.1256372   0.9957494  -0.5640887  -0.1530914  -0.2228275  -0.2086869
  -0.2674514   1.1154293   0.6942934   0.5201636  -0.2100021   0.3463953
   0.0162689   0.2118286  -0.3125683   0.0374027   0.0407988  -0.7750190
  -0.8012444  -0.2606497  -0.5543296   0.3109810  -0.1817202  -0.4203269
   0.8308538  -0.2284631  -0.6796237  -1.0321535  -0.5063313   0.1480472
   0.3498303  -0.1193580  -0.1692857  -0.0773248  -0.5608504   1.0935575
  -0.3862128  -0.9681429   0.1130056  -0.2455783   0.1831608  -0.0487483
   0.7420198   0.9167372  -0.7686592  -0.8204610  -0.7756505  -0.5030707
  -0.1300828   0.0634955   0.0525525   0.1179748   0.9908942   0.6249360
   0.7427291   0.1048442   0.4492372  -0.2536525  -0.3695977   0.0171297
  -0.6333470  -0.2414261   0.5220638  -1.3693743   0.1076521   0.2444066
   0.0039976  -0.3083931   0.0519941  -0.6083864  -0.4873069  -1.0342539
   0.1727590  -0.2156770   1.2434187  -0.2221200  -0.2285622  -0.0826455
  -1.0504628  -0.3180790   0.5169379  -1.2375116  -0.6778297  -1.1874026
  -0.0789720  -0.1060443   0.0916546   1.2152907  -1.0114279   0.0029155
   1.2757004  -1.0777727  -0.4298548   0.2344737  -0.1595435   0.0144900
   0.8687289  -0.3932712   0.0432796   0.3339481   1.3429135  -0.9202822
   0.2344037  -0.3081261   0.0341798   0.1383910   1.2262870  -0.2048698
  -0.5487176   0.0193513  -0.0979365  -0.1223347   0.1703853   0.1017013
  -0.4724921   0.3781886  -0.7142683  -0.8776270  -1.1536534   0.9983261
  -0.1541421   0.2598283   0.3036026  -0.7687154  -0.6802452  -0.1105620
   1.4951678  -0.0331718  -0.2845292   0.0388629   0.1568046   0.5539992
   0.1842398  -0.5995962   0.2446280   0.3339780  -1.3733070   0.7136513
   0.0267492  -0.0053186  -0.1147164  -1.2496561   0.2826333   0.4614416
  -0.0700102  -0.3403452  -0.4241959   0.0998104  -0.1956262   0.2786023
  -0.3478992   0.3817704   1.1388435   1.2718819   0.7420367  -0.1895184
   0.0787694  -0.0715759  -0.1270273  -1.3032621  -0.0471433   0.1699379
  -0.3312749   0.5569878  -0.3290848   0.2925808   0.1894679  -0.0430885
   1.1691679  -0.2467093  -0.5399864  -1.4109200  -0.2310856   0.6846512
  -0.1975621  -0.0856775   0.0411000   0.3741268   0.6166688  -0.1969699
   0.5590840  -1.0587157   0.8849216  -0.1076594   0.0268249  -0.1316944
   0.0755235   1.5259060  -0.0803643  -0.9662819  -0.1589076   0.4818821
  -0.1273280   0.2884014  -0.1021157  -0.3497450   0.5307309   0.1550134
  -0.1691283   0.1505523  -0.2961562   0.0582690  -0.0763792   0.0234077
  -1.2489462   0.4553917  -0.3442627   0.9216465   1.7774949  -0.5074472
   0.3806208   0.0029601  -0.2005654  -0.3979996  -0.2795949   0.3488788
  -0.5074445   1.0292349  -0.2380094  -0.0064779   0.1423230   0.3836673
   0.9397772  -0.3542393   0.5803026  -0.6842967  -1.2927794   1.1106296
   0.0926056   0.0666197  -0.1520868   0.3196790   0.3445842   0.5525914
   1.1192697  -0.0029300   1.5258550   0.1432919  -0.0230059  -0.0468463
  -0.6828997  -0.2696645  -0.6719511   0.5945842  -1.2933259  -0.4803669
  -0.0788810  -0.1505034  -0.2992684  -0.6386916  -0.6169571   1.2551295
   0.7630147  -0.6251759  -0.1262285   0.0484404  -0.2498291  -0.1071577
   0.8946167  -0.6938435  -0.5085695   0.4948554  -1.3901904  -0.3602004
  -0.1976859   0.1985260   0.1610734  -0.0919742   1.1147311   0.0885387
  -0.5046916   0.9150819  -0.4060494  -0.1419094  -0.0345315  -0.1505600
  -0.1927989  -0.1243788  -0.1356858  -0.9777202   0.4422566   1.1363352
  -0.1911187  -0.0481156   0.1588635  -0.4431852  -0.5136130   0.4428634
   1.7683774  -1.2164457  -0.0267777   0.1998069   0.1010275  -0.1798447
  -1.0248450  -0.2223599  -0.3420481  -0.2024423   0.1401384  -0.7495472
   0.1629648  -0.1753437   0.3344284  -0.2781785  -0.6549608   0.0042773
   0.6599488   2.4092326  -0.6724793   0.1635051   0.4036216   0.0449120
  -0.2641804   0.7443952  -0.3405139  -0.0376508   0.0538745   0.0571022
  -0.0750992  -0.1940594   0.1663959  -0.1012809  -0.2653382  -0.7922382
  -0.1093879   0.6271223  -0.4711421   0.2423755  -0.3632748   0.4040538
   0.4860251   1.1296577  -0.6966143  -1.0493292   0.0796365   0.3347203
   0.0733572   0.1823396   0.0150317  -0.6076802  -0.1696689  -0.9060589
   2.0357571   0.8024241  -0.2219785   0.1322435   0.1846831   0.0071298
  -0.6742672  -0.0029830   0.1382623   0.2886149   0.3625101  -0.3973543
   0.1308840   0.1018697   0.0701009   0.0390616   0.3675629  -0.0313608
  -0.3978981  -1.0230279   0.5876001   0.0881127   0.1581799  -0.1403881
   0.0776783  -1.0698419   0.1277658   0.7590946   0.3153592   0.9484472
  -0.1465769  -0.0201548  -0.0084997  -0.2893003  -0.1003850  -0.7410605
   0.4484204   1.8433109   0.1562444   0.2328007   0.0441126  -0.0730927
   0.0648050  -1.6812454  -0.4202222   0.3395116  -0.3188654   0.0378441
  -0.0590899   0.0435298  -0.0894020  -0.1070986   1.6012010  -1.2970420
   0.2024914  -0.2090537   0.7859665   0.1449691  -0.0157611   0.0091160
   0.0982123   0.1752405   0.2423055   0.2593398  -0.5861142   0.8313499
   0.0074353  -0.1261591   0.2671272  -0.2217247   0.4266158   0.4202344
  -0.0028537  -0.1380027  -0.0532290   0.3033926   0.1221550  -0.1123520
  -1.5826138   1.0610434   0.4369253  -0.2914745   1.5906708  -0.1905343
   0.3426825  -0.0772075   0.2647510   0.5991370  -0.3774910   0.5034634
   0.6850039   0.7865234  -1.2381927  -0.1278792   0.0704297  -0.1953030
   0.1862671   0.2973821   0.6779902  -0.4087660   0.2249124   0.4201930
   0.0165340  -0.1839371  -0.0958753   0.8052738  -2.4363492  -0.7269152
  -0.8291571   0.8392174  -0.9886614  -0.0327082  -0.0433816   0.4150142
   0.1027606  -0.2748441  -0.9044111  -0.2348897  -0.9856084  -0.4609693
   0.4579470  -0.1746076  -0.2273562   1.1433448  -0.6450601   0.2267506
   1.4156176   0.4575789   0.4813117  -0.0684832  -0.0785459  -0.2002949
   0.7291749   0.3131852   0.5223355  -0.4016515   0.3846308   0.3644691
  -0.1766061  -0.4656535  -0.1918841  -0.7783388  -1.0125559  -0.7092221
  -0.3725033   1.7503448  -0.6416634  -0.1924787  -0.0237599  -0.0687353
   0.2477117   0.5610644  -0.3091467   1.0399072  -0.0815190  -0.6496181
   0.1616237   0.2109208   0.1457499  -0.6945879  -0.3709625  -0.9421776
   0.5048125   0.9337706   0.7011922   0.0312224  -0.0373527   0.1251395
   0.0991045   0.8873834   0.6992507  -0.0137703   0.3514092  -0.8319124
  -0.0863735   0.1614493   0.0680258   1.1957628   0.8648393  -0.4981965
   0.3955758   0.7554169  -1.6214029   0.1059820   0.3501366  -0.0089331
   0.5588560   0.1011038  -0.1900879   0.3712849   0.7587448   0.7624309
  -0.3961771  -0.3217843  -0.0503182  -1.1340920   0.0656363   0.9425172
  -1.1773622  -1.0298681  -0.2234745  -0.0740861  -0.1916801  -0.3361466
  -0.4495160  -1.7949430   0.1000645   0.3579941  -0.1867926  -0.3188311
  -0.1510814  -0.0116683  -0.0397786  -1.0016444   0.0235138   0.3538601
   0.2892482  -0.5696718  -1.6613244   0.0957915   0.1737345   0.0618098
   0.1712187   0.9417444   0.1514430  -1.0895867   1.1748018  -0.4306700
   0.1193554  -0.0840357  -0.0816412   0.1024938  -0.1152956   0.6684609
   0.0238114   0.2119747  -1.6994434   0.2346021   0.0411875  -0.0313363
   0.9602616  -0.7462499   0.2835843   1.0802032  -0.7330511   1.0432849
   0.0100294  -0.0146322  -0.1170667  -0.7324986   0.8350503   0.4285731
   0.1166391  -1.3024747  -0.3754057  -0.1879180   0.0444324   0.0101171
   0.1427586   0.4219883   0.2948775  -1.2054165  -0.7115019  -0.8419066
  -0.2768475  -0.0849016   0.3619252   0.2549429  -0.7149113  -1.1733149
  -0.1582348   0.8371633  -0.2325242  -0.0153152  -0.1817771  -0.1750076
  -0.3376131   0.6632642  -0.2404453  -0.2623985   0.3197452   1.0040867
  -0.1567190   0.3435103  -0.1183210  -0.4557608  -0.6956604   0.3896473
  -1.2487281   1.0359838  -0.0755155   0.0829657  -0.3638297   0.1593799
  -1.7287453   0.0659902   0.9805247   0.1162211   1.2231351  -1.4384082
   0.1046394   0.1073516  -0.1840550  -1.7732378   0.2977932  -1.2189226
  -0.5575475   0.1509364  -0.2924291   0.2281533  -0.3122790  -0.1390566
  -0.2555694  -1.1481334   0.7674492   0.0504817  -0.3618086  -0.7247865
   0.3564777   0.4453813   0.0742102   0.3982665   1.1993263  -0.2821780
   0.8933885  -0.1941163   0.8986889  -0.1795295   0.4340068  -0.1038578
  -1.6416580  -0.6330061   0.0174391   1.1809330  -0.0629671  -1.7737651
  -0.0166127  -0.3434839  -0.0926969   1.0079017  -0.5237322  -0.2320070
   0.6537111  -0.8596563   0.2541570   0.1571523  -0.1576063   0.3078935
   0.9911636   0.2832795  -1.5677242  -1.2194586  -0.5133962  -0.4696698
  -0.0898971  -0.1279040   0.1891230   0.6722999   0.5574468  -1.1085479
  -0.0944264   0.6125029   0.9588412   0.2568557  -0.0600147   0.0345751
   0.2434881   0.0252748  -0.3186784  -0.0561345   0.3769879   1.2353669
   0.1378374  -0.2194276   0.0042509   0.4627038   0.8709428   1.7034155
  -0.6180717   0.1855400   0.0676667   0.0430789   0.4018142  -0.1258155
   0.4867819   0.1424277   1.3792558   1.2944980   1.0373395  -0.1691027
   0.0037422   0.0782480  -0.3657892  -0.5422061   1.0995843   0.5892635
  -0.1662104   0.5562272   0.1423646   0.3120435   0.1082808   0.3136685
  -1.0523097  -0.1427934   0.9774904  -1.0391092  -0.0814335  -0.0149834
   0.1945408   0.0591130  -0.2660953  -0.3536528   0.0311205   0.3956935
   0.7799350   0.2605718  -0.8031178  -0.1493153   0.0044440   0.0073935
   0.3543070  -1.3021515   0.4124385   0.4019115   0.4665042   0.0040518
  -0.0116836  -0.0163590   0.0984748  -0.5597031   0.0624898   0.6255767
  -0.6553258   2.0452079  -0.9402697  -0.0627894  -0.1104520   0.0467382
   0.3792787  -1.0359954   0.3082053   0.5234238   1.2461137  -0.3142259
   0.3080861   0.0124378  -0.0008888   0.2640522   0.2311263  -0.2296907
  -0.0784804  -0.6022968  -0.1006641  -0.3354046  -0.4553365  -0.1384224
   0.2929196  -1.4178730   0.0741606   0.4703709  -0.1414840   1.0371032
   0.2772095  -0.1671026  -0.2393603   0.7681546  -0.5204238  -1.4764918
  -0.4893227  -0.2684281  -0.2885401  -0.3426099   0.0732364  -0.1721280
   0.3533155  -0.9346931   1.2103745  -0.2227321   0.5736245   1.9930229
   0.1003009   0.2507930   0.1339068  -0.0424179   0.5842854  -1.4785596
   0.6662367  -0.3775001   0.7428236   0.1183861   0.2400719   0.2540555
   0.9534287  -0.0151775  -1.1853713   0.2345612  -0.7464454   0.0186201
  -0.2337130  -0.2422481  -0.2341537  -0.0208894  -1.3238727   0.0988807
  -0.0246551   1.3180106   0.2378942   0.2649989  -0.0221488   0.2821863
   0.0081101  -0.9965487   0.1940450   1.3551504  -1.3433063   0.9560543
   0.2065879  -0.0750642  -0.3608171  -0.2041159  -0.7706084  -0.0829122
   0.0538544   0.0560790  -0.5610853  -0.0319297   0.2258640  -0.2637654
  -0.1364905   0.6267082   0.6193703   1.1820473   1.5375180  -0.7708300
  -0.2571605   0.3330202   0.0049741  -0.6095387   0.3495431  -0.8753453
   0.2794174  -0.5023438  -0.5015380  -0.2223799   0.2460763   0.0358238
   0.4778407   1.0402806  -0.1588453   0.4866463   0.5964931   0.2891116
  -0.0661507   0.1566480   0.3038228  -1.7330023  -0.1451252  -1.0362968
  -0.6876742  -0.3894207   0.3514222   0.1217174  -0.4969540  -0.2041327
  -0.2134384  -0.4742455  -0.8192586  -0.8750199  -0.2153707   0.9282087
   0.0421674  -0.0252726  -0.0088013   0.1870576  -1.1643559   0.7829955
   0.6930058   1.0951614   0.1480989   0.0315559  -0.1556784   0.1612144
   0.1207590   0.0855716   1.0536324  -1.8013652   0.7096552   0.4911975
  -0.0235090   0.1557086   0.0575697   1.1299917  -0.9947142  -0.2286835
   0.4226885   0.6412279  -0.2873647  -0.2302508  -0.3160885  -0.2497516
   1.1108935   0.5811008  -0.6343846  -1.3206272  -0.8810258  -0.2948291
   0.2768260  -0.2429845  -0.3127501   1.1619634   0.7412247   0.3323509
  -0.1191968   1.2248177   0.6686919  -0.0069761   0.0927071  -0.1563668
  -0.6030562   0.8514439   1.5788483   1.6421754  -0.2874613  -0.4399547
  -0.1074350   0.1707844  -0.0971634   0.6023945  -0.4551339   0.2046131
   0.0154595   0.6337031  -0.0679683   0.1553791   0.0857364   0.3052422
  -0.3515015  -0.1304043  -0.4119260  -0.0374975   0.1475102   1.0721078
  -0.0959599   0.0226736   0.0220689   1.7853923  -0.0029505   0.0922324
  -0.6615713  -0.2293848   0.3958989  -0.3038386   0.2243210   0.0168885
   0.2228997  -0.2701904  -0.2125927   0.4704696  -0.3049256  -0.5058717
  -0.0444187   0.0604416  -0.0303223   0.9667919   1.5506703   0.0003917
  -0.2780415  -0.1940171   1.3799164  -0.0050412  -0.0989622  -0.0870773
  -1.1870275   0.5602126  -0.1610387   0.3060678   0.0377326  -0.2407520
  -0.1012872  -0.1021398  -0.1214092   0.2090414   0.3466511  -0.4137960
  -0.8364191  -0.4339406   0.3167541   0.0093850   0.0092339  -0.1039992
   0.3939133  -0.3631536   1.2310369  -0.4654812   1.2373028  -0.4696740
  -0.0408163  -0.5935530  -0.4237108  -0.6004682   0.7207967   0.3357844
   1.1163123   0.5295467   0.2523390   0.1614793  -0.0269658   0.4470270
   0.5628664   0.3615612  -1.1150769   0.3355486  -0.4167398   1.2066371
   0.1440097  -0.3005303  -0.1338495  -0.6982519   0.3352461   0.1110837
  -1.1047791   1.3516445  -1.4462603   0.4370804  -0.0243438   0.1020053
  -0.6105933   0.1879550  -0.6508111  -1.0939938  -0.1029300  -0.2289321
   0.2191732   0.1279896   0.2933416   0.1760373  -0.0329031  -0.5342079
  -0.4435849  -1.6002047   0.1314092   0.1216897   0.1687749   0.1108361
   0.6745847  -1.2415389   0.4317343  -0.8404402   0.1190201   2.5687818
   0.1168064   0.1922365  -0.1712607  -0.2577674  -0.3450263  -0.0939906
  -0.5259600  -0.3896134   0.1952362   0.1023554   0.0216716   0.2226660
  -1.0928636  -1.0190867   1.9029607   0.0006055  -0.1542288   1.3337049
  -0.1413988  -0.0922556  -0.0753257   0.5204932  -0.3794723  -0.9514718
   0.4045111   0.6755613   0.2965935   0.0044153   0.2395805   0.2068847
  -1.4193592   0.0187008  -0.0569749   1.8126186  -0.0136979   1.0998171
  -0.1404264   0.2498088  -0.0252615   0.4689230   0.3711067   0.0420446
  -1.1433175   1.3010507  -0.9815917  -0.0826923   0.2630357   0.2542633
  -0.4751541   0.2076955   0.3455365  -0.3033029  -0.6371254  -0.4039991
   0.0359807  -0.1859913  -0.0254315   0.2341693  -0.1906022   0.0823488
   0.4920286  -0.5414254   0.9008047   0.0785670  -0.2887336  -0.0381967
   0.5432354  -0.5012552   0.0722297   0.3301696   0.0966921  -0.2314854
   0.0857387   0.0031469  -0.3083829  -1.3818045   0.6458680  -0.4874424
   1.1181690   0.9693547  -0.0636266   0.0293291   0.1264513   0.2394652
  -0.5791683  -0.2473709   0.6156130   0.6734081  -0.2342441   0.4860623
   0.1363973   0.2502779  -0.0477162  -0.6487881   0.4268331   0.3078222
   0.3769428   0.1533556   0.2176061  -0.0530077   0.3252091  -0.1471456
   1.0865189   0.6984613   0.3487683  -0.2298224  -0.9622182   0.5641300
   0.2065650   0.2056024   0.0944689   1.3794410   0.2468602  -0.0908249
  -0.1041838   0.9917725   0.1169993   0.0413820   0.0543088   0.0992777
   0.3418440   0.4091495   0.1775260  -0.2902425  -1.0904867   0.7934551
   0.0268608  -0.4153354   0.3713338   0.0798603  -0.1184355  -1.1855437
  -0.2486494  -0.0845674   0.6112269  -0.1409894   0.0999123  -0.1088692
   1.3482093  -0.4684787   0.3635239  -0.6475175  -0.7720847  -0.5797067
   0.0615187  -0.0145200   0.1301170  -0.1637397  -0.0810590  -0.0798545
  -0.2420068  -0.0430196   0.7465705  -0.0400293  -0.3769803   0.3083635
  -0.0367316  -1.0177147   1.6333743  -0.7283034  -0.0787224   0.4442175
  -0.0033734  -0.0246716   0.4499805  -0.7634423   1.3919853  -0.0952571
   0.0164195  -0.2365970   0.2626122  -0.0742477  -0.2514959  -0.0366378
  -0.9313578   0.2289730  -1.1338604   0.2718457  -0.4046929   1.3993127
  -0.1287315   0.1481224  -0.2693645   0.5888329   0.7304932  -0.0609442
  -1.0218650  -1.0874373   0.5444192  -0.0376572   0.1727459  -0.0709894
  -0.8253562  -0.8002385   0.0222409   1.2753782   1.5541112   0.1443079
   0.2039977   0.1530738  -0.0681470  -0.0211978  -0.1764010   0.1408508
   0.4477078  -1.1038651   0.5862293  -0.1167068   0.2546827   0.3433028
   0.9579095   1.6842883   0.7290752  -0.3108896  -1.1110753  -0.2333275
  -0.1567376  -0.0650277  -0.0450865  -0.2649833  -1.2964512  -1.0660826
  -0.8894985   1.0897930   0.6557082   0.1717239  -0.2251815  -0.1477921
   2.5009316  -0.0551733   0.2143344   0.2005156   0.2636783   0.3539879
  -0.1040426   0.1440903  -0.2609124   0.4298302  -0.1946618   0.6766444
  -0.3805475   0.9213706   0.8888062  -0.0948853  -0.0309118   0.1537850
   0.2537566  -0.3958292  -0.1142215   1.9253149  -0.2034964   0.3505915
  -0.0232810  -0.1366516   0.1399891  -1.4629814   0.0164767  -0.1603460
   0.3844581   1.3838304   0.9215349   0.1101132  -0.0958424  -0.1249201
  -0.3893567  -1.9713567  -0.1119076   0.9365576  -1.6368569   0.5831583
   0.1982485  -0.0746657   0.0010031  -1.0697205   1.0064877   0.9835161
  -1.3960118   0.4401364  -0.5939613   0.0280708   0.2520698   0.0413299
   0.3423973   0.2078553  -0.9458629  -0.4097794  -0.3835582   0.6532564
   0.1142203  -0.0261365  -0.0502171   1.0136198  -0.3661557   1.2920519
   1.3811423   0.8975955   0.4449661   0.2091515   0.0201301   0.2315544
  -1.4378176   0.5091886   1.6803832   0.7735953  -1.0995626   0.4548012
  -0.1759477  -0.0428963   0.2089617   0.5117440  -0.0547787  -0.8022879
  -1.7399424   0.7177849  -0.3907161  -0.0613237  -0.1401265   0.0249020
  -0.3520830   0.1806554   1.6496156  -0.7899988   0.2047979   0.2477673
   0.0042140   0.2907820   0.2346605  -0.7589229   0.4462751   0.8806229
   0.0688974  -0.4572375   0.8194166   0.1674667  -0.1179154  -0.0309513
  -0.3826046  -0.2063513  -2.1150816   0.3599208  -1.0127170  -1.3446456
   0.2257131   0.0269300  -0.3590616   0.8820042  -1.0145846   1.2770888
   0.3662379  -0.8650591   0.1641236   0.4371316   0.2947991   0.3664246
   0.0627715  -0.0317575   1.1009600  -0.0113255  -0.7852985   0.4089814
   0.0582768  -0.1311694   0.0393030  -1.5178144   0.0768833  -0.0860651
  -0.1071099   1.3552110  -0.0188375   0.1611413  -0.4084955   0.3480539
   0.3519810   0.1354453   0.1594473  -0.4514844  -0.0203992  -0.9380331
  -0.1117958   0.0229914  -0.0690076   0.2185258   0.0687402  -1.8440029
  -0.3715310   0.3975254   0.5792199  -0.0788438   0.0156314   0.1017811
   0.1489240  -0.9501740   0.2036129  -0.0725440   0.2415747  -1.1518841
   0.0942291  -0.0399129  -0.0953315   0.3302442   1.4323795  -1.1710151
   0.9663263   0.2969891  -0.4468979   0.0737593  -0.0914082  -0.0865637
   1.0989125  -0.5812531   0.1652084   0.0613129   0.4895286   0.9256191
  -0.1168363  -0.1599604   0.0988141  -0.3232441   0.0093697  -0.1820511
   1.0791972  -0.5128944   0.2987338   0.1666768   0.0607151  -0.1368102
   1.2249139  -0.7318413  -0.1025119  -0.5806248  -0.1859872  -0.2966673
   0.2560589   0.0597601  -0.0534353  -0.7312494   1.0598181  -1.3697446
   0.2316861  -0.7583511   1.1904074   0.1610430  -0.1556735   0.1043462
   0.5491020   0.2375577  -0.6290660  -0.5064682   0.3006150   0.5661659
  -0.0332978   0.1162372   0.0815528  -0.5670461   0.6401293  -0.4379348
   0.5851615  -1.2199173  -1.1005837   0.0649067  -0.0386021   0.2846380
   1.6640522   0.3735198   0.3998287  -0.1134030   0.2708560  -0.2803507
  -0.3552584   0.1926691  -0.2728379  -1.3452539  -0.1023536   0.4352686
   0.3928772  -0.0913241   1.0224537  -0.0779114  -0.0726353   0.2070558
   0.6011980  -0.6995870  -1.0170912  -0.8555697   0.2794019   0.4890201
   0.6575053  -0.2962493  -0.1730323  -0.2417336  -1.0075558   0.5941328
   0.1914531   2.0942321  -0.3993138  -0.0979267   0.0305082   0.0243977
  -0.1482451   1.1957058   0.0051813   0.6863026   0.0175604  -0.1410024
  -0.3995584   0.0677498   0.0986492   1.3201297  -0.2013996   1.1823913
   0.6542342  -0.8735586  -0.4769304   0.1105096  -0.1274261  -0.1340899
  -0.2950107   0.0767494  -0.4845110   0.0245310  -0.4303417  -0.4107322
   0.0689460  -0.1290441  -0.1505684   0.8880777   0.4341227  -0.0260732
   0.0667535   0.3830714   0.7189756  -0.0868389   0.0628447  -0.1098495
   0.7504711  -0.1126647   0.1894259  -1.6164359  -1.2279542   0.3894743
   0.1809068  -0.2046515   0.1030527  -1.3747215  -0.5915025  -0.0615133
  -0.1677775   1.7636536   1.0056415  -0.0510251   0.1199505  -0.0821064
  -0.9785132  -0.0590364  -1.7604512  -0.1731975  -0.5948090  -1.1050465
  -0.0475816  -0.3842853   0.2482679   0.3916441  -0.2211072  -0.0025858
   0.7736964   1.2126248  -1.3624176   0.3666960   0.1046437  -0.0603334
   0.3058360   1.1202952   0.1941815  -0.3164498   0.6605389   0.2419284
   0.0472546   0.0152933  -0.0122279  -0.0618069  -0.3519838  -1.2598871
   0.1859594   0.2342929  -0.5580812  -0.2150509   0.4908340  -0.2799236
   0.4172332  -0.1233501   0.3609996   0.7571013  -0.2153449  -0.0735546
  -0.1888574   0.1530550  -0.1296453  -0.7310897  -1.1345639  -0.9851317
  -0.1838635  -0.2873981  -0.3940074   0.1623111   0.0552793   0.2097629
  -1.1284641  -1.7209817  -0.1120464   0.9026749   0.5391688   0.9357258
   0.0008647  -0.1448876   0.1052594  -0.0184194   0.7489581   0.2393620
  -0.0250508  -0.1670849  -1.5765790  -0.2180233   0.0529300   0.0037468
  -0.8991893  -0.8490969  -0.0844217   0.5094993   0.9602740  -0.2655608
  -0.2596804   0.0734414   0.2400841   0.4850990  -0.3581002  -1.6233675
  -0.2964421   0.3609086   0.9421896  -0.0223410  -0.0740021  -0.0473716
   0.3021062  -0.3791121  -0.4893807   1.2744428   0.9339947   1.1960983
  -0.0469761   0.2039173  -0.0026716   0.3161923   0.2758628   0.0097285
   1.1902447  -0.4556519   0.3591402   0.2360730  -0.0416985   0.2891384
  -0.0820126  -0.1023570  -0.5102838  -0.0421021   0.8062067  -1.9539386
  -0.4688016   0.0308601  -0.0285801  -0.3829161  -1.1686876   0.0800474
   0.2854752   0.5021791   0.3607817   0.0777078  -0.2151927   0.0013375
  -0.9056320  -0.6989551  -0.5563841  -0.4845908  -0.0705859   0.1823949
   0.1488321  -0.2710326  -0.2071396  -0.1198423  -0.2905463   0.5822533
   0.0397401  -0.7922072  -0.1518866   0.0433271  -0.2219507   0.6465745
   0.9048939  -0.2867974   0.8113232  -0.0922455  -0.9903100  -1.2698152
  -0.1336405   0.1550724  -0.0666211   0.0141421  -0.2180107  -0.6802809
   0.2694923  -0.8553808   0.7894456   0.0773717   0.1255549  -0.0824225
   0.3577541  -1.1431506   0.5209528   0.5565241  -0.7656508  -0.5835339
  -0.0349232   0.2858162   0.2317638  -1.7275114   0.0930571  -0.7047685
  -0.3958402  -0.3218903  -0.8981106  -0.0064235  -0.2362160  -0.0897123
   0.7043114   0.3534557   0.4771409  -1.0432343  -0.1139226   0.2272279
   0.0547148   0.1881844   0.0916437  -0.2178533   1.1464742   0.5789155
  -0.2431281  -1.4474664   0.1826670  -0.1203493   0.2231515  -0.0662551
   1.9158967   1.0509919   0.0826553  -0.7099700  -0.5944920  -1.3348338
   0.1906826  -0.2627879   0.1570169  -0.8069074   1.6405917   0.3424381
   0.2323140   0.0718683  -0.7554750  -0.0630360  -0.2250283   0.1623866
  -0.6409020   0.0723633  -1.0026822   0.5478374   0.2475382  -0.3348553
   0.2013123   0.2716807   0.1958325  -0.6372709  -1.4148184   0.7929363
   0.7471082  -0.9051323  -0.2338895   0.2304637   0.4232579   0.0141592
  -1.4177373  -0.9027249   0.5381129  -0.9525530   0.0956987   1.2061006
  -0.3611277   0.1200737   0.0743076   2.1303932   0.1880576  -0.4517794
   0.2059488   1.3835085   0.8463034  -0.2160277   0.0420380  -0.0284538
   0.2208128  -0.0159755   0.2843003   1.6726208  -1.1977621  -0.6714462
   0.2419976   0.0747912   0.4012567  -1.1698410  -0.2959326   0.1687757
   0.9241501  -0.3152772   1.7383076  -0.1208516   0.2041960   0.0524083
  -0.7149880  -0.9609535   1.6926627   0.6629892   1.0480062   0.5806151
   0.0774696   0.2208732  -0.1668757   0.9349855   0.2448689   0.5587885
   0.7003482   0.2750002  -1.8620062   0.0135839   0.3254754   0.0701965
  -1.6373645  -0.1932113  -0.3581325   1.1655010   0.1698247  -0.9854281
   0.0879941   0.2050874   0.3174042  -0.3492995   1.0334771  -0.5788400
   0.2918709  -0.1728897   0.6321561   0.0576131  -0.0117902   0.0476641
   0.8204221  -0.1639417  -0.0986882   0.3846482   0.0204889   0.3590500
  -0.0485023   0.1835684  -0.1811795  -0.8143169  -0.1136582  -0.1538224
   0.8430860   0.3134335  -0.2793060   0.5971534   0.1795808  -0.1344988
  -0.4321582  -1.1588276  -0.2249292  -0.3333735   0.2125328  -1.8394858
  -0.0531879   0.0934161  -0.2491458  -0.1273490  -1.7405353  -1.5422825
   0.9513589  -0.8560823   0.3037747   0.1874650   0.0780327   0.0061282
  -0.7090462   0.0228893   0.2240272  -0.0942053  -1.1363157   0.2894101
  -0.1985115   0.0777339  -0.0687241  -1.8754046   0.3834246   1.0945310
   0.1030980   0.1602292   1.2825101  -0.0892036   0.3542725   0.2095209
   1.0116985   0.4742344   0.1271710  -0.4867013  -0.3823561   0.6824934
   0.2440876   0.1109267  -0.2216766   0.1128259  -0.4867722   1.3674761
  -0.7599492  -1.2960984   1.1624748  -0.4037106  -0.0368663  -0.0899525
  -0.6293293   1.4408908  -0.3179313   0.0700806   1.4867577  -0.2588172
   0.0549629   0.0714794   0.1862764  -1.2914940  -0.3207849  -1.4955289
  -0.1058643  -0.0973495  -0.1893210   0.1736774  -0.4432414  -0.0991789
   0.8370885  -0.1888701  -1.5137543  -0.0161444  -0.3590897   0.2280355
  -0.1027492  -0.2789833   0.2750409   0.4219056   0.1669120   1.0817643
  -0.2241371   0.6458136   0.0685559   0.1800421  -0.0036438  -0.2492225
  -0.1766071  -0.7971802  -0.8151746   0.6986208  -1.4855584  -0.5774475
   0.0476455   0.0599540   0.1953463   0.4143483   0.4281344  -0.0466222
  -0.4018061   0.4245558   0.7799701   0.1775446   0.2624562  -0.1278064
   0.6030558  -0.2680794   0.7138472   1.7059474   0.1716035   0.6113470
  -0.1366899  -0.0082165  -0.2429071   0.0458337  -0.1254247   0.9144053
   0.8376199   0.2280355  -0.3504500   0.1826666   0.2444570   0.0214073
  -1.7377106   0.2617946   0.3314777  -0.0584617  -1.3734385  -0.4487117
   0.2936013   0.0723525   0.0174911   0.9651089  -0.5353580  -0.9216863
   0.3943973   0.6589542   0.5624337   0.1086557  -0.2761607   0.1763868
   0.8729980   0.2718586   0.0417772  -0.0025027   0.1653326  -0.6934206
   0.2757363   0.0368903   0.3305535  -0.8509069   0.4478860  -0.8229428
   0.0280515  -0.2950390  -0.8358152  -0.0639333  -0.0881456   0.1749575
  -0.3095994  -0.3162087   0.6809596  -0.5427294   0.7612552  -1.2077552
   0.1402797   0.0784202  -0.3123549   1.7560717  -0.6832436   1.1107657
  -0.8573984   0.1932205  -0.5709008   0.2532884   0.0800451  -0.1748764
  -1.7881540   0.9948740  -0.2045434  -0.4838667  -0.2800424  -0.2527292
   0.4086999  -0.6008185   0.2180270  -0.7286020   1.8525696   0.4009312
  -0.6744725  -1.0024185   1.1226389   0.0149275   0.5052460   0.2722512
   0.2908383  -0.4617606   0.6159785  -0.5721604   0.4129165   0.1904118
  -0.2669356  -0.0153178  -0.1593233   0.0296102   1.0716735   0.5484047
   0.7637685  -0.7938649   0.7212231  -0.1629995   0.3322349  -0.1873525
  -0.2606701  -0.3253174  -0.3990671  -0.5530980  -0.3880028  -1.1405815
   0.1471244   0.2155343  -0.2444527  -0.5040675   0.6120118   0.9152845
  -0.1996371   0.0862141   0.3947816   0.0405673   0.0655927  -0.3284030
  -0.0219791   0.3825304   0.9242044  -0.2556641   0.1491016   0.7595635
  -0.0687877  -0.0348412   0.2747170   0.3165056   0.1541587  -0.0902838
  -1.0269084  -0.0264622   1.1260389   0.1233462   0.1748025  -0.3493526
  -0.6660852  -0.3795873   0.1911594  -1.0874619  -0.4033279   2.1094699
  -0.1320228   0.2072367  -0.0649176   0.9457997  -0.6816323   0.0716744
   0.1270815  -0.6338378  -0.0758190  -0.2161905   0.0654678   0.2148260
   0.1449023  -1.3543363  -0.3963155  -0.5745376  -0.3237630  -0.7212903
   0.0086599  -0.0964970  -0.0565325   1.3737216   0.2570804   1.3769575
   0.3557039   0.2503172   0.0563665   0.1569354   0.0642941   0.1071722
   0.4001457   0.8437825  -1.3803610  -0.3354451  -0.1729917   0.4027204
  -0.0959870   0.0246212   0.1316083   2.1686004   0.7090570   0.3242531
  -0.3506170  -1.4341802  -0.8533926   0.2101845  -0.3080926   0.1022361
  -0.7539388   0.1437973  -0.4533319   0.5306991  -0.5952783  -0.9386296
   0.0666901  -0.0814386   0.1801702  -0.4487547  -1.1228828  -0.2331650
   0.3903103  -0.0436116  -2.2317566  -0.0134724   0.1354552  -0.0674565
   0.7131687   0.8266184  -1.2206772   0.0393773  -0.5375362  -1.3978527
   0.1302390  -0.1208714   0.0654061  -0.7062361  -0.1068785  -0.1330857
  -0.1987781  -0.1307230   1.7063832  -0.0008661   0.0836970  -0.0039282
   0.3532379   0.5020516   0.5462310   0.3297852   0.0196764   1.0034844
  -0.4013163   0.2847797   0.0574257   1.4083824  -0.0703146   0.3286174
  -0.2666739  -0.9613059   1.8159447  -0.2120310   0.1307175  -0.5189949
  -2.1458191  -0.0628379   0.1937168  -0.7305550  -0.2831614  -0.2536916
  -0.2958635   0.1401512   0.1576310  -0.5078641  -0.5324285   0.8210042
  -1.3672224   0.2272988  -1.1755739   0.0100720   0.0903324   0.0513729
   0.1564604   0.0153580  -0.6494478  -1.0023945  -0.8881622   0.4502039
  -0.2546896   0.0423670  -0.1287412  -0.2759655   0.4408925   0.0524439
   1.0801375  -0.4240929  -0.2520083  -0.0571855   0.0534882   0.1858109
   0.7973552   0.6292336   1.0977874   0.6874719  -0.2687731   1.7245016
   0.1212758  -0.2971747  -0.3753356   0.9575910   0.2394269   0.5874371
  -0.0955435   0.5167332   0.5853368   0.1897600  -0.3107008  -0.0559962
  -0.7417342   0.3604886  -0.1163487  -0.0099804  -0.7872359   0.1626574
  -0.1250534   0.0091045   0.4510600  -2.5756789   1.1700268  -0.6931246
   2.0523506  -0.9183049  -1.7655342   0.0962073  -0.0112333   0.2644481
  -0.7788500   1.9081526   0.1883874  -0.1878509  -1.8434178   0.3756998
  -0.1038456   0.4581424   0.0365603  -0.4926871  -0.0881922  -1.0966843
  -0.9605419  -1.6918877  -0.9236322  -0.0341407  -0.3649230  -0.1213538
  -1.1229649   0.4225291   0.6253218   1.6209155   0.4488518  -0.1452016
   0.1869221  -0.0413758   0.0557004   0.2566457   1.2006809   0.0918319
   1.0939818   0.4469655  -0.9211439  -0.1364440  -0.0028947   0.2344602
   1.1194846   1.0390049  -1.2284343  -0.9327946  -2.0147808  -1.1618700
  -0.0977902  -0.1326290  -0.0593174   1.1576552  -0.2433875   1.2307819
  -0.8612455   0.5695373  -1.7638369   0.0172409   0.4317156   0.0100869
  -0.8907624  -0.7291238  -1.3120112  -0.9714252  -0.2197509  -0.0174558
   0.0330401   0.2262356  -0.1666812  -0.3240213   0.8534948   1.0344499
  -0.4890810   0.7927748   0.4373582  -0.4365696   0.1306169   0.0038282
   0.3972928  -0.8056912  -0.3361136  -0.1240981   0.3669856   2.1014404
  -0.2623718   0.1868021  -0.1158899  -0.8565474   0.4581163  -0.0133432
  -0.4312558   0.2744296   0.9392214   0.0184690  -0.0692098   0.0433671
   0.3571212   0.2591758  -0.3107737  -0.0191943  -1.3572458  -0.3006733
   0.0869148   0.0559466  -0.2830217   0.1276378   0.0617520   1.8876908
  -0.5451771  -0.4484274  -0.5329325  -0.1663985   0.0030190  -0.1035764
   0.3567657   0.1327620  -1.0918335  -0.7277953   0.1511425   1.2451448
   0.2443000  -0.0876581   0.2180191  -0.1824384  -0.1251160  -0.6659354
  -0.6665540   0.7843976  -1.0190347   0.1302101  -0.1751549   0.0770236
   0.1919020  -0.0368507   0.9314264   0.3761401   0.0345195  -0.2696676
   0.1369147   0.0897601  -0.1137895  -0.5813213   0.0773838  -0.1168842
  -0.1972744  -0.3441633  -0.0179190  -0.0035007   0.0572165  -0.1953429
   1.2520396  -0.4522873  -0.3555584   1.0185131   0.4646311   0.3232951
  -0.0792993   0.0421450  -0.0375200  -0.1999983  -0.9809144  -1.2434234
  -0.3172074   0.1772330   0.1414081   0.2594144  -0.2548693   0.0386164
  -0.7166901   0.6183402   0.2535487  -0.2725274   0.8325413  -0.8213317
  -0.0742566  -0.0155191  -0.1271348  -1.1348020  -0.7462721   0.9444095
   0.2145726   1.3779410   0.5218110   0.0745743  -0.0324275  -0.1370408
   0.3559433   1.0078176   0.5024427   0.5682116  -0.2508249   0.3009891
  -0.1237112   0.0689531  -0.0497843  -0.9521522   1.1252786   0.0028055
  -0.9994727   1.0707726   0.1506667  -0.0089670   0.1788398   0.0393936
  -1.5912912   0.7110367   0.4828339  -0.0777922  -0.2144184   0.6085665
   0.0106456   0.0740447  -0.1327233  -1.2209330   0.1179753  -0.6610844
   0.5151968  -0.4608806  -0.0197245   0.1377848   0.0662860  -0.2973835
   0.4191748  -0.1417993   0.3477905  -0.6912461  -0.9039690   1.5921098
   0.1138694  -0.0838179   0.2921478   1.8314285   0.5226826  -0.7768556
   1.1950472   2.1445879  -0.4427545   0.0955944   0.0745149  -0.0916584
   0.5333831  -0.8387006   0.4601155  -0.5801410  -0.7118038   0.1444954
   0.2086658  -0.1860740   0.2435867   1.7724263  -0.0965910   1.2330392
   0.1253743   1.5284354  -1.6871472   0.0880830   0.2069446  -0.1247047
  -0.0524597   0.4764940  -0.3771079  -0.1102625   0.2378072   0.3036150
   0.0953091  -0.2664165  -0.0136496  -0.6768961   0.5317746   0.8079568
   0.2117451   0.5303543  -0.5317251   0.2130979  -0.0695560  -0.1116081
   0.4553579  -0.8271604  -0.0797521  -1.1894086  -0.2941077   0.7269763
   0.1034133   0.5462741  -0.4253687  -0.2827496   0.7562650  -0.2276455
   0.0710186  -0.4837190  -0.7748228   0.4216828  -0.0189608   0.0897635
   0.3271375   0.5906600   0.7326307   0.9650853   0.0886522   0.4878711
  -0.0116005   0.3432076  -0.1087300  -0.3666492  -1.5334954  -1.3130613
  -0.2317366  -0.7846459  -0.0519988   0.0423205   0.2439716   0.0027877
  -0.4008465  -1.1275735  -0.8335558   1.8567318   0.7005729  -0.3227770
  -0.0770574   0.0368159   0.1498873   1.1692864  -0.1958326  -0.8076780
   0.8334113   0.2470238  -0.6077331   0.0607629  -0.0562909  -0.3478687
   0.1877881   0.4514461  -0.5013447   0.6523662  -0.0798357  -0.3401270
   0.1676710  -0.1946948  -0.1925674   0.3260395   0.1500190  -1.3646489
   0.6328604  -0.1075255  -0.6308676  -0.0372562  -0.0022843  -0.2104532
  -0.4717228  -0.6765453   1.1789094   0.2153100   0.6172126   0.8960281
   0.1661579  -0.0020361  -0.0690399  -0.1838852   0.1192296  -0.9066943
   0.6869692  -0.7938213   0.3117970   0.4364667  -0.2133858  -0.1033056
  -1.1746746   0.3068350   0.3793645  -0.9417887   1.0513494   0.5798908
   0.0004780  -0.0180995   0.3990671  -1.5770208  -0.2994689   0.0358106
   0.5979301  -1.4112143   0.6404061  -0.0093970  -0.3471643   0.2229843
  -0.3117077  -0.9597712   0.4986219  -0.4586962   1.0097501  -0.4078982
   0.2068265  -0.3734566   0.1106085   0.4416246  -1.4432475   1.2118418
  -0.0309359   1.3471428  -0.8398795  -0.3892516   0.0585932  -0.0444163
   0.1541327   1.2079473   1.2299866   0.8708322   0.6487494   0.7048909
   0.2055422  -0.3165661   0.2492768  -0.7812724   1.1629539   0.3729556
  -0.4079734  -0.2756276  -1.1400972  -0.1814152   0.1655431  -0.1462290
   0.1625523   0.8069593   0.6195635   1.1486926  -0.4016200  -0.6912715
  -0.3028075  -0.5410048  -0.3002826  -0.3796357  -1.0189760   0.3019053
   0.4837259  -0.2702004  -0.2116637   0.0323575  -0.3028990   0.0609813
   0.4568418  -1.2516270  -0.1913599  -0.1679792  -1.0240854   1.0360667
  -0.0231630  -0.2176404   0.6044869   0.2775338   0.6623159   1.4127526
  -1.9676253  -0.6979099  -0.1048411  -0.3377019   0.2197224  -0.0883300
   0.2178572   0.3030319  -0.7288367   0.4795039   0.9721703   0.9138819
  -0.1282092  -0.2465080   0.1143369   0.2970816  -0.6647485   0.8554203
  -1.2915721   1.3557139  -0.2330862  -0.0705612   0.2290773   0.1657084
   0.9580783  -1.4963709  -1.3464796   0.7586649   0.3735972  -1.3368905
   0.1757402   0.2451780  -0.2533971  -0.2425071  -0.5510589   0.8544216
  -1.2977007   0.5218483   0.7551070   0.1312583   0.5184937  -0.4313200
   0.3294747   0.7380316   0.2968284  -0.2177584   1.2400612   0.9258892
   0.1353490   0.2336279  -0.2464100   0.4734245  -0.5446665  -0.3307521
   0.3058727  -0.3431142   0.7286459   0.1573926  -0.0234471   0.2208853
   0.1780775  -0.3373518   0.3034034  -0.8047090   0.4357451  -0.8477601
   0.0374912  -0.0402227   0.1940603   0.7566831  -0.0398965   0.2017855
  -0.6400020   0.0646632   0.2144295  -0.1554367  -0.0421981  -0.0944743
   1.7416847  -0.4566164   1.5607783  -0.3719950   0.7172879   0.7304008
   0.1920490   0.0817127  -0.4092811  -0.9362690  -0.9141104  -0.3186077
  -0.3255944  -0.6948865   0.9110157   0.1339132   0.4027008   0.1796159
  -0.4171278   0.0950050   0.2020450   0.0118647   0.2296260  -0.7630270
   0.3276198  -0.2966636  -0.2953665  -0.5198798  -1.1781372  -1.1057381
   0.2867532   0.6245587   1.2530539   0.0395547   0.0107687   0.0534413
  -1.3010946  -0.8729754   0.1065780   0.6542399  -1.4021064  -0.0803032
   0.0073700  -0.0226007   0.0258715  -0.5512992  -1.7927827   0.3464765
  -0.8022717   0.7061853  -0.2128221   0.1797258  -0.1767539  -0.0913788
   0.3105501   0.6141803  -0.2078262  -1.1755982  -1.0648884   0.9951258
   0.1050477   0.1000440   0.1053225  -0.3236932  -0.8568975  -0.2018089
  -1.8779250   0.1465827  -0.5944781   0.0396042  -0.0510390  -0.0244737
   0.2316036   0.2837501  -0.5096072   0.3818523  -0.3459815  -0.6205321
  -0.2587481   0.0709089  -0.1247233  -0.9063239   0.6853928   0.2495841
   1.1840008   1.3388252   0.0125074   0.2472270   0.3021336  -0.1789870
  -0.1619683  -0.2293911   0.7385020   1.1306682  -0.0383038   0.7413134
   0.2586308  -0.0935414  -0.1098547  -1.0092142   0.7498255   0.3456384
  -0.5760481  -0.2058271  -0.0289759   0.0514465   0.1404513   0.3990602
   0.7467973  -1.0100464   0.4858047  -0.2118687   0.8222368   0.9913596
  -0.4138134   0.0818026  -0.3495892   0.6109443   0.0730203   0.0892655
  -0.4487311   0.2040963  -0.5187362   0.1368734   0.0241576   0.3998189
  -0.3548290   0.2394898   0.0486968   0.1582685  -0.8639769   1.0661407
   0.0970189   0.5241632   0.1687290  -1.0533491   0.5046237  -0.5607142
   0.7871903  -0.8718755   0.2487146  -0.0687381   0.0746729  -0.0695351
  -0.0158787  -0.4959648  -1.4046632  -1.0102442   1.0671341  -0.1727097
  -0.1109093  -0.2467520   0.0659038   0.1910428   0.6681437  -1.2730669
  -0.7495203   0.0588029   0.4747916   0.0525116  -0.1348552   0.0792879
   0.0822825   0.2466157  -0.6888948  -1.0111379  -0.4430991  -0.5893464
   0.0491925   0.0713586   0.3375456   0.0074365  -0.4228889  -0.3421020
   0.0518700  -1.3896226   0.1754043  -0.0659923   0.1458795  -0.1098921
   1.3248290  -0.1260658  -0.7236088  -0.0822436  -0.6851013  -0.8292312
   0.1304016  -0.2095729  -0.1634295   0.6825993   0.8587902  -2.1819587
  -0.4720280   0.4531999   1.7514090  -0.0102757   0.1909681   0.2192454
   0.0049908   0.2974773   0.2182985   0.5001798   0.1715211  -0.3959775
  -0.1893911   0.2435845   0.3070071  -0.4840395  -0.5058157   0.3246889
   0.2385361  -1.1574461  -1.1850654   0.0178757   0.0134609  -0.1449637
  -0.9520634  -0.0074952   0.7480237   1.1230770  -0.5833813   0.3700570
  -0.3277698  -0.0289495   0.0029626   0.7856043  -0.9625056   0.8330209
   0.1099486   0.1161344  -0.9076545   0.2649762   0.0442568  -0.1403405
   0.5236498   0.4708997  -1.3540278   0.5409990   0.1627035   1.0714479
  -0.3492056  -0.2596359  -0.0891373   1.6388148  -1.2311117   0.0272657
  -0.3911414  -0.0727187   0.8543327   0.0982341  -0.0958565   0.1882795
  -0.3857560  -0.8231519   0.5266673   0.0515770   1.0643485   0.4818140
  -0.1875166  -0.2517376   0.2375660   0.1663986   1.3877181   0.5190453
   0.9816543  -0.4561911  -0.4900101   0.0980499  -0.0820628  -0.1276909
   0.0115718  -0.2116044  -0.9394056  -0.7671170   0.1131973   0.3383169
  -0.2405830   0.0389978  -0.2354875  -0.8077629  -0.5572014  -0.8473305
  -0.2977686  -0.2890919  -1.5778041   0.0819480  -0.0588021  -0.1809698
   1.8439651  -0.2820605   0.0663901   0.3435408  -0.6284730   0.6815400
   0.1282805  -0.3723245   0.1644151  -1.4288845  -0.3135332  -0.0872790
   0.7780185  -0.8133947   0.8306437   0.2182987  -0.0552147   0.0862149
  -0.0040926  -0.8642764   1.2184941  -0.8469858  -1.2581501   0.3236073
  -0.3024289  -0.2068261   0.2105014   0.1310290   0.6462266   0.8507376
  -0.3620238   0.3224567   0.3430799   0.5978786   0.4359596   0.1722063
  -0.7133775  -1.6316187   0.3951275  -0.8797069   0.6180051   0.8087055
  -0.1893233   0.1306532   0.0094451   0.0369311   0.9393207  -0.8113681
  -0.4097025  -0.7284782   0.1277206  -0.0148711   0.0111963  -0.0402555
   0.3668025  -0.1970010   0.9210527   0.8387714  -1.0493851  -0.6395135
   0.0018606  -0.1357273  -0.0715335  -0.7372776  -0.5370036   0.2034064
  -0.4348456  -0.3072899   1.3803161  -0.1186142   0.0996530   0.3381184
  -0.2811886  -0.0605008   1.0367260  -0.7666539  -0.5379449   0.0855742
   0.0350693   0.0924073   0.4790520  -0.3199363   0.0884293   1.5985115
  -1.1340036  -0.3310181  -0.5207294   0.0550610   0.1552901   0.5501315
   0.1856626   0.2949252   1.1094331   0.2234014  -0.4741172   1.6915281
  -0.0880883   0.0266721   0.1646496  -0.1971643  -0.1143899  -0.3418219
  -0.4834395   0.7026692   0.3233971   0.2458308   0.1532184  -0.2407747
  -1.7475894  -0.7540162   0.3961188  -0.3749800   1.0492371   0.4446933
   0.0701135   0.3022351  -0.2229305  -0.0789941   0.3054339   0.3913505
   1.0139925   0.6955892   0.0724817  -0.1756325   0.1304360  -0.1927464
  -0.7937708  -0.8243947  -0.6941506   1.1087965  -0.1581688   0.3166785
  -0.0331006   0.3526198  -0.0443215  -0.0925493  -0.4282330   1.0004260
   0.1738907   1.0794587  -1.2329284   0.2452687   0.0897168   0.1177522
  -0.7048082   1.1266602   0.0073818  -0.7875285   0.0651957  -0.0383701
   0.1711410   0.0209823  -0.0067853   1.2071550   0.7058220   0.6501735
  -1.0680555  -0.6726876  -1.2875434  -0.2456912   0.1344353   0.2568069
   0.5893092  -0.6581845  -0.2022442  -0.0593619   0.5807281   0.7243576
  -0.3605990   0.0455116  -0.2019354  -1.0328080  -0.4350356   0.6782996
   0.3664322   1.1762136   0.5128016   0.1507400   0.1916268  -0.0290087
  -0.7326303   0.7699835  -0.3405206   0.3806597   0.6617453  -0.9760895
   0.0221695  -0.1245932  -0.0026603  -0.9061682  -0.1122547  -0.1826262
   0.4635844   0.2083523  -1.8858393   0.0290107   0.0043881  -0.0353740
  -0.7040775   0.8984255  -0.6851070   0.4805791  -0.0922226   0.4986035
   0.0005136  -0.3430574  -0.3950361  -1.1497233   0.5732470   0.6192412
  -0.1965148   0.2643285   0.5482541  -0.1921752  -0.1566981   0.0549443
   0.3737556   0.3872548   1.0637415   0.6848806  -0.1227593  -0.8510686
   0.2105826   0.3075469   0.1637282  -0.1900865  -0.3584133  -0.3486302
  -0.7690209  -0.3429531  -0.4816516   0.3300398   0.0058841  -0.1969810
   0.4028156  -0.3600294   0.4763659   0.2749735  -1.7773280   0.6268755
   0.1011046  -0.3102396  -0.4147575   0.1357344  -0.4505873  -0.7441143
  -1.7030954   1.3059437  -0.6594925   0.3698710  -0.0431079   0.5013082
   0.9616460  -0.2280697  -0.9202999  -0.0931774  -0.5475102   0.7731296
  -0.1300716  -0.0496147   0.0580575  -0.6802441  -0.9696284  -0.3242247
   1.2248294   0.0195659   0.4826040   0.1318772  -0.2986196  -0.0011123
  -1.2154718   0.0887854  -1.1158537  -0.4920705  -1.2283066   0.7230732
   0.0207389   0.0473583   0.1827304   1.3003824  -0.8246735  -0.9174793
   0.5356639   1.3366316  -1.0238782   0.3197406  -0.1128508  -0.1188129
   0.5504565  -0.8180936  -0.3335264   0.5600647   1.0763807  -0.0846390
  -0.2344840   0.1599349  -0.1822171   0.5217389   0.2478218  -0.1598224
  -0.4903319  -0.2812243   0.5026828   0.0996015  -0.3208859   0.1513595
  -0.2190420  -0.5420872   0.1338852   0.3006939   0.6086767  -1.2968240
  -0.2632664  -0.2166802  -0.0992940   0.3001044  -0.4677737  -0.1017790
  -0.6926341  -0.0612418  -0.3020178   0.0371187  -0.2468739  -0.1143607
   2.7335855   0.4973072  -0.3575198  -0.0684225   0.6572282  -1.4293348
  -0.4096576  -0.1360440  -0.0712971  -1.7078453   0.2680926   0.2424309
   0.4151459  -0.0415474  -0.4813334  -0.1326411  -0.1839924   0.2041685
  -0.1317549   0.3977191   0.4296959  -1.1604866   0.3414643   0.8375142
   0.0221369   0.1419412  -0.0993711  -0.3723942   0.8326324   0.6574393
  -1.3062384  -1.7689733  -1.0519130   0.1881502   0.0019237  -0.0673870
  -0.4894093  -0.3896526   0.9106567   0.6893344  -0.2676879   1.6365501
  -0.1547300  -0.0221710  -0.0101577  -0.5628945  -0.2845701  -1.2034657
  -0.4083919   0.3672920   0.5811853   0.0817600  -0.1773215  -0.1109502
   0.2340967   0.5896615   0.8577722   0.2915516   0.5652329   0.7764116
  -0.0776892   0.0622444  -0.0926244  -0.3468581  -0.0629974  -0.8391787
  -0.5804502  -2.0002237  -0.2988260   0.2569716   0.0446534   0.3395095
   0.1026907  -1.3785008   0.5654021  -0.6884524  -0.1556242   0.0543563
  -0.2156940  -0.2175063   0.1495315   0.0942454  -0.7430403   0.3312338
  -0.5970010   0.7892616  -0.3862490   0.0559368   0.0231526  -0.1349541
   0.9061807  -0.2296569   1.3875707   1.6610445  -0.3714195   0.8520200
  -0.1057704  -0.0393548   0.0895636  -1.7876436  -0.1209337  -0.0195313
  -0.4499102  -0.1381566  -0.0455515   0.1588083   0.1707777  -0.2000346
   1.2718415   0.0194137  -0.3742844  -0.4687960  -0.0387534  -0.3585325
   0.0600597   0.1764303  -0.0105668  -0.3243716  -0.4563976   0.7837542
  -0.8318925  -0.2054009   0.8816200   0.4046933   0.1268877   0.2288845
  -2.3019813  -1.2790874   2.1393989  -0.7422624   0.0349586   0.6266826
  -0.1691043  -0.1980928   0.0212488   1.2104304   0.4309587  -0.1326271
  -0.5366884   0.5934493  -0.3516597  -0.2093906  -0.0308791  -0.0491430
  -0.2780464  -0.0795064   0.5257282  -0.7711883   0.2330185   0.0288911
  -0.0981125   0.1543589   0.2513542   1.0869198  -0.3359893   0.5205495
  -0.0223363  -0.3388781   0.3891197  -0.0222002   0.0777136  -0.2689806
   0.3043075   0.0588310   1.2413130  -0.4992322   0.5298325   0.0569614
  -0.2337141  -0.0564247  -0.2931979   0.2726325  -0.1841873  -0.0602334
   0.1333119  -0.0160065   0.8133270   0.1923057  -0.0576580   0.1400953
   0.1232768   1.1633245   0.1534555  -0.4735789   0.8218267   0.3122343
   0.1000455   0.1602528  -0.1655953   0.6371911  -0.0992356   1.0972970
  -0.0494402  -1.2061090   0.3444171  -0.1838640   0.1796493   0.0456585
  -1.3402143   0.8650926  -0.7942847  -0.8287351   0.0650903  -0.9420792
  -0.0649948  -0.0612852  -0.1269564   0.6607638  -0.1494896   0.1711464
   0.2527764   0.1636587  -0.3058310   0.0991046  -0.4063053   0.2937044
   0.0809744   0.4173872  -0.1688329  -0.6972784   1.0917829   0.1086944
   0.1835077   0.1853992  -0.1113192  -0.0887233   1.1360551  -0.4320958
  -0.2016630  -0.1459640   1.1076189  -0.0357647  -0.1536916  -0.0614161
  -1.4497761  -1.2745020  -0.1025091  -1.1907265  -0.3895917  -0.5916965
  -0.3038541   0.1119467   0.0256879  -0.8339743  -0.2714953  -0.1701746
   1.1063926  -0.8440344   0.9260238  -0.1692589  -0.2086715  -0.1753979
  -0.3173420  -0.1011525   0.7584090  -0.3668197  -0.2075492  -0.0025338
  -0.2833372  -0.0862735  -0.0397199   0.1093274  -0.4918586   0.3747420
   0.2188525  -0.3357113  -0.7305635  -0.1391783  -0.1765019  -0.1485705
  -0.4102552   1.7732530  -0.4550204   0.9099393  -1.8773654  -1.6980959
  -0.2544784  -0.1215244   0.0538125  -0.7440772  -0.1609450  -1.6253088
  -0.2673706  -1.5247979   0.7359794   0.1645958  -0.1026550  -0.3027268
  -0.2362275  -0.0139221   0.1290738   0.0970877   0.3849488  -1.6534049
  -0.2899652  -0.0645073   0.0177959   0.4603712   0.8575464   0.5919091
  -0.2974375   0.9201555   1.5104128   0.1644806   0.2042914  -0.3141326
   0.7125527   0.7713904  -0.2560926   0.5079420  -2.4719720  -0.2357032
   0.0245273  -0.0760623  -0.0872887  -0.1482369   0.9226379  -0.0388691
   1.0543925  -0.7025600   0.2471017  -0.0796809  -0.3821287   0.0841357
  -0.4897929  -0.3732499   0.2266677  -0.1561685  -0.4260919  -0.0396214
   0.1737473  -0.2905071   0.1207805  -0.7059256   0.5128182   0.0840646
   0.7103311   1.0674188   0.4676520   0.0111569  -0.2268884   0.0430042
  -0.2835748  -0.3887976  -0.4115690   0.7731734  -0.0458911  -0.2601958
   0.2255650  -0.0133911  -0.2934266   0.2611136   0.0445486   0.2607806
   0.3095057  -0.3546443  -0.2927141  -0.0566874  -0.1042030  -0.1746963
  -0.1576031  -0.9382116   0.5084486  -0.1790461   0.3825576  -0.1218151
   0.1365408  -0.4571493   0.0974388   0.5458701   0.8040766   0.4424418
  -0.0518090   0.0129126  -0.1297489  -0.1171153   0.2350111  -0.2740468
   0.2602110   0.2789572  -0.2838541  -0.5710102  -1.0561128   1.9905417
   0.2879421  -0.2296709  -0.1365758  -1.4062692   1.2889765  -0.2912487
   0.9281990  -0.8343753   0.4168789   0.2466695   0.0301962   0.0187813
  -0.8659352  -0.1002366   0.3549622  -0.0702898   0.5426956  -0.3682964
  -0.0554200   0.1439137  -0.0916168   0.9487089   0.0477573  -0.4185971
  -0.5763879  -0.3457885   1.1260147  -0.3268685  -0.0098725  -0.1592238
   0.5978073  -0.5869184  -1.1491493  -1.5141439  -0.7023068  -0.5926989
  -0.3128386  -0.1143654   0.0457313   0.4129636   1.1211849   0.5072549
   0.0286252   0.5442901  -0.1266417  -0.2271694  -0.0135342  -0.0141646
  -0.7695593   0.8414105   0.2453426  -0.4714969   0.6470447  -0.3760923
  -0.0754435   0.2645874   0.0256309  -0.1752352  -1.1512978  -1.2790268
  -1.5515478  -0.2024914  -1.1795079  -0.0134159  -0.0021818   0.2501491
   0.1812221   0.7066489  -0.4489842  -0.3254328   0.3166047   1.5317727
  -0.1366269  -0.4656997  -0.0975484  -0.4654334  -1.1366290   0.5634291
   0.8369303   0.1058668  -0.0746441   0.0203349   0.4323401  -0.2222665
   1.1254978   0.6785646  -0.1392396  -0.1064426  -0.6005220   0.8670887
  -0.0529836  -0.2879959  -0.0847769   1.1687230   0.9937424  -0.0559720
  -0.1445592  -0.2995370  -0.6369537   0.0338340   0.1315756  -0.1722233
  -0.0220414  -0.0499257   0.3542059   0.4129810   0.7123599  -1.1616930
   0.0174855  -0.0994662  -0.0246476  -0.3144326   1.6957219   0.2306483
   0.1197456   0.1192983   0.6583774   0.2053213  -0.0472024   0.1808179
   1.2605886   0.3917716   0.3797089  -0.4501076   1.6258365  -0.1178166
   0.0423178  -0.3174498  -0.0907780   1.6926207   1.2032696   0.0533497
  -0.4389146  -0.2179762  -0.8797375  -0.0974325  -0.2546627  -0.1542592
   0.0934248   0.8707879  -0.2016485   0.1293622  -0.9722131   0.3626268
   0.4589533  -0.0576700   0.0179890   0.3314108  -0.0576232   1.4476698
   0.0229810   0.9492635  -0.7266825   0.1151003  -0.2329739  -0.0169640
  -1.2667152   0.5058047  -0.8192733   0.1342571  -0.6693926   0.1503178
   0.1441798  -0.0068256   0.3959080  -0.3986719   0.1825206  -0.8527729
  -0.0963205   0.0674490   0.2211273  -0.2259915   0.1711898   0.3393086
   0.8536120  -0.4388972   0.9843690  -0.4884988  -0.1319973   0.6651606
  -0.0517043  -0.4346522  -0.2903192   0.2470978  -0.4167913   0.0491061
   0.0395087   1.3013862   0.9961121   0.1819204   0.0873776  -0.2387605
   0.9916471   0.1264912   0.4924398   0.9471862   0.4933852   0.2208706
  -0.1161429   0.2359754  -0.0254020  -0.4761566   0.2067027  -0.4751686
  -0.3576466   0.6681673   0.7665659   0.0857079  -0.0122613  -0.0115459
   0.2114938  -0.2791172  -0.0101694   0.1300363  -0.6807746   0.5604185
  -0.0297187  -0.0000644  -0.3115416  -0.8502712  -0.3491312   1.2423224
  -0.2677859  -1.0038375  -0.3969810   0.3106839   0.4894551   0.0436234
  -0.2926764  -0.2521995  -0.2373165   0.1590527   0.2649999   0.5312113
   0.1144811   0.2608194   0.0924255   0.3672298  -0.6115259   0.6881045
   0.2896648  -0.8332672   0.0114496  -0.0214379   0.0265222   0.2229049
   0.4552882   0.1870685   0.4047910  -0.0417949  -0.1747678   0.8604994
   0.0665630   0.1073441  -0.0935691   0.3778711  -0.6084665  -1.3974692
  -1.2260357   1.6933274   0.9299448   0.0062216   0.0902829  -0.0695570
  -0.9847293   0.5522175  -0.7394772   0.3600311  -1.2878951   0.4676961
   0.0551377  -0.2377101   0.4751065   0.3393169  -0.3222834   1.1991652
  -0.9859739   1.1884704  -0.2531691  -0.1425194   0.0578104  -0.1784772
  -0.5036159  -0.3485156   0.8241289  -0.4514961  -0.7002720  -0.8993576
   0.0881216  -0.2728695   0.0570686  -1.2675461   0.3543674   0.4772570
  -0.9072277  -0.2348793   0.0564767   0.0196035  -0.0816878  -0.0411980
   1.7060847  -0.7844112  -0.8454249  -0.9706420   0.2651008  -0.3644449
  -0.2545993  -0.0084885  -0.2815210   0.3337259   0.2755918  -1.1185538
   0.2918872   0.0818700   0.2844341   0.0445941  -0.0331215   0.0897679
  -0.8224475   0.0534217  -0.0179269  -0.6030588   0.1884043   0.0967567
   0.0483858  -0.2519898   0.0260551   0.3752764  -0.3551962   0.1760900
  -0.8324686  -0.2189534  -0.6815690   0.0213237   0.1637745   0.0836364
   0.2708510   1.2769641  -0.1011455  -0.1484478   0.3049355  -0.2806031
   0.5010837  -0.3507059   0.0174981  -0.2839633  -1.4557934   0.9636787
  -0.0550528  -2.1342342   0.9515229   0.2783460   0.0768310   0.2329247
  -0.1106966   0.1632772  -0.3972121   2.0042842   0.3288153  -0.0128109
   0.0245120  -0.3251567   0.0149058  -0.2417453   1.0983314   1.1749366
  -0.8599126   0.2878735   2.4879274   0.0778310  -0.1460096  -0.1048721
  -0.1279161   0.1599555   0.1344987  -0.7106821   0.2104121  -0.6350050
   0.0658584   0.2513562  -0.2710547  -0.6250178  -1.4115628  -0.4301634
  -0.1751035  -0.5119726  -1.0071329  -0.2835449  -0.3044359   0.1256081
  -0.4399349  -0.0241368  -0.7142575  -0.8361825   0.5183272  -0.1689925
  -0.1790873  -0.2839635  -0.0007156   0.0380873   0.0568629  -0.5194727
   0.5314329  -0.5285722   1.1760410   0.2033796   0.2833108   0.1281584
  -1.9721897   0.4893660   1.2062947  -0.2950709  -0.8670429  -0.3583706
   0.0952460  -0.1412447   0.4381760  -0.2127167  -0.0089251  -0.9256664
   0.5924942  -0.9140270  -1.4676060  -0.0188063  -0.1473726   0.1027353
   0.0385311   0.4281138  -0.0925707   0.2695709  -0.7475775  -0.9525749
   0.4962191   0.0467394  -0.1553643  -1.0178313  -0.5435442   0.5652663
  -0.9697306  -0.5467484   0.0695103  -0.0257501  -0.1106097  -0.3770413
  -0.2005105  -0.2300254   0.0177334   0.6837289   1.1795412  -1.2616748
  -0.3206088   0.0765106   0.3973966  -0.4844492  -0.5556047   0.1511715
   0.4559453  -0.9241400   0.6624752   0.0916422   0.0794512  -0.0651326
  -0.5345419   0.1112497   0.3593893  -0.5360325   0.1992627   0.2640149
  -0.1145011   0.0542270  -0.1153323   0.4548119   0.3568462   0.3902625
   2.1479336  -0.3441431   1.1346910   0.1052148   0.2994461  -0.0663009
   0.9286359   0.1507773  -0.7454018  -0.0613380   0.1026181  -0.3585563
  -0.1609357  -0.2667940  -0.4734646  -0.2066281   2.2611891  -0.3768515
  -0.0241372  -0.0976880   0.6841216  -0.0490744  -0.2472939   0.0004101
   1.1422778  -1.9589565  -0.1230125   0.4324616  -0.3538671   0.6591056
   0.3285379   0.0829746   0.1509393  -1.7882247   0.1452848   0.4740026
   0.2007778   0.4439933  -0.6283354   0.1954249  -0.2288033  -0.1436384
  -1.1455910  -0.0526739   0.3700521   0.9789091   0.9832533  -1.5027190
  -0.0187524  -0.0966894  -0.1292934  -0.2125588  -0.3014439   0.8730464
   0.5576634  -0.6770276   0.3459516  -0.0102235  -0.0453638   0.2309439
  -0.0187299   0.6970142  -0.1242602  -1.0973216   0.5512900   0.1377322
  -0.2471659   0.0104337  -0.1067431   1.0636216   1.8087853  -0.3145850
  -0.9721164   1.0311499  -0.3995680   0.1024386   0.0057150   0.0644785
   1.2321082   0.2078425  -0.3037441   0.7813405  -0.5470823   1.1110434
   0.0200028  -0.3904713  -0.0476930   0.0427267   0.1290462  -0.8031286
  -1.4136500  -0.0955682   0.7318859   0.0006142   0.0821075  -0.1207677
  -0.3455483  -0.8907755  -0.1183864   0.3930860  -0.1269151  -0.4580286
  -0.1183371   0.1650462  -0.1704294   0.3223208   0.5139492   0.1582669
   0.1543880   0.7523948   0.6642130   0.2068637  -0.0498423  -0.1664278
  -0.5374077  -1.0973621  -0.4755548   0.3878172   0.2037447  -0.8645853
  -0.1661133  -0.0587619  -0.0455298   0.8550555  -1.0279247  -0.2638239
   0.0618949  -0.9090982  -0.8981353  -0.0098868  -0.5327665   0.0176585
   0.1760082  -0.3911016  -0.0532840   0.5699241  -0.2756434   0.9503785
  -0.1567812   0.0487021   0.0521900   0.4013859  -0.5604566   0.7685535
  -0.5580861  -0.9116440  -0.4407849  -0.0002101   0.1918462   0.1381343
  -0.2590368  -0.2866959  -0.9270966   1.1471631   0.6527480   0.4190445
   0.1126049  -0.3940699   0.3791973  -1.3183261   0.6808935   0.6243719
  -1.6671575   0.8944175   1.3977792  -0.0267276  -0.1636840  -0.1002161
   0.5793946  -1.1903003   0.7038021   0.7358555  -1.7420146  -0.8700555
   0.0352007   0.0215678  -0.0889664  -1.3516057  -0.3146605  -0.0789518
   0.4728467   0.7704993   1.6899266  -0.4542383   0.2532408  -0.3294212
   0.5218829  -0.1875531   1.1077920  -0.2506407  -0.2538802   1.9725935
   0.3825175  -0.2233338  -0.1090547  -0.6765812   0.1661010   0.0666118
  -0.3445914  -0.4135307  -1.5511588  -0.0626067  -0.2812514  -0.2089573
  -0.0082303  -0.7128244  -0.4587196   0.2548667   0.2651134   0.2249289
  -0.2250555   0.0408325   0.0030997   1.1002251   0.8525019  -0.9172457
   0.5206561  -0.2704712   0.2619052  -0.4203695   0.1551674  -0.0409572
  -0.2287477   1.4827593   0.8268680   0.2271816  -0.4236741  -1.0157090
  -0.1237341   0.3329526   0.4142020  -0.9197612  -0.9924125   0.4422019
   0.6478183  -0.8683342  -0.4830949  -0.2437780   0.1336194  -0.1218959
   0.2791263   0.8633653  -0.0553704  -0.4079863   0.0612086  -0.9713173
  -0.2076230  -0.1441924  -0.3769912   0.6913766  -0.2037251   2.1185121
  -0.1651712  -0.0379985  -0.5422928   0.3201417   0.2280962  -0.0589374
  -0.1774064  -0.1562174  -0.8800175  -0.2236609   0.2940874   0.2280339
   0.0233085  -0.0033319   0.0037454  -1.2679515  -1.8183287  -0.7584492
  -0.6447237   0.5497672   0.4549240   0.0705286   0.2097022  -0.0740810
  -0.4188679   1.1591966   0.7480817  -0.7448613   0.8666653  -0.1318915
   0.1573573  -0.0282331  -0.0322694  -0.8363415  -0.4662701  -1.1665733
  -0.0793141   1.6245995  -0.1531086   0.0831974   0.2269175   0.0872316
   0.4829481  -0.4427418  -0.1317334  -0.3929333  -0.2269129   0.3196425
  -0.3088730  -0.2643871  -0.1112819   0.0221073   0.7433457   0.9373013
  -0.0516325  -0.0249574  -0.5964787   0.1063601  -0.1351706   0.0999898
  -1.4882772  -1.4130210   0.3994064  -0.3611305   0.6554251   0.4126891
   0.2876243   0.0185111  -0.5369947  -0.4099379  -0.4773315   1.0156006
  -0.4567450   0.3263657  -0.4001537   0.1898322  -0.0681371  -0.1558786
  -0.9194556   1.0868011   0.3298372   0.2695331  -1.6365983  -0.7351703
   0.2354513  -0.0747391  -0.2307799  -1.5557510   0.2029276  -0.3782948
   0.8492978   1.3835687   0.9364948  -0.2917780   0.0174450   0.0170940
   0.3262786  -1.4494601  -0.0804429   0.0415333   0.0533252   0.7928565
   0.0166438  -0.1847561  -0.0969022   0.0631894  -0.2698557  -1.3778082
   0.0367625   0.3256049   0.8297694  -0.0651098   0.0190531  -0.0802163
   0.8697801  -0.3841252  -0.0089224   1.2336914   0.5337205   0.4492982
   0.1445252  -0.1544938   0.2358075  -0.3451128  -1.0510344   0.0344132
  -0.1349684   0.1331646   0.3951548   0.2676856  -0.0697372  -0.1290365
  -1.3328961   0.7293270  -0.4264595   0.3222298  -0.0806487  -0.0204714
   0.1308797  -0.2128841  -0.2625504  -1.0709214   1.3535292  -0.5549383
  -1.0261233   0.4980747  -1.8008019  -0.1718847   0.0456188  -0.2790735
  -0.4280842   1.6661731   0.0637590  -1.8325796  -0.9640050  -0.0801085
  -0.1924091  -0.0192325   0.0002602   0.9595160  -0.2700748  -0.5376281
  -0.7999714   0.1138091  -1.0741858   0.3106202   0.2285359  -0.5216297
   1.4595407  -0.1171146  -0.7098936   0.2435153  -0.6080950   1.8854761
  -0.0885704  -0.0163486  -0.0088448   0.6385906   0.6330177  -0.5107893
   0.3176632   0.3937810   0.9079971   0.1487936   0.3107436   0.0401534
   0.8121078   0.2407837  -0.1697773   0.0373040  -0.1464698  -0.3407164
   0.1691786  -0.1188399  -0.1581357  -0.0865636   0.0929391  -0.4874508
   0.6575989   0.8732803  -0.3478994  -0.1894750   0.1749908  -0.1465117
   0.0048207  -1.2332930  -0.6191949   1.1308884  -0.3402221  -0.6410325
   0.0199986   0.2592404   0.0397123  -0.5081117   0.3123690   0.0148838
   0.5232204  -0.3223440  -0.0806950  -0.1271514   0.2458725   0.2046449
  -1.3940815   0.4260489   0.0308228  -0.1960418  -0.1637107  -0.4562254
   0.1176708   0.1061289  -0.0325058   0.7572700  -0.6989510  -0.9198716
  -1.6092735  -0.1635364   1.0115815  -0.2566100  -0.1095604  -0.2109745
   0.0420471  -0.5344902   0.2475195  -1.2047453  -2.0783579   0.4096970
  -0.3277726   0.0804736  -0.0065508  -0.3877159   0.6444514   0.0147586
  -1.5671203  -0.0909697  -0.5431710  -0.0437129   0.1347737  -0.1276753
  -0.0206260  -0.0805892  -0.1891162  -0.1332620   1.1700247  -0.0649527
   0.0418490  -0.0202328   0.1242988   0.5781631  -0.9986532  -0.4940787
  -0.1910109   2.5627507  -0.2538294   0.0958760  -0.1088340   0.2493866
  -0.0713429   0.1649873   0.5175989   1.1503120  -0.3644074  -0.4698490
  -0.1465022   0.2875346   0.1161104  -0.0268013  -0.3984671   1.7435337
  -1.1662117   0.7519869   0.2708804   0.0794768   0.2108388   0.4672793
  -0.2911493   0.0448930  -1.2911157   0.2901921  -0.5759333  -0.3043736
   0.1983166   0.1596481  -0.4810378   1.1409095   0.2516489   0.1691298
   0.2447253  -0.2682493   1.1358492   0.0837838   0.1872831   0.1852334
   1.1968995   0.1440125  -0.3347404   0.5263314   0.2570995  -0.2400069
  -0.4509704   0.4004226  -0.1743217   0.6657769   0.3443190  -0.8794242
  -0.4151279   1.1899986  -1.0734383   0.0519225   0.1120338  -0.1410637
   0.0155490  -0.0055155  -0.0907635  -0.3389835  -0.7253465  -1.1605682
  -0.0560682   0.1276963   0.1294751   0.0768840  -0.7175260   1.0021132
  -0.4492883   0.7775463   0.6545594  -0.0314993   0.1556136   0.0355211
  -0.8181682   0.2700750  -0.1088369  -0.1193270   0.5234827  -1.5439663
   0.0462427   0.2461938   0.2761997  -1.3750306  -0.0241879   0.7814698
  -0.0392527  -0.3383224   1.6090767  -0.2769404  -0.1669950  -0.2014217
  -0.0610103  -0.2320558   0.2642940   0.1551920  -0.4676040  -0.7331862
  -0.0328021   0.1051684  -0.3017551  -0.9603021  -1.5600277   1.1344887
   0.9314755   1.3644834   0.4909098  -0.0366600   0.2399344   0.1243867
  -1.2516491  -0.3611579   0.0968035  -0.6237562   0.0498108  -0.0566703
  -0.1793361   0.1374109  -0.1036548   1.3135008  -0.1209311   0.0595310
   0.3133573  -0.3762103  -0.0556573  -0.1816743  -0.1419346   0.0146139
  -0.1428585  -0.2571816   0.3052551   1.1916399   0.3437596   0.0925555
   0.0434432   0.3659086  -0.2700200  -1.3206709  -0.0463460   1.4645467
  -0.4079939   0.3836814   0.7026749  -0.2480442   0.2240243   0.0611753
  -0.4393573  -0.0525160   0.9371314   0.3032319   0.3014729   1.4916402
   0.3988207  -0.1115696  -0.0625116  -0.0202858   0.8968484   0.9266958
  -1.5982786   1.2209629  -0.1271264  -0.0007779   0.1033609   0.1624170
  -0.3901799  -0.3654579  -0.8081577  -0.5835307   0.2089750   0.0166005
   0.0154661  -0.1670192   0.2301935   0.9046453   0.0474706  -0.9363951
   0.9577025   0.6217939   1.2665477  -0.1904796  -0.2418035  -0.1433151
   0.8024077  -0.0712754  -1.1239056  -0.0125466  -0.8419365   0.2861960
   0.0175883   0.3830004  -0.2425139  -0.5276783  -0.0838205   0.7372613
  -0.1938009  -0.1716408  -0.5423062   0.1338732  -0.0189947   0.1076110
  -0.4076290   0.8718933  -0.0725246   0.1650382  -0.2078267  -0.3316477
   0.1759821   0.2699086  -0.0489090   0.0344796  -0.6398251  -0.1686402
  -0.2709987   0.5445835   1.2861990  -0.2834962   0.0883277  -0.0915698
  -1.0126922  -0.4607947   0.6428320  -0.1567780  -0.2239203   0.5087180
  -0.1342527   0.1341336  -0.0606820   1.0086461  -0.1808189   0.9429884
   0.6723120   0.5710598   0.6507194   0.1216572  -0.3421740   0.0316649
   0.3182814  -0.0951918   0.2221306   0.0035614   0.5080871   0.2767013
  -0.1215574   0.2324040  -0.0737368   1.3176001  -0.8503289   1.1980261
   0.8358650   0.9743750   0.5464146  -0.2298222  -0.1331963  -0.2843153
   1.0890660  -0.9404987  -0.3409564   0.0817936   0.1350660   0.2693929
   0.0725682   0.3337909   0.1106524   0.4964654  -0.2439224   0.8634444
  -0.5457488   0.3796814   0.2322851   0.2510588  -0.2924769   0.0571095
  -1.3151736  -1.1172075  -0.0804519  -0.9247200   1.6019808   0.0377661
   0.0472563  -0.2388077   0.2967795   0.6846821   1.0409989  -0.7377470
  -0.6327170  -0.6379858   0.9683656   0.1363816  -0.4022500  -0.2000392
  -0.7640380   0.2657224  -0.2407009   0.7945536  -0.3592470   0.2054343
  -0.0513605  -0.3180686   0.2700829   0.0908040  -0.0437376  -0.5367113
  -0.0408378   0.2233684   0.6958162   0.0651733   0.1739058   0.0947733
  -1.1263257   0.2819349   0.7134010  -0.1925584  -0.0911952  -1.0356526
   0.2353368   0.0650500  -0.0639186   0.0790107   0.1182705   0.6338409
  -0.2375174  -0.1384774   0.4605134  -0.0322408   0.0721789  -0.2271898
   0.4994751   0.2908694  -0.9628395  -1.4524717   1.2426298   0.0896638
   0.0868178  -0.0406660  -0.0632304  -0.3137459  -0.3251357   0.5968298
  -1.1434400  -1.3579862   0.1482591   0.1152843   0.2221878  -0.0820614
   0.0528791  -0.3209390   1.2207610   0.7343186   0.7677717  -0.6484199
   0.0151074  -0.2054495  -0.0346422  -0.1360776  -0.6177583  -0.3175667
  -0.8390036  -0.2912707  -0.0510667   0.0182834  -0.2916930  -0.2402011
   1.0012362  -0.1239913  -0.0112836   0.3826754  -0.8237305  -0.3744212
  -0.3321575   0.1545257   0.1018978  -0.6747398  -0.4950905   0.3440690
  -0.4915097   0.8905517  -0.4798415  -0.0016296  -0.0448531   0.2647250
  -0.2739642   1.4152069   1.4762486   0.4258612  -0.0983975   0.4693395
   0.1093060  -0.0652539  -0.0345783  -0.8559342  -0.4795844  -0.7774781
  -0.2555905   1.5591862  -0.3193557  -0.0552282   0.0326328  -0.1554791
  -0.0370991   0.7236767   1.7692375  -0.8493136  -0.4355520  -1.7948427
   0.0123565   0.0773342  -0.1641447  -1.5665406  -0.0402733  -1.4429543
   0.2920817  -1.3485477  -0.4720014  -0.0100335  -0.0519390  -0.1134917
  -1.0798471   1.4922948   1.6961727   0.6159951  -0.3608733  -0.2087932
  -0.1125223   0.2023541   0.0389398   1.2317657   0.5418446  -1.1078586
   1.3014686   0.2825770  -0.0146005   0.0638402  -0.0429029  -0.0514940
  -0.6807286   0.3926094   0.1640567   0.9038031  -0.1464141   0.6369154
  -0.1306921   0.0114891  -0.0218093  -1.6445346   0.3029693   0.1864305
  -0.3047360  -0.7074751  -0.8181018  -0.1083263   0.1534789  -0.0903986
   0.8432464  -0.7608881   0.2914272   0.6639114  -0.5932376  -0.3611887
  -0.2751896  -0.0784751  -0.1103368  -1.6313512  -0.8578630   0.6694467
  -0.2234946   0.1855557   0.5673750  -0.0263366  -0.1380233   0.0349939
   0.5143927  -0.0399476  -0.1013373  -0.4911025   0.0828117  -0.4115916
  -0.1449732  -0.1942724  -0.1534852  -0.4132280  -0.0265732   1.1910057
   0.2994896  -0.3577352  -0.9608743  -0.1321498  -0.0693357  -0.2300644
   2.5041953   0.7743236  -0.6736450  -1.1080033  -0.0199335  -1.0636832
  -0.0420978   0.1612461  -0.0474562  -0.0286641  -1.6376588  -0.4549373
  -1.1035418  -0.4428878  -0.2696013   0.0841309   0.1705554   0.3327234
   0.8971927  -0.3572058   0.0251934  -1.0000731  -0.5814534   0.3929086
  -0.3233172  -0.3233442   0.0035326   1.1931100  -0.2959612  -1.5170620
  -0.2922288   1.2171473   0.2733847   0.1420015   0.1441811  -0.0458654
   0.4670110   1.5763610   0.2999715   0.5968250   0.0060813  -0.2892054
   0.2526305   0.0381347   0.2599937  -1.8449311  -0.4752568  -0.1721810
   0.4528772  -0.0049820   0.0145557  -0.2711541  -0.2796601  -0.3370989
   0.1435757   0.0146711  -1.2118689  -2.5018750   0.2909202  -0.4367749
   0.0479181   0.0661670   0.0448300  -1.5151273  -0.0156528  -0.1523118
   0.4081250  -0.6034995  -0.9163580  -0.0488691  -0.2164941   0.4178943
   0.3305842  -0.5424900   0.5437402   0.1679788   0.2807179  -1.5797168
   0.1952462  -0.1441956  -0.1149664   0.2346930  -0.1712261  -1.1679890
   0.5866216   0.4363127  -0.2241367  -0.3980428   0.1068673   0.0350688
  -0.4725717  -1.4710314   0.8874892   0.0494715   0.5346424  -0.8774400
  -0.0562951   0.0806806   0.1486425   0.1747303  -0.0252267  -0.1352945
  -0.1577711   0.4772036  -0.9112700   0.0247805   0.0099943   0.2292378
   0.7797352  -0.7701145   0.0414736   0.3944721  -0.1094299   0.3825324
   0.1238237   0.1578035   0.1007132  -1.0603865   0.2790012   0.0350593
   1.7824398  -0.3048514  -0.0846101  -0.0986584  -0.0866003  -0.0781557
  -0.5392227   0.6087878  -1.3454522   0.2636402   0.3796250   1.6117916
  -0.0049207   0.1323142   0.0791870   0.7631603  -1.7543158   0.4958882
   0.9426632   0.6594512  -0.2546990  -0.1375515   0.0001117   0.1669983
  -1.5136175   0.3407591   0.1867046  -1.2420641  -1.2136101  -0.2098049
  -0.0511559  -0.1452181  -0.6678524   1.0303957  -0.1036464  -0.4876674
   0.1242689   0.5062950  -0.9626019  -0.1404263   0.1684163  -0.3471279
  -0.4109536  -1.2746373  -0.3184117   0.3449491   0.5032256  -0.6995956
  -0.0625260   0.1116539  -0.0254037  -0.1770808   1.3059901   0.7291639
  -1.9437490  -0.1094990   0.5361945  -0.0571144   0.3334990   0.2740797
   0.4377816  -0.0819688   0.6335838  -1.1459167  -0.2577937  -1.0675264
   0.1263918   0.2419916  -0.5915937   0.2592031  -0.4876389   0.6921293
  -0.4916694   0.1204731  -0.2609794   0.0279676  -0.2215411   0.4117999
  -1.2034357  -0.8817236  -0.4378073   1.2207905  -0.6630310  -0.9067919
  -0.5267288  -0.0793278  -0.2388199   1.7156804  -0.3627140  -0.0850499
   0.4161541   0.8437983  -0.1854734   0.2530457  -0.2660035   0.1045357
   1.0822517   0.2777799   0.6299557  -0.7793941  -0.0265889  -1.0965003
  -0.1904078   0.2610352   0.1237182  -0.0362846   0.9033195   0.6579696
   0.5555028   0.7149939   0.1023711   0.1364518   0.4063791   0.1989458
   0.0869005   0.7054327   0.0443417   0.6083251   1.2757206  -0.6586341
   0.1958263   0.0795170  -0.0085288   1.1383704   1.1674802   1.9272119
   0.7719918  -1.0850373   0.6915768   0.0685248   0.1046504   0.0266720
  -0.6894654  -0.3795086   0.0537819  -0.2825569   0.4261391   1.1475605
   0.0786172   0.2911572   0.1066843  -0.1420642   0.2974379   0.0332559
   0.0800584  -0.3099568   0.3698495   0.3366015  -0.2302171  -0.0803876
  -0.0143413   0.2131025  -0.5352502   0.8111857  -0.3187242  -0.3677830
  -0.1012346  -0.1010921  -0.0962068   1.2230977  -0.5497455   0.3671010
   0.1123825   0.1564950   0.0001690  -0.1670778  -0.1175682  -0.0282964
  -0.6381265   0.4867855   0.5548199  -1.0663436   0.7091749  -1.0012052
  -0.3497364   0.3286324   0.1513802   0.7385535  -0.5552849   0.2692591
   0.5425700   0.8146850  -0.2866199  -0.1209286  -0.1965834  -0.0600397
   0.0342473   1.3198073   0.1532292   1.4301659  -0.9984887   0.2450236
  -0.0201409  -0.5485093   0.0518179  -0.1159817   0.3162974   0.2910082
  -1.7521146  -1.4287985  -1.1978087   0.1982660   0.0599220  -0.2634719
  -1.5625751   0.4105808  -1.1317916  -0.4282349   0.9822651  -1.8208682
  -0.0941640   0.0208009  -0.0463702  -0.2915412  -0.6942568  -0.2954332
   0.1654017  -0.1452410   0.8354674  -0.0208095  -0.0282985  -0.2012689
   0.6428352   0.4722716   1.4318868  -0.4493222   0.5318915  -0.7982082
  -0.0633910  -0.2244059  -0.1733115   0.7966947  -0.8249011   0.2172170
  -0.2107488   0.9388621   0.2877516  -0.0187065  -0.1986670   0.2990410
   0.1357762   0.0609985   0.3425566  -0.1473947  -1.5192336   0.3211809
  -0.2075431   0.1925587   0.1029568  -0.4092399  -0.5720369   0.1328851
  -0.7323114   0.1302050   0.1591563  -0.0925777   0.0938841   0.1195510
  -0.3265881   0.4558473  -0.4824335   0.1665632   0.6905877   0.4576970
   0.1409773  -0.0154953  -0.3561679  -0.0736162  -1.2475302  -0.7607998
  -1.2351032   0.1383499   0.7104857  -0.2264108  -0.1051964   0.0160100
  -0.4667109  -0.6679387   0.1065436  -0.3190730   0.4813394   0.0576850
  -0.1383280   0.3384511   0.0832638  -0.0247373  -0.6731834   0.8993228
  -1.3669831  -0.1187068  -0.7150858  -0.2066407   0.2080716   0.1483014
   1.6966502  -0.2539942  -0.3415463  -0.1536758   0.3984395   0.4065079
  -0.0665877   0.3870872   0.2095226  -0.2132820   0.6341966   0.2495946
  -0.5049238  -0.6004011   0.5269284  -0.1563079   0.5014162  -0.0766535
  -0.6642753   0.2504544   1.3236583  -0.7070575  -0.4471741   1.3469521
  -0.2835645  -0.1438452  -0.1046806  -0.5341059   0.1442630   0.2367263
   0.4524536   1.2108886   0.3563612  -0.0257330   0.0043314   0.2864921
   0.3870722   1.2804296  -0.0977748   1.2153237  -0.2870300  -0.3206287
   0.2397573  -0.0378007  -0.1119363   0.8348525   1.1360921   1.4065849
   1.0013654  -0.6290449  -1.5934835  -0.1496940   0.1727652   0.0939640
   0.5603539  -2.2610877  -0.4642820  -0.4411805   0.0325789   0.5863949
   0.2056516  -0.1910579  -0.1007474  -0.0373693  -0.0065463   1.6709879
  -0.6339539  -0.3575825  -1.7172204   0.0648148   0.1678708   0.1754775
  -0.5953208  -0.4715275  -1.7996676   1.3994580   0.1635173   1.6957542
   0.0271242  -0.2615928   0.1430649  -0.4880321  -0.7399443  -1.7585705
  -1.4648919  -0.6754607  -1.7098161   0.0048094  -0.0097554  -0.0259079
   0.0639709   0.4778175   1.4915164   1.8147675  -0.8967175  -0.7218517
  -0.0122830   0.0206145  -0.0526049   0.3416967  -0.4961528   0.3019936
   0.8898936   1.0239002  -0.7019181   0.0797551   0.5271684   0.1551712
  -0.4820017  -0.8391479   0.2887121  -1.4723067   0.4320361  -1.3505243
   0.0157426   0.2129503  -0.2758248   0.0851702   0.4518282   1.2309724
   0.5851349   0.8794692   0.9733234   0.0810687   0.0148333  -0.0007071
  -0.8027508   1.0522493  -1.2460290  -1.1818609  -0.8024712   0.3018318
  -0.0908571   0.0072178   0.2250646   1.3252446  -0.1118345   0.6197832
  -0.3716081  -1.5814169  -0.0103038   0.1596262  -0.1775648  -0.3791184
   0.5656985   0.0459082  -0.8616698   0.1988689   1.3664158  -0.1918399
   0.2152987   0.0294694   0.0606146  -0.0768485   1.5163451   0.9785080
   0.3009318  -0.1501548   0.1188238   0.1400010  -0.3336673  -0.0314201
   1.7365330   0.5443515   0.0420966   0.3322461   1.3264995  -0.8991521
  -0.1642320  -0.2134244   0.2605003  -0.4985218  -0.9060028   0.2726899
  -0.4234470  -0.7810124   1.7529361   0.1049271   0.4633631  -0.0216160
  -0.0257755  -0.4288539   0.8299700   0.5763089   0.3821528   0.1746819
   0.2819829  -0.1604842  -0.1610476  -0.8005542   0.5973770   0.0356308
   1.4391648  -0.5948586  -0.1347204   0.1728242   0.0138461  -0.2047259
   0.0854256  -0.0356198   0.8337026  -0.2276649  -0.4862062   1.4124950
   0.0202048  -0.0614151  -0.0484870  -0.7458427  -0.0129538  -0.9439696
   0.3934567  -0.2754889  -0.5361990  -0.1918236   0.2750167  -0.1246068
   0.5552714   0.4263278   1.1401319  -0.1342372  -0.4663465   1.1147445
  -0.1343937  -0.0114732   0.0850351  -0.4444796   0.3281576   0.1117441
   0.3669984   0.8679559  -0.2960657   0.1896079   0.2403990   0.2465693
   0.7565790  -0.1345515   1.0861062  -0.3091161  -0.4361083  -1.3915918
   0.2507178  -0.1278541   0.1764528   0.2886555  -0.2196834  -0.0124651
  -0.8284018   0.1654983  -0.0786255  -0.0189700  -0.2618326  -0.2058868
  -0.0161021   0.2678422   0.6267510  -0.0936719  -0.3799609   0.9149320
  -0.1081321   0.1030786   0.0862664  -0.0435268   0.9815961  -1.5059922
  -1.2102806  -0.8330554   0.1802286  -0.0691203   0.0834506  -0.2468176
   0.7048752  -1.2110988  -0.7538135  -0.6316672  -0.5203157   0.2458007
  -0.1239480   0.1674989  -0.0378004  -0.9701277   0.6912533  -0.4768453
  -0.1058305   0.4538874   0.4775577  -0.1412275   0.0695950  -0.1262683
  -1.6749998   1.6204733  -0.3468905   0.7258822  -0.1395451   0.3810179
   0.0623842  -0.3022736  -0.0140087  -0.1638215   0.4112526  -0.8323666
  -0.3789665  -0.5466528  -0.4843828   0.1430678   0.2129837  -0.0713145
   1.0709714  -1.8380780   0.0037589  -0.1356622  -1.2381484  -0.7706956
   0.1718621   0.4596552   0.2690940  -0.4001598   0.0664768  -1.2857780
   1.0555191   1.3209306  -1.0584234   0.1775091   0.1760130  -0.1931909
  -0.2491067  -1.6155856   1.1913900   1.2221885   0.9405309  -0.5054623
   0.0366677  -0.0072439  -0.1819498  -0.1810263  -0.6346886   0.4783219
  -0.0406871  -0.6088197   0.2436801  -0.1327885   0.0066143  -0.0627300
   0.6980924   0.4578100  -0.0898811  -0.1573835   1.1054387  -1.5145028
  -0.0271852  -0.1826834  -0.2625086   1.2447702   0.3416714  -0.4697626
   0.1438914   0.9544563  -0.4986568  -0.0125377  -0.0319391   0.0334027
   0.3613296  -1.2146772  -0.5062535  -0.4942687   0.3500533  -1.4283876
   0.2152800  -0.0721657  -0.1643250  -0.3421317  -0.1504670  -0.5001391
   1.0714317  -0.4436626   0.0806641  -0.1542754   0.0693186  -0.2685386
   1.4389006  -0.9233684  -1.0792204   1.2732588  -0.0632758   0.2954481
   0.1287242  -0.1815519  -0.0238270  -0.2259149  -0.8908793  -0.5047391
   0.0264610   0.5101172  -0.4312130  -0.0045154   0.0250827  -0.2352961
   0.5198961  -0.7900536   0.2856466   0.4087261   0.3763562   0.0930908
   0.1870457  -0.1409350   0.0681329  -0.6829958   0.1880908   0.7087124
  -0.3065780   0.3818496  -0.7672945   0.1444529  -0.0141983  -0.1925156
  -1.1877919  -1.2945764   0.3454070  -0.6576750  -0.4502305  -0.5394865
  -0.2777342   0.2399733   0.0627436  -1.2388185  -1.2857288   0.6331889
   0.0140798   0.3553930  -0.4960336   0.0487011  -0.1881312  -0.3335498
   0.0222192  -0.2213524   1.0467460   0.4610624  -0.3878594  -0.1474101
  -0.2617097  -0.0779083  -0.4386738   0.6950713   0.3125946  -0.0617672
  -0.5219076   0.9032204  -0.9350124   0.0698462  -0.0968180   0.2019897
  -0.2227782  -1.0189116  -0.2606716   1.6206515   0.9796797  -0.0972816
  -0.1393921  -0.2918818  -0.1492352   0.4899225  -0.5386538   0.6911224
  -0.9590949   0.1827711  -1.2919615   0.1354951   0.2553351   0.0317574
  -0.0985095  -0.5224546   0.8517929  -0.6269896   0.1186068   0.3075047
   0.0914564  -0.1183562  -0.0543846  -0.4171260   0.0934727   0.1694159
  -0.8221222  -0.2537512   0.1340178   0.1613817  -0.3047127  -0.0689779
  -0.6295409  -1.0196109  -0.5560937  -0.1280333  -1.5898706  -0.2027263
   0.3557504  -0.3510594  -0.2625896   1.0790934  -1.1595489  -0.2023629
   0.4145627   0.6408202  -0.6064067   0.0154944   0.1301754   0.0125369
   0.5837148   0.0768128  -0.1802865   0.9166675   0.7277351  -0.8385790
   0.1086266  -0.3661870   0.1376072   0.6864749   0.2397027   0.3721664
  -0.8947915  -0.4266865  -0.7066567  -0.3522854   0.2769727  -0.1258193
  -0.8755311   0.0464952  -1.1561383  -0.5616411   0.8466980   0.0574940
  -0.0877228  -0.1425309   0.0796074  -0.0340336   1.2671291   0.3421578
  -0.0581771  -1.1567003  -0.6616783   0.1251003   0.3014045  -0.1349393
   0.7745940   0.2400806   0.6194339  -0.0844186   0.4749230   0.1320597
   0.1037835   0.2186402   0.0240617  -0.5981416   1.5737489   0.3060123
   0.6272698   0.5915550  -0.9330767  -0.3260752  -0.2091909  -0.0877002
   0.2963267  -0.1438401  -1.5338078   0.4931001   1.1442085   0.4353676
   0.0603181  -0.2085675   0.1370120   0.4790973   0.0599058  -0.6540062
  -0.3667360  -0.4035601  -1.1533348  -0.0589522   0.2099693   0.2510473
   0.5601267   0.1070100  -0.7671571   0.4183385   0.0636677   0.2889052
   0.1970238  -0.1241103   0.1419475   0.1585913  -1.1141273  -0.0513796
  -1.5477402  -0.7717628  -0.7634186   0.0784694   0.3188645  -0.0475730
   0.5995897   0.5187878   1.2635832   0.4114993  -0.0802760   0.7360509
  -0.0047497  -0.0153229   0.0021604  -0.5446504   1.6570269  -0.7916335
  -0.6015008   0.8211613  -0.2255441  -0.2137929  -0.0527486  -0.2153668
   1.0513592   0.8485358   0.6418838  -1.1063938   0.2502022  -0.2108944
  -0.0158789   0.0383637   0.3068623   1.6181522  -0.3379870  -1.3443009
  -2.2105533   0.2141069  -0.4512510   0.1474363   0.1682715  -0.1195177
  -1.1333422  -1.5365309  -0.0578003   0.6328984   0.1469793   0.5000197
  -0.0250865   0.0460569  -0.0634240   0.2871015   0.1286147   0.7444531
  -0.4084173   1.4722901   0.8300564   0.2456960  -0.1403042   0.3693893
  -0.2281901  -0.3616802  -0.1793889   0.7652187  -0.0621844  -0.3908494
   0.5914854   0.2359755   0.0068095  -0.0398002  -0.6733410   0.8566753
  -0.4297922   0.4694606   1.0382650   0.1613059   0.2091274   0.0719218
   0.8176399  -0.1828297   0.7933127  -0.3072645  -1.0706901   0.2329839
  -0.1323268   0.1337893  -0.1719302   0.9047421   1.8837283  -1.1306212
   0.2728052   0.0946909   0.1912917  -0.0907747  -0.1261816  -0.2916595
   0.1458868  -0.3484848  -0.4261755   0.8686248  -0.8467981  -0.6391709
   0.4881141   0.1104787   0.2074524  -0.3973429  -0.9949284  -0.3272274
  -0.8288825  -0.7316356  -0.3665710  -0.0959513   0.0641953   0.1171895
  -0.9261162   0.1199638  -1.2477503   0.4765380   0.6049326   0.0073078
  -0.1678472  -0.0294911  -0.0302500   1.3152794  -0.5430332   0.5975239
   0.8914816   2.2330201   0.7702906  -0.0236771   0.0638052  -0.1633234
  -1.4733203   0.3478824   0.4236022   0.4027511   1.1235372  -0.7322301
  -0.0679212  -0.1981248   0.0572575  -0.1929745   0.2266036  -0.1693802
   0.6318395   1.4390126   0.1983565  -0.1602227  -0.2261425  -0.1063622
   0.9965845  -0.1531006   0.3616505  -0.3373749   1.1865272  -0.6025699
   0.0892027   0.0149971  -0.0026970   0.5051266  -0.2195771  -0.9838650
   0.0856473   1.1284632   1.0907224  -0.0254905  -0.1353216   0.0013094
  -0.3958403   0.1482194  -0.3982326  -0.4249501   1.4231695  -0.2988870
   0.1970258   0.0509081  -0.0111870  -1.3891567  -0.1702543   0.8980695
   0.8424991  -0.5502632  -0.8706518   0.0978636  -0.2390454   0.0061054
  -1.5458280  -0.0187234   0.8168453   1.4569041  -0.5046718  -0.8471908
   0.0050045   0.2000746  -0.4320923   0.6673661  -0.4063233   1.5093908
  -1.7172104   2.8241548  -0.4061707  -0.0824874  -0.5962547  -0.1992686
  -0.2341910  -0.3852667  -0.1751700   0.5292304   0.1737409   0.0236955
   0.1247274  -0.0135060   0.1206712  -0.6511412  -1.4403655  -0.5695960
  -0.4918866  -0.6892577  -0.4562837   0.0129866  -0.0714058  -0.2056104
  -0.2400708  -0.4355036  -0.9722806   0.3316985  -0.3462081  -0.1402787
   0.0058315  -0.2601790   0.1363439   0.5961153   0.2124721   0.9708013
   0.0775608   0.1199027  -0.5923637  -0.3552307  -0.2592288   0.0458281
  -1.1067659  -0.7051729  -0.0487252  -0.8335060   0.3478431  -1.7076949
  -0.0781808  -0.1705085  -0.3083353  -0.4218880  -0.8021015   0.5130351
   0.3670804  -1.2069631   1.4092967  -0.0025364  -0.1737613  -0.3521065
   1.5379327   1.4788257   1.7445122   1.4320055  -0.8288114  -0.7249664
  -0.0171571  -0.2073859  -0.1120009   0.2365295  -0.1680693  -2.1238817
   0.4132026   1.0638371   0.6143962   0.2499440   0.2745695   0.1350241
  -0.7437563   0.4217513   0.7584458   0.6582313   0.3963496   0.8893889
  -0.1291300   0.3888317  -0.1432295   0.3083379  -0.9477735   0.7578273
   0.5894474  -0.0733968  -0.5932800  -0.0661100   0.1061768   0.0415534
  -0.8774697  -0.5521141   0.8887991  -0.1292615  -0.2217671  -1.5021327
  -0.0563493   0.0716442  -0.2539515  -0.8093343  -0.1863149   0.7908918
  -0.4035199   1.3525798  -0.0169839  -0.1237034  -0.0660632   0.0037811
   0.1754160  -0.7600694   0.3566662   1.8815727   0.4407281  -0.8949062
   0.3071183   0.2761973   0.1518902  -1.8240721  -0.4862575  -0.1701138
  -0.1858049  -0.7104374  -0.4037180  -0.0525139  -0.1525043   0.3794051
   0.2321355  -1.0972125  -0.2849668   0.1345538  -0.5549591   0.2443513
   0.4347244   0.2647178  -0.0635090   1.4013373  -0.7115752   1.0244693
   1.6423926  -0.2183306  -0.1859661   0.0270083   0.0485051   0.3041303
   0.6569714  -0.3725386   0.2032096  -0.1956380   0.1235820   0.5936672
  -0.0500901   0.2589496   0.1356728   1.6559765   1.1167736  -1.9474216
  -0.3376116   0.8679548  -0.0113283  -0.0711923   0.1328446   0.0853123
  -0.2624980   0.6058914  -0.3635322  -0.2240899   0.1413966   1.2654783
   0.1172336  -0.0876022   0.1467393  -1.2904080  -0.9953828  -0.2663848
  -0.6078224  -0.2224846  -0.4597528   0.3248601   0.1943748   0.1337699
  -0.0477450  -0.6759619  -0.5125486  -1.0795561   0.2466837   0.3258768
  -0.2614292  -0.0972928   0.0529495  -1.0040045   0.0953423  -0.0549656
   0.7208506  -0.3870603   1.5541068   0.1206671  -0.0622207  -0.1028009
  -1.3844828   0.5871573   0.1052142   0.2677511  -0.3811816  -0.4426788
   0.0365365   0.1093559  -0.1403322  -0.6670631  -1.6169032  -0.1880151
  -1.3049876  -0.1805673   0.0350087   0.0812013  -0.3371806   0.3072222
   0.8210005   0.3769507  -0.0326090  -0.4851730  -0.3837264   0.7252971
  -0.1825757  -0.1334895  -0.4188486   0.6213561   0.5867703   0.4804778
  -0.1069191  -0.2913225   0.5511386  -0.0030739  -0.1508925   0.3033398
   0.2061239  -1.1128552  -0.2683463  -0.1635685   0.0041414   0.5879222
   0.0545039  -0.1419955   0.1271581   0.0392292   0.2416734   0.0603642
  -2.0158671   0.4513571   0.4257648  -0.1045303  -0.0209718  -0.3921462
  -0.1606220   0.7648382   0.8582956   0.0587854  -1.0830424  -0.2537500
   0.2465630  -0.0335485  -0.1261406  -0.2790541  -0.7424450   0.5834012
  -0.4937616  -0.4749295   1.4812681  -0.0744419   0.0007212   0.0889678
   0.4015566  -0.6723834   2.4859818   1.0100169   0.5212035   0.5106869
   0.1407907   0.2506424   0.2142204   0.3556186   1.1354082   0.8157077
  -0.4237703   1.1010405   0.9247716  -0.3066877   0.2612864   0.2120457
   0.4807510  -1.1270121   0.4995170   0.5818669   0.5922856  -0.7912025
  -0.3570107  -0.1492897  -0.0353600   0.1794641   0.8183112   0.5172381
  -0.0846441  -0.7882159  -0.8858001   0.1358736  -0.0271344  -0.0058570
   0.1301492  -0.6001378  -0.0649718   0.4929890  -0.9191084   0.1081563
  -0.2540982   0.0250052   0.2590404  -1.0578409   1.7127634   1.2905413
   0.5594727   0.6872498  -0.8526085  -0.1867527   0.1505874  -0.3122636
  -0.0055247   0.0656097   0.8732992  -1.2209340   0.8400927  -0.7349040
   0.3172333  -0.1540676  -0.2441070  -0.9651726  -0.5346448   0.1473424
   1.4286860  -0.8792840  -0.6114687   0.0230926   0.0147777  -0.0214206
   0.4659405   0.5441006   0.9772613   0.5025841  -0.6374058   1.1172514
   0.0559886   0.1191419   0.1407142  -1.0497557   0.4010800  -0.3581376
   0.8194666   0.0639108  -0.9877015   0.0925058  -0.0663942   0.0861510
  -0.0087708  -0.5628208  -0.8455698   0.6157547   1.0815238  -0.9243844
  -0.0498379  -0.2399218   0.0414422   0.4563682   0.0903794   0.9079615
   0.1327237  -1.2071306  -0.2190730  -0.0884745  -0.2659490  -0.1667629
  -1.1989357   0.1934272   0.2818573   0.8631698  -0.7469057  -0.0252203
  -0.2754926  -0.1669092   0.2314390   0.0528435  -0.6818542  -0.6092465
  -1.1666929  -0.3028867   0.6557543   0.1798946   0.0201602   0.0747278
  -0.0706415   1.1023843   0.0947989  -0.3727900  -0.9028960   0.8008988
   0.2465518  -0.2653563   0.0607921   0.6520272   0.3280052   0.4188044
  -0.8030361   0.2777764   0.3917073  -0.0606038   0.1036170   0.0597320
   0.1346183  -0.5039504  -0.1643910  -0.3099339   0.7972721   1.7181260
  -0.0408536  -0.1335629   0.0588527  -0.3339781   0.6423577   0.7095041
  -0.4014635  -0.6362728   1.8340234  -0.0953209   0.3107884   0.0890969
   0.1540583  -0.0905379   0.2032327   0.2517133   0.0547842   0.6367112
   0.0868446  -0.3450811   0.0867912  -0.9328098   0.8275428  -0.1839337
  -0.6743623  -0.8468241   1.6358485  -0.3397745   0.2155011   0.0891965
  -0.9820088  -0.5178111   0.0594269   0.4411985   0.5220205   0.1630850
   0.1567955   0.0719437   0.3299489  -0.5452707  -1.0071163   1.3412268
   0.9365162  -2.0257814   0.3720031  -0.4000399   0.1034533   0.1391138
  -0.1652317  -1.1549710   0.0319391   0.7529748  -0.3326555   1.2827991
   0.2794136   0.2227665   0.1259241  -0.4927863   0.1079705  -0.1297533
   0.5083537   0.6280974  -0.5512375  -0.3080560   0.0305570  -0.1115492
   0.0507305  -0.5017777   0.3172788  -1.0509994   0.1951810  -0.6340709
  -0.0074073   0.0362912  -0.0886458  -0.0989334  -0.2991626   0.2682236
   0.7523314  -0.5262660  -1.0585166  -0.1356602   0.1234453  -0.1051135
  -0.0129340  -0.5453023  -0.6500574  -1.0696158   0.5160069  -0.0628366
  -0.0226967  -0.2408020  -0.0814068  -1.0844070  -1.0257383  -0.7398717
   0.0931124  -0.0361717   0.1778878   0.0267765   0.1972855  -0.1836928
   0.3584468  -0.5748382   0.6783380   0.0752476   0.2370841   0.7734092
  -0.0217803  -0.0490183   0.0284957  -0.3939101  -0.7613901  -1.4431719
   0.0479576  -0.1399995   0.8673054   0.1006550   0.2615068  -0.0327809
  -0.3066967  -0.3622639  -1.4252680   0.6552050   0.5314595  -0.1577636
   0.0658737   0.1267173  -0.0635760   0.8258684  -0.7081336   1.5388759
   0.6636099  -1.0829266  -0.5713876  -0.1517434   0.1586984  -0.1921407
  -0.1990502   0.1014422  -0.2911804   0.8965005  -0.4673316  -0.4349633
  -0.0436927   0.3213778  -0.0889263  -0.4609106   1.1034651  -0.7134469
   0.5180719  -1.6208545  -0.3692653   0.3176875  -0.0181648  -0.4017335
  -0.3479717   0.7171824  -0.1553023   0.8403912  -0.9526071   0.2453214
   0.0813315  -0.2959516  -0.1916956   0.8252200  -0.5014947  -0.6661417
  -1.0641147  -0.9828677  -0.4122804   0.0537663   0.1566900   0.3514940
   0.1013711  -0.6651028   0.6460432   1.7195264  -1.0173236  -1.6649445
  -0.0557434  -0.0745248   0.2926546   0.3006983   0.9059613   0.9433348
   0.1979807   0.3751105  -0.4328248   0.1629289  -0.0341791   0.0223918
  -1.3668386   0.3529736  -0.5803863   0.5223700   0.0715525   0.4470890
   0.2143772   0.3548922  -0.1167239  -0.3131436   0.6800270   0.2547674
  -0.0815101   0.7720239   0.5410075  -0.0926496  -0.1728903  -0.3035126
   0.5066344   0.7616232   0.2050928  -0.0635107  -1.4638533  -0.0288979
   0.1587296  -0.1053870  -0.1248087  -0.6573789  -0.1895516  -0.3009677
   0.5970773  -0.8821753   0.0930480   0.1401551   0.3608968   0.0791423
   0.5771904   1.0811855  -0.0081797   0.5054053  -0.1201281   0.3071473
   0.0683398  -0.1031673  -0.2253497  -0.2107457  -0.8959863   1.0028913
   0.4628177  -0.5837296  -1.5123923   0.0394210   0.0069384   0.1080919
   0.5125087   0.0541312   0.1674518  -0.4278651  -1.7379860  -0.1905629
  -0.0066426   0.3437604   0.0609814   0.4694423   0.2390907  -0.3729924
  -0.0290793  -0.0507384   0.7516647   0.2557886   0.1154062   0.5801449
  -0.1030872  -0.5164886   1.2991618  -0.0026206  -0.4569432  -0.6793230
  -0.1891169   0.0181873  -0.1596180  -0.9518568   1.1036956  -1.0261303
   1.0101825  -0.1430772  -0.1932301   0.0550808  -0.0115149  -0.1263486
   1.1805078   0.1271159   0.6963632  -0.6815046  -0.5094389  -1.1831999
   0.2039961  -0.2481472  -0.1074184   0.1107252  -0.3974106  -0.9536410
   1.0080384   0.8354494  -0.4745301   0.4093792   0.1288678  -0.0904626
  -0.1704346  -0.3448281  -0.1901462   0.1278025   0.1615570   0.2205102
  -0.0739671   0.1082251  -0.1071217  -1.0597534  -0.2313909   0.0499787
   0.0516221  -0.3370217   0.2844073  -0.1971830  -0.2960553   0.2617161
  -0.5882569  -1.6177367  -1.2796627   1.1513240  -2.0495034   0.0459657
  -0.2534025  -0.1964725   0.1362231   0.2096330  -0.4128951   0.3272074
   0.3146973  -0.7384261   1.2630123   0.0048549  -0.0743260   0.1113477
   0.4743308   0.3380091   0.1645003  -0.4792619  -0.4136007   0.0672171
   0.1975650   0.1010661  -0.4832897   0.1251818  -0.7860508   1.0355417
  -0.4550413  -0.4732794   1.2923356  -0.1266340  -0.1452340  -0.1052916
   0.0045145  -0.0730748   0.5288378   0.4725334  -0.6700951  -0.5920993
  -0.3227591   0.1703255  -0.0681290   0.6865336   1.6333751   0.2655008
   0.5711780   0.3744013   1.2491501  -0.0770174  -0.2715518   0.0563953
   0.4874996  -0.7302836  -0.1143099   1.5449355  -1.1592092  -0.1965968
   0.1536648  -0.0533070  -0.2259219   1.6230587  -0.9315300  -0.1480099
   1.0551498   1.0070939   0.4852667  -0.0156507  -0.0576328   0.0622542
   0.9189913   1.7285376   0.1020318  -0.2123570  -0.3493054  -0.6806754
  -0.0499313   0.2808971   0.0999812   0.5750811  -0.7622579  -0.4798137
  -1.0032339  -0.0463522  -0.7542096   0.0839539  -0.0773356   0.6372348
   0.5616711   1.0583904  -0.3086374  -0.7853384  -0.4597540   0.4196635
   0.1175878  -0.1245406   0.1391357   0.0668885  -0.3670243   0.0267417
  -0.0651824   1.1437499   1.3252078  -0.1226131   0.1982432  -0.1925979
  -1.1899314  -0.1200605  -0.1839832   0.8056527   0.4014787  -1.1889131
  -0.1951100  -0.0701352  -0.3494283  -1.8402062  -0.6676034   0.5258188
   0.6239130  -0.1001506  -0.7914746  -0.1038093   0.4779719  -0.1555887
  -0.2529512   0.1159113   0.5400701  -0.0334640  -1.7005248  -0.3021194
  -0.0147954  -0.0044397  -0.2920685  -0.2631532  -0.9767821  -0.0607165
  -0.0048935  -0.5264906   0.3017216  -0.0647802   0.0114609  -0.1993359
   1.1639895   1.2225057   1.3914413   0.0032919   0.1854896  -0.0439927
  -0.0763480   0.5194290  -0.1926943  -1.6402327   0.4086723  -0.4442915
  -1.7959069   0.7115287  -0.6076632   0.1350726   0.0545790   0.0583308
   1.5213937  -0.1162611  -0.2570113  -0.1430828   0.5714506  -0.4165384
  -0.0491939   0.1506738   0.0682128   0.3224785  -0.9871476   0.2849179
  -0.4360144   0.8025114   1.2812990   0.3072452   0.0941617  -0.0685310
   0.0741166   0.4329102  -0.3260776   0.5830079  -1.1844829  -0.6826867
   0.0147137   0.1890461   0.1137138   0.9347585   0.3154876   1.1723941
   0.5135953  -0.7355873  -0.1030857  -0.1225271   0.3109741   0.1530120
   0.1674321   1.2026881  -0.4000219   0.0180821   0.1675186   1.0327538
  -0.1458749   0.3340143  -0.0860425  -0.2354698   0.5870877   0.9225757
   0.4332234  -0.2837887   0.3994360   0.3708319   0.0606349  -0.1314381
   1.6624991  -0.1062975  -0.6748712   0.0624486   0.4777253  -0.0252401
  -0.3666079   0.0201830  -0.0737368   1.1596473  -0.0925996  -0.0815227
   0.6272008   0.9365852  -0.0178641   0.3025859   0.3989566  -0.2314296
  -0.4210209   0.6507402  -0.0808021   0.3399971   1.0101482  -0.0620900
  -0.1456407   0.0563552   0.1182812  -1.3667831  -0.7228866  -1.1367486
   0.4482234   0.5175755   0.6805077   0.0554356   0.0467395   0.1136208
   0.2440768  -0.7406293   0.7416167   1.4962879  -0.6414872  -0.3217512
  -0.3788613   0.2263461   0.1755942   0.4561742   0.6780102   0.7113489
   0.2097777   1.8395649   0.0074861   0.2910368   0.0236834   0.0295049
  -0.7271713  -1.3860825  -1.1132403   0.5353485   0.2798351  -0.4914717
  -0.1019358   0.1566396  -0.0569310   0.1516814  -0.3378077  -0.1674758
   0.8234766  -0.5844025   0.6659712   0.0134852  -0.0668052  -0.1133619
  -0.5777974  -1.2196688  -0.4753463  -0.7852938   0.5283564  -0.4583545
   0.1988202  -0.0069647  -0.0705381  -0.4792024   0.2681628  -0.2513139
  -0.1658215   1.0641228   0.5483644  -0.0634706   0.2457407  -0.0242581
   0.9231199   0.2745098   1.1564948  -2.3881006  -0.3308879   0.5973828
   0.0920930  -0.1975199  -0.0151919   0.0308489   0.5031042   0.2009091
  -0.0762395  -0.5416638  -0.2635374   0.1869979   0.0608836   0.2529036
   0.8743864  -0.7869390   0.0472642   0.3784111  -0.5420856  -1.3517798
  -0.0550463   0.5701283   0.0044195   0.4330843  -0.0076820  -0.4810330
  -0.8763555  -2.2838751   0.2285124   0.1970239   0.1180512   0.0932508
  -1.6822760  -0.7498135  -0.3449025  -0.5943976  -0.8711821  -0.1935652
  -0.2476775   0.0411132  -0.3081203  -0.5304863  -1.5032620   0.0732399
   1.0887766   0.2512330   0.2794465   0.1819652   0.2852858  -0.1119448
  -1.0593043  -0.5894282  -0.5321077  -0.8252027   0.5960268  -0.4416133
  -0.0930318   0.0667236  -0.1182585  -0.9006638   1.3536307  -0.2706296
  -0.3425732  -1.3530148   0.5620268  -0.0524243  -0.0863837  -0.1898812
   0.5151934  -0.6306851  -0.2021980  -0.4186142   0.2655691  -0.0236307
  -0.1480954   0.1105638   0.2118034  -0.7971210   0.1980436   0.6734876
   0.5968216   0.7853734  -0.4641659   0.1008605   0.0467030  -0.0405910
   0.0465129   0.0906840  -0.4306879   0.3387781   0.9988309  -0.5417779
  -0.1477639  -0.0774964  -0.1516324   0.1341118  -0.1072800   1.2358333
   0.0609947  -0.8804626   0.5707421   0.3446300  -0.0409327   0.3024834
   1.1818046  -0.0398355  -0.7592298  -0.2058252  -0.9793557   1.5443545
   0.0696027   0.4865535   0.4383957   0.2542053   0.1776431  -0.2056317
  -0.8451011  -0.1225225  -0.4926804  -0.0053137   0.2938072   0.1985600
  -1.0528851   0.7505200   0.4132135  -0.9099380   0.8199654   0.5747372
  -0.3968632   0.2802320  -0.1659486  -1.7429942   1.0798490   0.4025746
   1.5937463   0.1536264  -0.2589738  -0.1933862   0.0302707   0.2345334
  -0.4654598  -0.1135691   0.4771429   0.9017481  -1.2342533  -0.8149245
  -0.1492753  -0.2571463  -0.1183162   0.5195058   0.0889447   0.8938151
   0.5103191  -0.4970943   0.4971791   0.3029592  -0.0494090   0.1267785
   0.1019936  -0.7888304  -0.8660053   0.1285811  -1.1419865   1.1369249
   0.4221707  -0.0666638   0.1139447  -0.4528468   0.1405545  -0.4878922
   0.8884214  -0.7736103  -1.1335216  -0.1080080   0.1398961   0.0865397
   0.7755085  -1.3090535   1.9893552   0.1632191  -0.4559981  -0.9665805
   0.0680349  -0.0730847   0.0479881   1.4533426   0.3232197   0.1216319
  -1.3309690  -0.7087436  -0.2085167  -0.0158017   0.1855904  -0.1062880
  -0.6752536   1.6992426   0.1359947   0.1072926   0.0279001  -0.7529759
   0.1541953  -0.3160322  -0.1875483   0.5700984  -0.6265339  -0.6250982
  -0.1022140  -0.2968100   0.6492882   0.1007873  -0.4008322  -0.0074933
  -0.4762846  -0.9308449   0.8400788  -0.3940013   0.0695955   0.0118854
  -0.1115437   0.3241938   0.0433815  -0.6562721   0.6945904   0.8925471
  -0.0528283  -0.8543689   1.2303826  -0.1492477   0.0125120   0.0012008
  -0.3276980   0.2165364  -0.5903421  -0.1830258  -1.1938249  -1.2574806
   0.1858287   0.0124893  -0.0533980   0.8575479   0.1899375   1.6926478
   0.9573475  -0.0869903  -1.1167237   0.3395969  -0.0435592   0.1442196
  -0.9794130  -0.5609061  -2.2814094   0.6823271  -1.4144680  -0.7271310
  -0.2337670  -0.2342976  -0.0043665   0.2266397   0.5836679  -0.2174497
  -0.7444872  -0.2359805   0.7405836   0.1275802   0.0021652  -0.2548368
  -0.7549568   0.2394464  -0.9498707   0.9504709   0.0671708   1.1383710
   0.1255361  -0.1090694  -0.2516389  -1.1483569  -0.6660542  -1.0934149
   0.2065379   0.0751969   1.0623961   0.0535816  -0.0776763  -0.0830140
  -0.2424496   1.0102949  -0.7739571  -0.3781658  -0.9894674   0.0494460
  -0.2910142   0.1256748  -0.0743838  -0.1542303   0.1997000   0.7855238
   1.5167870   0.2450759  -0.4209077   0.0287740   0.2443016  -0.0838695
  -0.0745493   0.5090508   0.1410182  -0.7069910  -0.1024409   1.1999616
   0.1262836   0.0712806   0.3459146  -0.5718624   0.2137618  -0.6193481
   0.6017506   1.0748694  -0.6365727   0.1998961  -0.0414847   0.0947967
   0.2353846  -0.7746441   0.7243261   0.3309057   0.5753161  -0.0857670
   0.1332246  -0.1775014  -0.0178060  -0.0990421   0.9892078   0.4022331
   1.1622745  -2.1659380  -1.0908533   0.2128787   0.0424791   0.0311144
   1.0534174   1.0967776  -1.2908384  -0.0953565  -0.2995212  -0.7737653
  -0.0823718   0.0093571   0.1118244   1.0507895  -0.2730362   0.4643327
  -1.0682412  -0.3227983   1.1742192  -0.1616957   0.1303430   0.0363327
   0.7708579  -0.3974460  -0.6589843   0.0035709  -0.5045720  -0.2171306
   0.1797416   0.2755066  -0.2755317   0.2526062   0.6880626   0.3787235
   0.8525249  -0.3777145  -0.6503007  -0.1176226  -0.0314543   0.0672610
   0.2687513   0.3724659  -1.9048682  -0.5222559  -0.5355377  -1.0114326
   0.0185716   0.1875745   0.0534154   0.7869303  -0.7103155  -0.8946705
  -0.2419322  -0.2785158  -1.1860743   0.0731228  -0.0416939   0.2277212
  -0.2639079   0.7323231   0.7625794  -0.6393142   0.1347404  -0.8336786
  -0.1717225  -0.0431131   0.0167559  -0.5793804  -0.8504525   1.4918732
  -0.7777565   1.6454009   1.0579864   0.1683996   0.4341586  -0.1071539
   0.0414386   0.3509636  -0.0338743   0.2149971  -0.3415916   0.0400396
   0.0456731   0.2165125  -0.0212514  -0.2951233  -0.7995896  -0.4971013
   0.4818769   0.0000439  -1.4039575   0.2524249   0.1897894   0.1457846
  -0.7935959  -0.8322508  -0.2288325  -1.1182804  -0.6956849   0.2229194
   0.3837734  -0.2039295  -0.3081103  -0.1297517  -0.1511452   0.3323922
  -0.7047571  -0.0039574  -0.0790418   0.3335959  -0.1607468  -0.0136976
  -1.5955347   0.4142149   1.0297145  -0.2985388   0.2609190  -0.4012565
   0.0073411   0.5692616  -0.1272168  -0.7373205  -1.0254868  -0.0025213
   1.8463959  -0.6516663   0.0377537   0.0093488  -0.3723451   0.0498271
  -0.0890172   0.1520686   0.8326557   0.4382233   0.5850429  -1.9195420
  -0.2483968   0.4044822   0.2300881  -0.6085629   0.6156423   0.0595400
   1.8867576  -0.4102138   0.4149882  -0.2020597  -0.1911049   0.2116756
   0.6955366   0.6659192  -0.1669605   0.1634510   0.0042360   0.5446650
  -0.1126880   0.3476494  -0.4032303   0.2712709   0.0743942  -0.7946974
   0.0988220   1.0568822   0.6839490   0.3889828   0.0240754  -0.3120025
   0.1580538   0.1528319  -0.8303126   0.7915950   0.0570651   1.3034603
  -0.2992038  -0.3489697   0.0824678  -0.0614851  -0.1281872  -0.6500868
   1.4314627  -2.0852592  -0.0859047   0.1718910   0.1032970   0.0426305
   0.2348476  -0.1514557  -0.8063073   0.1222179  -0.5469808  -0.1724383
  -0.0094303  -0.1694024   0.1616002  -0.3166776  -0.0758652   1.2853804
  -0.6529456   1.3831309   0.2540121   0.4428522  -0.0760377   0.3479090
   1.0487880  -0.8062997  -0.0619779  -0.0219538   0.1469976  -0.3561674
  -0.0586475   0.3983110  -0.0719833   0.4104003   0.7843674  -0.4116436
   0.8575622  -0.8575978  -0.0358187  -0.1493342   0.1128197   0.2252938
   1.2462887   0.7600739   0.2963300  -0.6773312   2.1992638  -0.5358238
  -0.0713482   0.1500509   0.3669081  -1.8149051  -1.5542151  -1.0588689
   1.0275175  -0.5693978   2.0971163  -0.0179572  -0.1424100  -0.1421685
   0.8108109  -0.8609499  -0.5396771   0.5034084   0.8243064   1.0225800
   0.0264028   0.1049688  -0.1410821   0.3482602  -0.7588915   0.4009858
  -0.7816111   0.3352561   0.7432505   0.2485592   0.3952513  -0.0603324
   0.2939171  -0.2092341  -0.3839910  -0.5200756   1.3088742  -0.5739485
  -0.1769368  -0.2947909  -0.0129774  -0.7599760   0.5951168   0.9496416
  -0.7660347  -0.2832169  -0.5175141  -0.1667714  -0.0609141   0.3212211
  -0.2890001  -0.4589342   1.0282176  -0.8967842   1.9853765  -1.0633836
  -0.2661711   0.0015790  -0.0987721   0.3770932  -1.1283719   0.4382252
  -0.8437621  -1.6419084  -0.6471596   0.1107418  -0.0471698  -0.0235482
   0.6250473   0.0634574  -0.1436593  -0.9840126  -0.8983059   0.3158985
   0.0901640   0.1425797  -0.0263000  -0.3850371  -0.3334634   0.3721973
   0.5597669  -0.3872751   1.1697296  -0.0958596  -0.1858405  -0.2610922
  -0.5575366   0.0788628  -0.8530475   0.7825154  -0.3229162   1.5719916
   0.0183463  -0.1833743   0.0610384   1.7455270   0.2583268   1.1819413
  -0.2690002  -0.0329005   0.4274213  -0.1253343  -0.2304693  -0.3816463
  -0.8004912  -0.7585385  -0.7623235   0.3507187  -0.3597194  -0.4491351
   0.1288600  -0.0074315  -0.1285287   0.3624029   0.3074299   0.4388705
  -0.4831770   0.4381682   0.3989769   0.2255753  -0.0430564  -0.3083677
  -0.4292894  -0.5976028   0.3701504  -0.0817966  -0.1791428   0.6351832
   0.0596892   0.1190660  -0.3240793   0.4314075   1.0672714   2.0965956
   0.9705783  -0.9025534  -0.8427241   0.0700155   0.3943278  -0.4514178
   0.5715905  -1.3370259   1.0152948  -0.5976005   0.3444685   0.3907450
  -0.2471588   0.2186742  -0.1973655   0.1194917  -0.2306379  -0.3794215
  -1.1467453   0.3027300   0.0669773  -0.2124511   0.2023587  -0.4131426
   1.4304534   0.0623117  -0.1882647  -1.6474658   0.0324409   0.0819417
  -0.1808986  -0.1194698   0.1176222   0.3035913   0.4713038   1.3930857
   0.4239752  -0.5912335   1.4712734   0.0458364   0.0728518   0.0249745
  -0.2049822  -0.2034980  -0.7909459  -0.4351668  -0.7615399   0.5694134
  -0.0728006   0.0157112   0.1718627   0.3075118  -1.1027516   0.0834395
  -0.0694947   0.2928736  -0.1633622   0.4794161  -0.0494684   0.1096191
  -0.5901905   0.3043820   0.5117832   0.7333455   0.6180245  -0.6524063
  -0.0793221  -0.2871954   0.1075113  -0.0278471  -0.3469580   0.6836766
  -0.2719349  -0.5343915  -0.7075587   0.2156109   0.0780359  -0.1785526
   0.6068809   0.1092206   0.6276993   1.4175842  -1.0332977   0.0240225
   0.1371856   0.1985424   0.1607268  -0.2190986   1.5094714  -0.5525002
   0.6462149   0.4051314  -0.3708126   0.0991287  -0.3137311   0.0003058
  -0.8819031  -1.2941559  -0.0066093   0.3263468   0.1743530  -1.7815421
   0.2343164   0.0866003   0.3442287   0.0087037  -0.6038449  -1.3609922
   1.4481736  -0.8563595  -0.3093840  -0.0028608   0.1335558  -0.4641017
   0.4877518  -0.6153571   0.9064921  -0.2003460  -1.1064313   0.3284513
  -0.1908771   0.0110293   0.3646564   0.7098993  -0.4497664  -1.3015725
   0.0278839   1.1274856   1.0324634   0.0701210   0.0224163   0.3711606
   0.5748510  -1.1274271   0.9236247   0.6600094   0.3326297  -0.0456982
   0.1807115  -0.0361489   0.0519515  -0.7886583  -2.0926646   0.9804616
   0.0642256  -0.9370758   0.7493749   0.1275669   0.1303375   0.2910584
  -0.3059244  -0.8337739  -0.6547333   0.1563227  -0.8098838  -0.4598248
   0.2005572  -0.0275021  -0.4995691  -0.3594961   0.4438251   0.4317620
   0.7841904   0.4880301   1.0261787  -0.1826084  -0.1024628  -0.1117300
  -0.5856924   0.2429464   0.9791238   0.5564148   1.5730007  -0.2034107
  -0.3118868  -0.1689164   0.3165820  -0.2863493   0.9663786  -1.0002800
  -0.6620574   0.2243335  -0.2464073   0.2419257  -0.4844837   0.2107064
   0.4879461  -1.4617325   0.3193251   0.3162653  -0.4476968  -0.5198727
   0.2746998   0.5983786   0.1142545   0.1069883  -0.9862213  -0.0606800
   0.3532878  -1.1704335   2.1288909   0.0108617  -0.1700387   0.0769253
   0.2033762   1.5732853   0.5483951  -0.6086788  -0.8094165   0.8428550
   0.1005954   0.0313713   0.0048473  -0.7889071   0.6605121   0.4765955
  -0.2320573   0.2422221   0.5033184   0.0417752   0.2129550  -0.4945078
  -0.2328648  -0.1648584   1.8747895   0.9994512  -1.4900218   0.1195068
   0.0621743  -0.2445029  -0.0754285  -0.3882145  -0.4729037   0.6057315
  -0.8756814   1.2014866  -0.4066165   0.3377091   0.1628210  -0.2352374
  -0.4566012  -0.2220844   0.4442989  -0.3849633   0.6474907  -0.4731334
   0.5688095   0.0358163   0.1109361   1.6394144   0.8355128   0.4788242
  -0.5769025  -1.0792577   0.8854408  -0.3305607   0.0058753   0.2506950
  -0.0698785   0.1207131   1.2390045   0.2413600   1.5731774   0.2989000
   0.0197181  -0.2043548   0.0735724  -0.0060894   1.3377970   0.2119415
   1.8536634   0.0634682   0.8231923  -0.4136912  -0.2838418  -0.1395546
  -0.8806254  -0.7388677  -0.6270702   0.3169790  -0.2443481  -0.6849898
  -0.2917067  -0.1894101   0.4058765   0.6983023  -0.5724027   0.4620884
   0.3717444   0.2275220  -0.6037081   0.2958743   0.2971123  -0.1918442
  -1.2816776   0.0904531   0.2853093   0.2544499   0.8275060  -0.2004274
  -0.1203937   0.0769942  -0.1696540  -0.7606972   0.6063653   1.3607816
   0.9865681   1.0361246   0.5849988   0.2137706  -0.0404235   0.0751325
   0.0947033   1.2716640  -0.2341600  -0.0146571  -0.0531806  -0.0824399
  -0.2017427  -0.1578846   0.0610137  -1.2636720  -0.0284288   0.4997700
  -1.1921275   0.9665772  -0.0219874   0.3421708   0.1817355  -0.1574944
  -0.4211227  -0.0004074   0.4057013   1.3908879   1.6172926  -0.2699822
  -0.0572861   0.2692868   0.3544534   1.1063752   0.3549442   0.5690447
  -0.7759212  -0.5671884  -0.3312137   0.2854265  -0.2455713   0.1491537
   0.6583937  -0.1391671  -1.0951371   0.5077851  -1.8732122  -0.3948073
   0.1519823   0.1298468   0.0274070   0.5574186   0.7434721  -0.5334876
   1.8912903  -0.0321933  -0.5611206   0.0416080   0.0606453  -0.3208575
   0.6451294   0.3704285  -0.4282441  -0.9820302  -0.1284782  -0.1482811
   0.2806841  -0.0210509   0.2496220  -0.6166576  -0.1029767   0.8529477
  -0.7287579  -0.0003792   0.1988623   0.1341568   0.3718109  -0.3415274
   0.5452241  -0.3122194   0.2666065   1.0743340   0.7338147  -0.6486290
   0.2624440  -0.0160236   0.0830366   0.1132891   0.1268904   0.7497884
   0.5919542  -0.4126859  -0.8242397  -0.0075634  -0.0514604  -0.0760615
   0.0586745  -0.7477113  -1.0903954   0.4544865  -0.5999382  -0.6382217
   0.0332876  -0.2662480   0.1038049  -0.9735429   0.8669189  -0.3916300
   0.2174293  -0.2619482   0.3834705   0.2713561   0.1138314  -0.2256710
  -0.4237898  -0.0093887  -0.1044372  -0.8912102  -0.8041237   1.6713573
  -0.2002363   0.1316024  -0.2803770   0.1540836   0.1645033  -0.4461758
   0.6345853   0.0100164   0.3969462   0.0845603  -0.0458161   0.2273284
  -0.1756607   0.9810145  -0.4353785   0.6350258   0.1286709  -0.0482896
  -0.0942547   0.1258149  -0.2038509  -0.5326605   0.1839483   0.6090143
  -1.4179669  -0.1729856   1.0899822   0.0104381   0.0443509  -0.0866923
   0.5393157   1.0223229  -0.0718957  -0.1070644  -0.7025207   1.1089721
   0.3313942  -0.0845107  -0.2188071  -0.2295218   0.8962372  -0.1270814
  -0.0469661  -1.7858611   1.6480581  -0.3895678  -0.0851169   0.0985435
   0.4385008  -0.2355103   0.2070848  -0.1614266  -0.9032774  -0.8573815
  -0.2541022   0.2533699  -0.1254833   0.2238256  -1.2253266   0.3266876
   0.3578662   0.4678903  -1.0794437   0.0849761  -0.3125138   0.1154781
   0.5501463  -0.0204200  -0.0371906  -1.4040917   0.4507087  -2.4392371
  -0.2055156  -0.0259290   0.0971480  -0.5566678   1.4994407  -0.6518338
  -0.1125526  -0.5213913  -1.3670822  -0.2043507  -0.2645121  -0.1946136
   0.7201141  -0.2814690  -0.1631774   0.4890457  -0.3985021  -0.7910433
   0.3402996  -0.2584336   0.0651483  -0.1937935  -0.1095429  -0.3114715
   0.1254419   0.7844107  -0.5602328  -0.0563063   0.0679738  -0.0756371
   0.5469518  -0.2083848   0.8494060  -0.1247685  -0.4866063   0.2438027
   0.0733411  -0.1116200   0.4570425   1.0551061   0.6084975  -0.1959710
  -0.7769619   0.5390814  -0.6033944   0.0404557  -0.1688640  -0.1741478
  -0.3325875   0.2786120  -0.9089754   0.7936134  -0.8858968  -0.4008525
  -0.0745158  -0.0106674  -0.1004654  -0.6182102   1.2726859  -0.5913594
  -0.8386117   0.7015516  -0.0417541  -0.1186003  -0.1094899   0.2047831
   0.0767725  -0.1269041  -0.5482202   0.4908613   0.2270333  -0.0530464
  -0.0153484  -0.0186629   0.0570732  -0.1439100  -0.0271678   0.8213071
   0.5727513   0.7336306  -1.0218237  -0.0719984   0.2604223  -0.0724269
  -0.4581879   0.4510561  -0.5867413   0.2590206   0.5051685   0.0431535
  -0.1186764  -0.0021290  -0.3920124   1.0507622  -0.3713844   0.0941851
   0.7008283  -0.2948290   1.8065721   0.1529483  -0.1024976   0.1867142
   0.0888456  -0.8813042  -0.0981423  -0.4489252   0.6635336  -1.1174550
   0.0599863   0.2003637   0.1334779   0.6091669   1.5732156   0.4637336
   0.6471613   0.4419237   0.3721137   0.3062396   0.3504155  -0.0140155
  -0.4371962  -0.6775025  -0.6133384   0.9590908  -0.3359453  -0.0179311
   0.3403474  -0.1837439   0.0405252  -0.8310144  -0.1722414  -0.9384668
   0.1761639  -0.0090575  -0.0635092  -0.1799548   0.0627073  -0.1102733
   0.2304816   0.5997128   1.2567227   1.1503018   0.6488728  -0.1354568
  -0.0739245  -0.0139787   0.5000549   1.1385202   0.0449897  -0.3407904
   0.6162642  -0.9621512  -0.4136607   0.3059739  -0.3216700   0.0321325
   0.4717861  -0.0527772  -0.4189898   0.2364637   0.4497631   0.1282681
   0.1135549  -0.0177716   0.1387276  -0.4200556   0.5094039   0.5821857
  -0.0876004  -1.9908591   0.4326192  -0.0765523   0.1896292  -0.0149385
   0.5814969   0.0329915   0.7863193   0.9944983  -0.2384431  -0.3156600
   0.0077514  -0.1390121   0.3086832   1.4350631  -0.6948966  -1.1820966
   0.4602260   1.3472456   1.0083135  -0.0458600  -0.2437609   0.4019591
   0.0512800   0.5734460   1.5254374  -0.2601936   0.6041244  -0.5982482
   0.2333001  -0.1992892  -0.2466508   1.4744131  -0.0343602   0.3047038
  -0.0673040   0.6019297  -0.0793084  -0.0286682  -0.0040190  -0.0345126
  -0.3165647   0.2583362   0.3614160   0.6195796  -0.3464572  -0.9740933
   0.2518711   0.0693542   0.1079018   1.0954038  -1.0176997   0.4889998
   0.4705260   0.2759289  -0.9384758  -0.1801515  -0.1404371   0.2899799
   0.8092017  -0.3254339  -0.8775784   0.8999338  -0.1016858   0.1100074
  -0.4017570  -0.1353405  -0.0392993  -0.3931402   0.1871445  -1.1873096
  -0.7632139  -0.3327640   0.4225767   0.2904582   0.0346496   0.0143668
   0.5941030  -1.2187091  -1.2471949  -0.4989382   0.5632845   1.2348051
   0.1040682  -0.2232776  -0.1677726   0.5236074  -0.7486431  -1.2420872
   0.6053268  -0.4791517  -0.2757141   0.0747385  -0.0566613  -0.3768089
   0.1857585  -0.3159811  -0.2457587   0.0457958  -1.4153689  -0.9086415
  -0.1327762  -0.1806386   0.1062670  -0.2929323  -0.5593374   0.0317555
   0.9666645  -0.1955054  -0.3525815   0.1246083   0.0374812   0.0730933
   1.9940861  -0.4269328  -0.1335748   0.0202306  -0.0585884   0.1390429
  -0.2115237  -0.2012419   0.1715190  -0.2764398   0.3425446  -0.1507166
  -0.0448296  -0.8793513   0.3722327   0.1459573  -0.2282862  -0.1413155
   1.3827964  -0.0388038  -0.2739748  -0.0699911  -0.5721040  -0.5155784
   0.0365957  -0.0125323   0.0686092  -1.0121047  -0.8506112  -0.6086089
   0.3216379   0.2622077  -0.0493469  -0.5528293  -0.0668305  -0.0133460
   0.5793848  -0.4958007  -0.2050099   0.4608845   0.4161901   1.4551635
   0.0678600  -0.3122267  -0.0002269   1.4398517   0.9764831   0.9824198
   0.6040764  -0.4971968  -0.5063133   0.3643984   0.0364207   0.1389530
   0.1588348  -0.3646470  -0.2328858  -2.4451526  -1.3554902  -0.0869448
  -0.0246871   0.0259334  -0.1781180  -0.5508223   0.9225758   2.0842069
  -0.8358577  -0.1592518  -0.3279912   0.2459123  -0.1171137  -0.2989806
  -0.5358607   0.0880243  -1.4689521  -0.4283250   0.3815184   0.6476905
  -0.3792812   0.1421335  -0.0140148   0.1427465  -0.0545089  -0.3347657
  -0.9460887   0.3438760   0.5511257   0.0669999   0.1700585  -0.2682676
  -0.0273576   0.9165036  -1.2813817   0.7228230   0.1913786   1.5808865
   0.2226209  -0.0600040  -0.0551910   0.5374958  -0.2096201  -0.3295256
   0.0986826   0.2566656   0.5887497   0.1054951   0.0905218  -0.0936839
  -0.4782948  -0.2168119  -1.1458006  -0.2854963   0.1839602  -0.1120784
  -0.1380464  -0.2005867  -0.0612232   0.9208185   0.6582429  -0.0399061
  -0.2831269   0.7299796  -0.0018709  -0.1409065  -0.0913727   0.2820538
  -1.6803346  -0.8696789  -0.6016491  -0.4709391  -0.8044804   0.7602187
  -0.1278036  -0.0046872  -0.0675676  -1.1543759   0.0194745  -1.2372164
   0.7248384   0.3659188  -0.7007566   0.0783505   0.1890709  -0.1295378
   0.2059601   0.2740621   0.2347070  -1.2200183  -0.3214013   1.5726942
  -0.0359848   0.0507109   0.2987994  -0.5206169  -0.2926463   0.5833692
  -0.4292308   1.1888387  -1.1419113   0.1292473  -0.1964284   0.0742028
  -0.2057933  -0.3481260   0.4345598   1.4018162   0.0111790   0.1152863
  -0.3193451   0.1057288  -0.1472037  -1.3944748   0.2111168   0.3260324
   0.4513635  -0.7091223  -0.1211342   0.0617929   0.1127234   0.0743499
  -0.2783603  -1.0734579   0.6804457   0.5802634  -0.2964546  -0.4415841
  -0.2670104  -0.2524179   0.0276106   0.2834740   1.1186165  -1.3368386
   1.0899468   0.3929795   0.6785944   0.0418517   0.1528620   0.1562406
  -0.6874321   0.2398115   0.7787760  -0.6964856  -0.1334874  -0.3427920
  -0.3458702  -0.0562728   0.0853976   0.4566984   0.3481428  -0.4606309
  -0.3689065   0.7977629  -0.0337925   0.3170528  -0.0041292  -0.1598295
  -0.6414262  -0.1351656   0.0970824  -0.9621550   1.2777376  -0.0071086
  -0.0720828  -0.1558961  -0.2627803  -0.2019508   0.0091645   0.6148065
  -2.0368505  -0.1361439   0.7160988  -0.4296387  -0.0323519  -0.1480724
  -0.2339507  -0.3136990  -1.2764577   0.9547055   1.2790082  -0.6456585
   0.1296182   0.0571458   0.0028433   0.2780887  -0.5174942   0.5902474
   0.2964975  -1.5676849   1.6372412  -0.1280584   0.1788981   0.4679236
   0.0834844   0.2334817   0.4228890  -0.6164728   0.4956866   0.4199173
   0.2735805  -0.0274202  -0.1296740  -0.6073749   0.0877021  -0.1456192
  -1.0660391  -0.0268450   0.5017093   0.1715311   0.1768275   0.2906655
  -0.6373365   1.2867018   0.8048139   1.6387303  -1.2513511  -0.9058606
   0.2815232   0.3561404   0.1869922  -0.7418977   0.0919203  -1.4151951
   0.8832957   1.1833661  -0.8267184   0.1132351  -0.2041996   0.1185309
   0.2976591   0.8081215   1.0163738  -1.7290767  -0.5509421  -0.9948284
  -0.0747155   0.1675968   0.0679404  -0.1220456  -1.8279464   0.1701708
  -0.9674453  -0.4917098  -0.0958746  -0.1989540  -0.0077893   0.1649394
  -1.3309393  -0.4769597  -1.8512093   0.0731081  -0.8458800   0.0757586
   0.0365871   0.1583122   0.2780924   0.4886395   1.2132853   0.5169292
   0.6765595  -1.3521995  -0.0296642   0.5010592  -0.1036570  -0.0328038
  -1.2470370   1.6701531   0.1636599   0.0963763   0.3563208  -0.2619683
   0.5161627   0.1861375   0.0492664  -0.1223874   0.8148864   0.3066996
  -0.3110608  -0.2432951  -0.6435249   0.0067684  -0.1999915  -0.3155568
  -0.7819646   0.5784106   0.6022949  -0.6702469   0.6596129  -0.7049024
   0.2589235   0.2057933   0.2199111  -0.0929301   1.2114958   0.6386153
   1.0837066   1.1304968   0.4863013   0.0974048  -0.3399862   0.0105618
  -1.6015420   1.1234211  -0.6382373   0.8799215   1.6149090  -1.0794989
  -0.0476443  -0.0369559  -0.1359291   0.1792865  -0.5370139  -0.5327035
   0.3088097   0.6846112  -0.3601966   0.1374689  -0.0593630   0.1407085
   0.0451428   1.4897179   0.1532490   0.3610092  -0.3139368  -0.8400289
   0.2325092   0.1534112   0.0017234   1.2769211   1.2876208   0.4157919
  -1.0255093  -0.1740182   0.6680693   0.1195949  -0.0630272   0.1373050
  -0.4925046  -0.6779977  -0.1277015  -1.0285981   1.4713462  -0.4321948
  -0.0078049  -0.0853453   0.0281171   0.7023492   1.6085545   1.5466083
  -0.4003922   0.8631858  -1.6291962   0.0200445  -0.1360398   0.2029034
  -0.6148087   0.5232769  -0.6985089  -0.1918801   0.4612726   0.5387328
  -0.2556160  -0.1072132   0.2220379  -1.1419639   0.6798476   0.2452565
   0.4332141   0.5885096  -1.1336864  -0.1092170   0.0948980  -0.0687800
   0.3412135   1.3927872   0.5135498   0.0708194  -0.3091884   0.6355825
   0.0001047   0.1957902   0.2163957   0.0728983   0.4751186  -0.4676760
  -0.1371475  -0.3718967  -0.9005486  -0.0540867  -0.2135044  -0.1684719
   1.4733429  -0.9334169   0.8825508  -1.2099861   0.3691006  -1.3045536
   0.0447234   0.2405173  -0.0161247   1.2909135   0.9979147   0.8782210
   0.0060193  -0.0936604   0.5556527  -0.3312452  -0.0283674  -0.1562514
   0.2829695   0.1415452  -0.1004610   0.5287270   0.4913679  -1.9737225
  -0.1574902   0.3259975  -0.1135564   0.3672979  -0.5931840  -0.3249151
   0.5079821   0.6330602   0.5605711   0.0104512   0.3011856  -0.1033101
  -1.0452266   0.1164792   0.7497531   0.2628996  -0.4200904  -0.7637653
  -0.0774025   0.0133783  -0.2945108  -0.4353084   0.5541592  -0.8741397
   0.4919825   0.1126723   0.4130116  -0.1074688   0.1154737   0.0262544
   0.8734685  -1.0310334  -0.5607929   0.3388522  -0.1846430   0.9726511
  -0.2932876   0.0814289   0.0450390  -0.8356621  -1.1393041   0.2125397
  -0.0021424   0.0021162   0.4555462   0.0960616   0.3695332   0.1854060
  -1.3990557   0.2470736  -0.5974826   0.3315407  -1.2429147  -0.2187053
  -0.0365964  -0.3419128   0.3277877   1.1808122  -0.1391378  -1.0922870
   0.2718057   0.1064095   0.4532102   0.0894432  -0.1418059  -0.0518831
   0.4613977   0.8572239  -0.2247284  -1.4331854   1.1036717  -2.1966233
   0.2039789   0.3691039   0.2360922  -1.0661641  -0.1883808   1.9084631
   1.8183032   1.2339038   0.5367836   0.0374371  -0.2120158   0.0604963
   0.8072995  -0.3950426  -0.6408275   0.7202797  -0.5739245   0.9905990
  -0.1310978  -0.2573834  -0.0128381   0.1265057  -0.0246489  -0.1814234
   0.8331275   0.0074841   1.0863868   0.0156389  -0.1988418   0.0908703
  -0.5343742   1.7785649  -0.1701363   0.6294245  -0.7349951  -0.4368924
   0.3364839  -0.0178776   0.1283713  -0.7670545  -0.0032231  -1.6964396
  -0.7410580  -0.3768654   0.0061024   0.0206567  -0.2242607  -0.0504348
  -0.6817844   1.1538862   0.2105100   0.6045795  -0.5042747  -0.3293875
   0.1582470   0.4500607  -0.2519590  -0.3529220  -1.8447395   1.1660952
   0.0656832   0.5384039  -0.0892171   0.1678613  -0.2239417  -0.1683733
  -0.9303969   0.8910642   1.9859319  -1.4194228  -0.5870213   1.3139477
  -0.2639722  -0.3907335  -0.1132450   0.5157277   0.4467392   0.7459261
   0.1612795   0.8416925   0.5042103  -0.2278949   0.0140934   0.1401438
   0.8446361  -0.2728817  -0.1418649   1.5911744   1.6988309  -0.5514930
   0.0446261  -0.4935170  -0.0866313   0.3571928  -0.0964789   0.7496709
  -0.8071322  -0.3026974  -1.8846674  -0.0562563   0.0324233   0.1199557
  -0.0548569   0.1989656  -0.3788322  -0.1649377   1.8100883   0.4597052
   0.1045591  -0.1727177   0.1531407  -0.5523364  -1.5986951  -1.2788148
   0.4790815  -1.4879841   0.0933039  -0.3989560   0.0840883   0.0007148
   0.2033137   1.0099647   0.1435253   0.2999316   0.5418570  -0.4703524
  -0.0348649   0.2928949  -0.1068226   0.4774951   1.1364148  -0.0877568
   0.1002085  -0.7841560  -0.5075040   0.3447443  -0.0914026   0.0556765
  -0.6783283  -0.6772558  -0.3205899   0.0211597   0.6799794   0.8382496
   0.1410002   0.0900163   0.5407355  -0.3608030   0.0689962   0.3407182
  -0.6844536   0.8383324   0.8475333   0.3835753  -0.1659661  -0.2311962
  -0.6558583  -0.7212606   0.5640414  -0.7380182  -1.0602256  -2.0615419
   0.1794572   0.2157447  -0.1438785   0.9111384   0.9209531  -0.3134874
  -0.5541648  -0.6476797   0.0402831   0.0606700  -0.0730748  -0.0755848
   1.2036565   0.2050095  -1.6996652  -0.1232908  -1.1962926  -1.3523959
   0.1410052   0.0233774   0.1152185  -0.5677414   0.9823485  -0.0178757
   0.7056947  -0.2485706   0.5908679   0.1558468  -0.1984990   0.0459749
   0.9396711   0.1605520   0.4832437   1.1344860   0.6954721   0.0710086
  -0.1326000  -0.1651038  -0.0439577  -2.1839288   0.0385094  -0.0978803
   1.3833827   0.7702145   0.6047577   0.1768899   0.2246673  -0.0044217
   1.3409373   0.9552626  -1.0075896   0.3687308  -0.7128244   0.4559279
  -0.0947992   0.0432459  -0.0963274   1.1971794   0.4730893   0.3689919
   0.2850992   0.2356291   0.7906724  -0.3364486  -0.0652747  -0.1401007
   0.2997581   0.2303483  -1.1666830   0.2611428   0.6187896  -0.0218079
   0.1365934   0.0222546  -0.1034750   0.7907456  -0.4383059  -0.5536671
   0.4698509  -0.4492169   0.1949509  -0.0396225  -0.1496745   0.4518386
   0.9578836  -0.5125546   0.1000308   0.6806455  -0.5142403   0.6238609
  -0.2204675  -0.0581125   0.0760815   0.6935312  -0.1227318   0.9440363
   0.9748022  -0.0781342  -0.8628784   0.0965620  -0.5003658   0.0362543
   1.4725109  -0.7681346  -0.0965803  -1.1069532  -0.0272292   0.7026780
  -0.2264980   0.1452048  -0.0717224  -0.0007956   0.2915197  -0.1886570
   0.8341138  -0.3016975  -2.3861060  -0.0632436   0.3470533  -0.1403006
   0.3703539   0.7553940  -1.5877511  -0.6990962  -1.1950240   1.4639386
  -0.1893761   0.1807274   0.1243818   0.8464047  -0.0578049  -0.4544273
   0.9462979   1.6585750   0.3808746   0.0261060   0.1565578   0.2908616
  -0.2729670   0.1895358  -0.2062818  -1.0025066  -0.2616698   0.8103869
   0.1696481   0.0686898  -0.0053008   0.4066162  -0.8977017   0.5748431
   0.2548466   0.6262593  -0.1356959  -0.1114281   0.1362371  -0.1009442
  -0.0197147  -0.3148924  -0.4699973  -0.6644893   0.8840604   0.9242073
  -0.2863292  -0.2355624  -0.0014541   0.6784333  -0.5844070  -0.1813443
   1.1761484  -0.2250691  -0.1783673  -0.0506399  -0.0241419   0.0182889
  -0.8984525   0.1739146  -2.0954939   0.0404105   0.5346553   0.3459387
  -0.0285764   0.3580577   0.1077474   0.5558168  -0.5745401   0.9884795
  -0.8103592  -0.0460845  -0.6460982   0.2509257  -0.2004497   0.1304998
   0.3230829   1.4817850  -0.2357966   1.2192604  -0.8391222  -0.5616112
   0.0170049   0.0634870  -0.2596513   0.6080496  -0.6247358   0.2020687
  -0.2907829   0.3336734   0.4001552   0.1191309  -0.0685498  -0.0472407
  -0.9402932   1.0180273  -0.7095281  -1.0157354   0.3932381   0.1672568
  -0.0321668   0.1850700  -0.1283584   0.6071347  -0.6927905   1.0968680
  -0.8633455   0.0150001   0.3265508   0.2292725  -0.2606704  -0.0467262
   1.0116283   0.1129205  -0.3669731  -2.1645117   0.5404077   0.9269939
   0.0586970   0.2696427   0.1693221  -0.6598632  -1.3262896   0.3113160
  -1.5939835   0.0961335  -0.9680987   0.0629415  -0.1189564  -0.1537644
   0.0480092   0.6263413  -1.0622280  -0.2831522  -0.0464896   0.8104850
   0.0040682   0.0704133   0.0692225  -1.0957356   0.6651915   0.6215960
   0.3414063   0.2561525  -0.1822514  -0.0042522   0.2660964  -0.0493420
   0.1192989   1.1637156   0.4432145   0.4417291   0.6791136  -0.7817863
  -0.1820997  -0.2107939   0.0837631  -0.9786201  -0.6964700  -1.2933429
   2.0412932   0.6903868   0.6126285  -0.1192615   0.1735278   0.4890084
  -0.6748783   1.2598822   1.6704112   1.1853879   0.4008640  -0.7906049
   0.1398944  -0.1103242  -0.1744792   0.2433510   0.2700697  -0.8274807
  -0.0977444   0.7927526  -0.6777533  -0.0038258  -0.0317244   0.0807988
  -0.0508248   1.1855766  -0.4329282   0.0371240  -0.9623374   0.3532372
   0.1500164  -0.1087012   0.0452580   0.1775792   1.2524048   0.5679538
   0.1489898   0.0838052   0.6395719  -0.0024983  -0.1201422  -0.2143462
  -0.5262863   1.0710844   1.4908269  -0.2369520   0.9549751  -0.5362609
  -0.2047713   0.2679694  -0.0127968   0.9910097   1.6900269  -0.9567646
  -1.3538948   0.4101906   0.1812491   0.1757149  -0.3070862  -0.2725465
  -1.9357348  -1.0172647   0.3468549  -0.8830145   1.0893276  -0.2488836
  -0.2693690   0.2660668   0.1895148   0.0335924  -0.2316133   0.3367018
  -0.3170667  -0.0035673   0.9479466   0.0858544   0.1256830  -0.4172820
   1.8244075  -0.0065182  -0.7017838   0.7183731  -0.0857784  -1.0689896
  -0.1294249   0.4498306  -0.1866764  -0.2418679  -0.2562879   0.3094387
   0.8330841   0.6153689  -0.0582429  -0.1747492  -0.1736527   0.1559140
  -0.4328661  -0.0864413  -0.8098640   0.2314740  -0.1658936   0.3395602
   0.1518207  -0.0090392  -0.0584964  -0.1633682  -0.9735730  -0.0593153
   0.0073861   0.3611236  -0.6973921  -0.1809455  -0.2468468  -0.0742968
  -1.3137728  -0.4685878   0.7137037  -0.5382615   0.0423505   1.0816710
  -0.1470580  -0.0904754   0.0574930   0.4269926   0.2274131  -1.0788781
   0.9881545  -0.0565830   0.3033629   0.1106534   0.2651024   0.1424402
  -0.4957960  -1.0232019   0.7592353   0.5247418   1.4394709  -0.1042302
  -0.1159705  -0.0136498  -0.1444488   0.8243713  -1.9212161  -1.1024911
   1.0366112  -0.1331522   0.6581644   0.0179902  -0.1419567  -0.1830180
  -0.4378044  -0.5828957   0.1137107  -0.8560004  -0.5111168   0.7309844
  -0.1413632  -0.0448318   0.2673219  -0.2057210   0.7274989   0.3420271
  -1.4274900  -0.4506692   0.4429736   0.2707567  -0.0458696  -0.2695194
   0.9283071   0.2767742   0.4511453   0.2177815  -1.4656088   1.0527554
   0.0852373   0.1699195   0.2016381   0.4658828  -0.3664954   0.9108990
  -0.6154119  -0.0153597  -1.0270670  -0.0966806  -0.2155434   0.1310933
  -0.3086682  -0.3425043   0.9903976  -0.4163762   1.2035252   0.9912360
  -0.0747582  -0.1530508   0.2012773  -0.5400391  -0.0769248  -0.6321296
  -1.3906235   0.3298509   1.2263301   0.1011661  -0.3265419  -0.2342987
  -0.1360791  -0.7911140  -0.7091130   0.4535099   0.0158555  -0.5841547
  -0.0930891   0.2908736  -0.0985704  -0.7182041  -0.7499895  -0.2238782
   0.2145019  -0.0064927   0.5518352  -0.1031270  -0.3206335   0.1632283
  -0.9359164  -0.8800535   0.7005816   0.2910564   1.1559500   1.0135090
   0.0466181  -0.0022838   0.2490881  -1.4690610  -0.4298385  -0.9829066
  -0.2794775   0.0527003  -0.2883441   0.2855666  -0.0120123  -0.4674611
  -2.2239564   0.0934881  -0.6805691  -0.7927361  -0.1332007  -1.3148058
  -0.0239567  -0.0882643   0.1662021  -1.0930849   1.3329359   0.9251608
  -0.8497917   1.8997506   0.5260763   0.1296352   0.2385040  -0.2519772
  -0.1037368   0.7708119   0.6412356  -1.4360522   0.2135861  -0.5223038
   0.0126800   0.0145997   0.1599957  -0.0716798  -0.0047280   0.4798579
  -0.3311929  -0.6376947  -0.8348068  -0.0869474  -0.0928593   0.0799830
   0.4048572   0.9629397   0.5561200   0.7618653   0.4895586  -0.6473973
   0.1157965  -0.2590764   0.0627014  -1.0396914  -0.8089221  -0.2384578
   0.4744086   0.0254728   0.8725471   0.0843622   0.0002853   0.2162248
   0.6176657  -0.0736946   0.3850363  -0.6472091   0.5865228  -0.4567708
   0.1793119  -0.0677044  -0.1708925   0.3735625   0.5846412   0.4904573
   0.4849367   0.8917068   0.0185058   0.1432756   0.1055888   0.0038450
  -0.0748324   0.2664087  -0.2296384   0.6767355   0.5731549  -0.6395709
  -0.1017490  -0.2825882  -0.3481113   1.1300578   0.2976837  -0.6740075
   0.7229767   0.2125965  -0.4104149  -0.2346586   0.1106623   0.0419556
  -0.2790160   1.1350565  -0.3061924  -0.2572538  -0.6921061  -1.2370257
   0.0290129  -0.2581014  -0.0786990   0.5152119   1.4324104  -0.0130946
   0.4966950  -1.1766592  -0.6266820   0.1035963   0.0355410   0.1030873
  -0.1893953   0.8554954   0.8157581   0.2261063   0.4446449  -0.7726595
   0.1709869   0.0617538  -0.1477428  -0.0332482  -1.6924271  -0.2338840
  -1.3158498   0.3023038   1.3734066   0.1723945  -0.0593959   0.1358740
  -0.2830520   0.1063810  -0.4072186  -0.6643635   0.1751424  -0.0486759
   0.2589905   0.0367920  -0.1594588   0.7430260   1.1183255  -0.8056288
   0.0229069  -0.5926270   0.4447493  -0.1018899   0.3155124   0.1022072
  -0.3330695   0.5576321   0.2014825  -0.0978453   0.7000617   0.1477476
  -0.2728685  -0.0646051  -0.1467123  -0.4380439  -0.4298915  -0.1052239
  -0.5170257  -0.3725594   0.0763398  -0.0610199   0.3492278  -0.1111224
   1.2358384   0.6618351   0.4364528  -0.0960645  -0.3872408   0.5807742
   0.2983853  -0.1832878  -0.0845081   0.9058403  -0.7370152  -0.0353738
  -0.6065055  -0.7653357  -0.5314797  -0.1319193   0.0161287  -0.0300215
  -0.7208081  -1.0074837   0.8182036  -0.1894434  -0.5200974   0.8404190
   0.1203012  -0.2637258  -0.2918683  -0.1972023  -0.1462430   0.1557218
  -0.6801252   0.7878218   0.1535305   0.2380509  -0.3479231   0.1035661
  -0.5212814   0.6950549  -0.3560352  -0.3143824  -1.8113115   0.1013920
   0.3144681  -0.1382829   0.1064355   0.3200811  -0.7488199  -0.0393665
  -0.6478919   1.4180125  -1.5161997  -0.2608877   0.2353253  -0.2824401
   1.2365313   0.9970926  -0.1087862  -0.5567631   0.5269916   0.1137363
   0.0306631   0.0561699  -0.0273821  -0.8794255  -0.3031716  -0.2164102
  -0.0585174   0.1890289   0.0606991   0.2449211   0.1332730   0.1047584
  -0.1783668  -0.4516403   0.2453986  -1.4065293   0.2681693   0.3597828
   0.0108553   0.1019323   0.1150809  -0.3871786  -1.2817838   0.1351969
  -0.7822931  -0.3051052   0.2655681  -0.2045671   0.1837934  -0.1827272
   0.1574381  -1.6766854   1.4441372   0.4168727   0.8120959   0.9072337
  -0.2005654  -0.1410674  -0.0737495   1.7885273  -0.1474933  -0.8404232
  -2.0513380  -0.1672278   0.3572895   0.1290695  -0.0622492   0.2698923
  -0.3131369   1.3764418   0.1178221   0.3065337   0.4691663   0.8196310
  -0.0081703  -0.1045277  -0.0844504  -0.3936864  -0.3920769   0.1141792
  -1.3183680  -1.5579269   1.2878975   0.0505911  -0.1118530   0.4145456
  -0.7817662  -0.3250482   0.5666308  -1.6450506   0.4333930   1.3472201
  -0.1531176  -0.3698633   0.1439753  -0.0421707  -1.0118704  -0.3150470
   0.1185538   0.1074669   0.1829071  -0.0554876  -0.0651637   0.0630750
   0.5988761  -0.8094736  -0.8488542   0.3591203  -0.7137042   0.1520874
  -0.1896283  -0.2989674   0.0795910  -0.9336552  -0.4086063   0.0722240
  -0.2432304  -1.3631363  -0.9467432  -0.0749606  -0.1757441   0.1994221
  -0.6631829   0.6515708  -0.8296006   0.7816161  -0.2642628   0.0661421
  -0.2347217   0.3074138   0.0873658   0.0823282   0.0585168   0.2588980
  -0.0956690  -0.4168515  -0.0629869  -0.1264160   0.1455362  -0.2878019
  -0.8562894  -0.2534336  -1.1243883  -1.1590791  -0.2588054   0.7535954
  -0.1932288  -0.2125571   0.3251101   0.8517921  -0.0674102   0.8448795
  -0.6549794  -0.0386200   0.8184698   0.1396456   0.4988633   0.0810153
  -0.3709363  -0.1455171  -0.8010537  -1.5330681  -0.3758744   0.3850570
   0.1529118   0.4081544   0.0299446   1.5570112   0.5576023  -0.2502929
  -0.2039923   0.1192292   0.6377980   0.0236892   0.0945082   0.0177054
   0.0842791  -1.6355236  -0.5925710   0.2650331  -0.3862291  -1.8647512
   0.2864940   0.1762213  -0.0263552   0.3700868   0.8750937   0.4110785
  -1.0463761  -0.6147247   0.1075916   0.1297635   0.2800199  -0.1294976
   0.5849574  -0.3479515  -0.4120194  -0.4665314  -0.0140678   1.0054870
   0.1920250  -0.1169184   0.2662494  -0.6334425   0.1065327  -0.9459182
  -0.2122470   0.2253748  -0.7268676  -0.0459585  -0.2408113  -0.1268227
   0.2540193  -0.3566326   1.1283590   0.3564617  -0.6348493  -0.4548173
   0.0228397   0.3448584   0.4272426   0.9343483  -0.0808607   0.2987774
  -0.6862293  -0.1924002  -1.1945228  -0.1492491   0.0725080   0.1361758
   0.0800770   0.1148807   0.9381421   0.3592354   0.1432410   0.0675873
   0.0076910   0.0021514  -0.1026495   0.3593717  -0.1463314  -0.2722047
  -0.5437000  -1.8747750   2.2230048   0.1811338   0.1090072   0.0002905
   2.1647924   0.5645969   0.1123962   0.2271661   0.4488003  -0.2682788
   0.0511107  -0.2804408  -0.2260077  -0.2722809   0.5773250   0.3778690
   0.2619741  -0.5006363   0.5182229  -0.0335898  -0.1509433  -0.1977747
  -0.0171150  -0.9319387   0.2112573   0.4355207  -0.3919023   1.1341781
   0.0016339   0.1595874  -0.1193425  -0.5433611  -1.4086654   0.1694809
  -0.3427447  -0.1868146  -0.5688358   0.0521567  -0.1050273   0.0131033
  -0.9840962   0.6487062  -0.2652406   1.1061110   0.5699768   0.3829158
  -0.2646209  -0.2211542  -0.2507851  -0.5970029   1.2806660  -1.1028484
  -0.1841416   0.4622698  -0.5696025  -0.0565634  -0.1761762   0.3149642
   0.0240192   0.0850992   0.2294358  -1.4805758   0.2273502  -0.5047960
   0.1141543   0.2048872   0.0572685   0.1728520   0.7010922  -0.3429877
  -1.0621218   0.4253887  -0.8281461   0.2251639   0.1147612   0.1476467
   0.5506022  -0.8948669   1.3156365  -0.4162928   0.9102727   0.5562621
  -0.0079160   0.2137847   0.1890853  -1.5077251   1.0302388   1.3635560
   0.4583199  -0.5060467  -0.5212523   0.1600659   0.2038555   0.3345596
   0.4247844  -0.7170832  -0.1020930  -0.4071143   0.3757642   0.9808396
   0.0418710   0.3680396   0.1369439   0.3448812   2.0395835   0.2400515
   0.0936091  -2.0425720  -0.1548347  -0.0931358   0.0798981   0.0462163
   0.0716785  -0.2299781   0.7921637  -0.3292244  -0.7725861  -0.5174612
   0.0073826  -0.6364814  -0.1331081  -0.2929271   0.8119851  -1.1031334
  -0.0487680  -0.3708429   0.2926084  -0.0159261   0.0124776  -0.1561215
   1.0607984  -0.1407136  -0.6251286  -0.6579733  -0.0930330   1.8669300
  -0.0096301   0.1055126   0.0372710   0.2999891   1.2214200   0.2940078
   0.9678782  -0.3634705  -0.0991469  -0.1534315   0.0760620   0.1486249
   0.6603912   0.1662235  -0.5869045  -0.5763229   0.8712579  -0.7592226
  -0.0994537   0.1498758   0.0957261  -0.0490935   0.8969789  -0.2931799
   0.3769460   0.1094294  -0.2934388  -0.2793856   0.2508690  -0.2920360
   0.1481555   0.0609065   0.3108146   0.0129827  -0.2419521   0.3116694
  -0.3792952  -0.0924082   0.0829618   0.4055583  -0.1924240   0.0203802
   0.7423211  -0.9315130  -1.1073371   0.1497460   0.2140607  -0.0890701
   0.5379155   1.3984659   0.8488192   0.2244967   0.9358788  -0.2979073
  -0.3038861   0.0480914  -0.0627621  -0.4254130   0.8933834  -0.4468855
  -0.8790724  -0.0941881   0.2895476   0.0373445  -0.0780009   0.1856836
  -0.5405413   0.1480901   0.1950989  -0.1943721  -0.3424996  -0.3081981
  -0.1782823   0.1260393  -0.1374816   0.4848409  -0.0212368   1.2161218
  -0.3105042  -0.3043342   0.4681899  -0.3732662   0.0819399   0.0899747
  -0.6861279  -0.3777634  -0.4933590  -0.4516338  -0.1792626   0.5790448
   0.1221911   0.1747906   0.1089424   1.0754430   1.5478631   0.0248173
  -0.0118991  -0.4897634   0.7791046  -0.0114804   0.2122279  -0.1569387
   0.0144107   0.4307215  -0.9325482   0.7790084   1.5632864  -0.1088569
   0.1254697   0.1508773   0.1829606  -0.6294181   0.2698895   1.0490571
   0.0156327   0.8422273  -1.0216774  -0.0072038   0.0718291   0.2214264
  -0.9217935  -0.8577135   0.1122145   0.7844773   0.0463711  -0.9128910
   0.0565043  -0.0375845   0.1214533  -0.6717225   0.3832961  -0.6700357
   1.7326475   0.4650835   0.5444281  -0.0201754  -0.1166399   0.1804634
  -0.6758783  -2.5191856  -0.0176621   0.0765047   0.5071013  -0.2151562
  -0.0835679  -0.0108592   0.3929132   0.8885091  -0.4532804  -0.7296540
   0.5931435  -0.8945982   0.8650868  -0.0162043  -0.2340553  -0.1693722
  -1.2819167  -0.5547539  -0.9072520   0.2793584   0.2904999   1.2343928
   0.2012908  -0.0995395  -0.2474889   0.1020377  -0.4502151  -0.4642750
   0.3467014   0.3376500   0.0968245  -0.1453280  -0.0450650  -0.0318375
  -1.7418102   0.3749670  -1.5854964   0.1416951  -0.0155732   0.4709308
  -0.2256128   0.1010462  -0.2664231   0.4363752   0.8732396  -0.2545646
  -0.5508783   0.0252097  -0.0195774  -0.3076213  -0.1920191  -0.0397980
  -0.7535124  -0.0176501   0.6051822   0.5636628   0.1804961  -0.5406312
   0.0615894   0.1101380   0.3278379   0.4317438   0.4387724   0.2349687
   1.2228726  -0.2407624   0.1717531   0.1000499  -0.2727838  -0.1684656
  -0.9430989   0.1390863   0.3414703   0.1188524  -0.7987529  -0.6789031
  -0.1737864   0.0135434   0.1426804   1.3628410  -0.6082196  -0.7232100
  -0.8699330  -0.1775764  -1.3414914   0.1171856  -0.1162656  -0.0839285
   0.4562621  -0.7578704  -0.8584917   0.4859485   0.4020054   0.4194115
   0.1112231   0.1987609  -0.1868025  -0.7153906  -0.0683148  -0.6083842
  -0.4088353  -0.3677648  -0.2037384   0.2164680  -0.1795807  -0.0593564
   0.7337297   0.9621422  -0.2546281   0.0447605  -1.5892236  -0.5726901
  -0.0006115  -0.4648125   0.1874298   1.0152007   0.3137477  -1.2963885
   0.9215014  -0.3659457  -0.0924940  -0.0665860  -0.3388552  -0.3714398
   0.3997476   0.7511979  -1.1486327  -0.4630186   0.2976040  -0.6195670
  -0.2039019  -0.0676687  -0.0056727   0.3739277  -1.0851626  -0.3509962
   0.3098500  -0.5629345  -0.0968182  -0.0550660  -0.1542022   0.0992603
  -0.8152191  -0.5515143  -0.4486710  -0.3884185  -0.4155673   0.4065742
   0.1506290   0.2992358  -0.0276682  -0.0889791   0.6929050  -0.7277548
  -0.3012400  -1.3671752   0.4118865  -0.3368425   0.1065048   0.0354692
   0.3402776  -0.0092190  -0.0281374  -0.4050456   1.1267676  -0.5221287
  -0.3084837  -0.3439237  -0.3586476   0.2329863  -1.4571068   1.1348701
  -0.1740265   0.0966568  -0.3111685  -0.4141261  -0.2969980   0.1155129
  -0.3442894  -0.5019226   0.2473179   0.4906956   0.4881900  -0.1926889
   0.1377383  -0.0629333  -0.0448754  -0.7702910   0.9816646   1.1158932
   1.2803634  -0.4749696  -1.1305158  -0.1105753  -0.1095400  -0.3220175
  -0.9629627   0.5387281  -0.8440437   0.0617116  -0.1980417  -0.4498539
  -0.1702787   0.1604278  -0.3039548  -0.3423863  -1.0182341   0.4795401
   0.2237335   0.3804346  -0.2907164  -0.1079539   0.0409935  -0.3150948
  -0.8452875  -0.4401217  -1.2843758   0.4482350  -2.0940398  -0.4242233
  -0.1802019   0.0412547   0.2544601  -1.7244780   1.1379671   0.9155435
   0.3271952  -0.2521691  -0.4335137   0.1794300  -0.1740044   0.2565279
  -1.0501439  -0.9416760  -0.9417485  -0.1337432   0.4912579   0.2348098
   0.0383207  -0.1196533  -0.1941548   1.4460267  -0.6895000   0.6405419
   0.5322257  -0.8636662  -0.0931950  -0.3172339  -0.1748114   0.0910015
  -0.0685613  -1.1857843   0.1754874   0.6085580  -0.8536951   0.7495685
  -0.1005878  -0.2874384  -0.2902478  -1.0169486   1.2003167   0.7120355
  -0.4776041   1.1943440  -0.8839561  -0.2812162  -0.0989042   0.2540462
  -0.9832836   0.4813648   1.1063079  -1.1878911   0.2288115  -1.4383004
   0.1635655   0.1190163  -0.2257351  -0.0850124   1.5980947   0.6757756
  -0.6219794  -0.5684122  -1.3283660  -0.4749441  -0.0353974   0.1124386
  -1.2255640   0.9863520   0.7793056  -0.8603340  -0.6905486   0.2357666
   0.3618056  -0.0752839  -0.0206851   0.0853356  -0.2011670   0.3160174
   0.2462678  -0.6454472  -0.0414054   0.0243603   0.1274771  -0.0680258
   0.7593913  -0.5752027  -0.2715101   0.3425636   1.3095232  -0.3897291
   0.1454649  -0.2715827   0.0530801  -0.1261295   1.1566603  -0.5888027
  -0.2721101  -0.4417949  -0.6190381  -0.0239588  -0.0835936   0.3252568
  -0.5566384  -0.6449485   2.0934267  -1.4411618  -0.7094883  -0.5450856
   0.0868781  -0.1696723   0.0382407   0.5085076  -0.8504004   0.2128757
  -0.6986201  -0.7147395   0.8933305  -0.3059129  -0.0264472  -0.0065224
  -1.0489658  -0.0249770  -0.6957758  -0.3996433   0.2508276   1.2385654
  -0.2470943   0.2811782   0.0205763  -0.0798219   0.8858870   2.4189384
   0.3118232  -1.0866089   2.3811688   0.0952552   0.0710419   0.3018769
  -0.8425267  -1.1442685  -1.1351956   0.5026761  -0.8589140  -0.0029966
  -0.2243357  -0.1219995   0.3987860  -0.1258027  -0.9782155   0.4318825
   1.1561315  -0.1666709  -1.9363949   0.0446961   0.3460483   0.0530506
  -0.9101823  -0.7853727   0.7709639  -0.9798490   0.6114981  -0.1051147
  -0.0018829   0.0882590  -0.0788778  -0.4416312   0.7478612  -0.3645168
  -0.1393307   0.2863599   0.3490433  -0.1943938  -0.2801281  -0.2130912
  -0.1271126  -0.9722911  -0.3654260  -0.6652789  -0.9266573   1.0791848
   0.1277651  -0.2833340   0.0682995   0.6936948  -0.4583507   0.4275386
   0.2780246   0.2819370  -0.8491876   0.2307608  -0.1924162  -0.1162981
   1.0903436  -0.4963906   0.7739113   0.9177530  -0.3515397  -0.8663557
  -0.1362651  -0.0419855   0.5445204  -1.0132598  -0.1167302   0.3328589
   0.1316300   0.2955997  -0.3520951  -0.1274784  -0.0958929  -0.0225454
  -0.9420843  -0.1083305  -0.7839843  -0.1683337   0.9699223   0.0575122
  -0.0403333   0.0453494  -0.0699371  -0.6084265  -0.5049805  -0.2547132
   0.7162861  -0.1087666   0.2858321   0.2441645   0.1405516   0.0558053
   0.6073269   0.3343497  -1.0900998  -0.4579858   0.0318692   1.9632037
  -0.1341153  -0.2628410   0.0014917   0.9161217   0.6769569  -0.8148064
  -1.7786408   0.5442181   0.1102390  -0.1182753  -0.0289781   0.2477706
  -0.4405030   0.3424453   1.0649118  -0.4401381  -0.7926793  -0.5198223
  -0.0546589   0.2858231   0.2283175  -1.3284831  -0.1698608  -0.5093201
  -0.3843153  -0.5870142  -0.4279077  -0.2597324   0.2077317  -0.2493658
  -0.9049879   0.2753517  -0.6869894  -0.4421558   1.1241482  -0.0257109
   0.1315741  -0.0186902  -0.1460046  -1.3085304  -1.1963241   0.9437151
  -0.3509218   0.2717983   0.3980285   0.2389573  -0.0014514  -0.5825239
   0.1181689   0.8049029  -0.0198351  -0.8345669   0.2369748  -0.3568667
   0.2997983  -0.0253659  -0.0211012  -0.9508493   0.2158408  -1.1348319
  -0.4777193  -0.3473619   0.5789838   0.0474497   0.1354842  -0.0175147
   0.1759355  -1.1981476  -0.4955986   0.0739206  -1.0479732   0.5821962
  -0.4088149   0.0151489   0.0709788   0.7162485   1.5565898   1.2049266
  -0.3984325   0.5157687   0.2237584   0.2469729  -0.1094641  -0.0716473
  -0.6097549   0.5059486   0.2707310   0.2852237  -0.6134109   0.1608840
   0.0991305   0.2025176   0.0920939   0.1249352   0.5875779  -1.1660416
  -0.2143476   0.0674305  -0.4949739   0.0452322   0.0419201   0.0861241
  -0.4078017   0.4817765  -0.0233292   1.3877001  -0.2320363   0.8824318
   0.2765870  -0.0371640   0.2759937  -0.3282544   0.4782442   0.0200437
   1.9325398   0.4443344   1.1359181   0.0993011  -0.1019641   0.0806639
  -0.1524137  -0.3835135   0.2152297  -0.9724741   1.2579481  -1.0122095
  -0.2047552   0.1326827   0.1654539  -0.1657803   1.3852599   0.7429905
  -0.1323947   1.5216864   0.2545691  -0.0144704  -0.1118535  -0.2568036
  -0.2709075  -0.1807146  -0.0950004  -0.0825031  -0.8507080  -0.6836303
   0.0126306   0.0780806  -0.0452708   0.5002232  -0.0300172  -0.6005962
  -0.8685014  -0.5891016  -0.6118579   0.0680393   0.1838807  -0.1320630
  -0.1872314   0.0873510   0.3686747   0.1808559  -0.5241987  -0.7699517
   0.2073317   0.0562144  -0.1443100   0.9073524  -0.4112052   0.6763465
   0.2408408   0.2707778  -1.8690132  -0.0281823  -0.0176952  -0.0842368
   0.6488903   0.0954528  -0.9382297  -1.0051740  -0.9977023   0.8012807
  -0.0223708   0.3981501  -0.2046530  -0.3082202  -0.0874560  -0.6581089
  -0.1578335   0.3470957   1.1596958  -0.1247429   0.0451351  -0.1176440
  -0.5623267  -0.2653635   0.1298401  -0.7776313   0.1389868   0.1297315
   0.0041753  -0.0861742   0.2389937   0.2894213  -0.1295675   0.4685041
  -0.6297120   0.4950583  -0.9312058  -0.1814990  -0.1688584  -0.1314869
   0.1703781  -1.0391320   0.1934013  -0.7045606   0.3622331  -0.3992935
  -0.1871958   0.0217269   0.1588305  -0.3771734   0.6680683   0.1849697
  -0.0417722  -0.9069686   0.1987205   0.3096275   0.0162468   0.3580666
   0.5747868   0.1001888   2.0014353   0.6113333  -0.4156177   0.0426913
  -0.2479502  -0.2536217  -0.0369138  -1.7886605  -0.0927455   0.3103325
  -0.0750248   0.8113033  -1.5180686   0.0727632   0.2774146   0.0397890
   0.6054138   0.5912323   0.4213982   1.3708393  -0.2565159  -1.0533017
  -0.1643692  -0.0370437  -0.0111016  -0.4651467   0.1930809   0.7324723
  -0.8600735  -0.5068749  -0.4070361   0.0187202  -0.1273191  -0.1213812
  -0.6584129   0.0874104  -1.2564438  -0.8185787  -0.6121396   0.9244316
   0.1874111   0.3170738  -0.2889532  -0.9961531   0.1900502   0.0749786
   0.1887792   0.2411475  -0.7087660  -0.0638501   0.0012635   0.3588418
  -2.2192483   0.3861953   0.5264996   0.2385072  -0.7037146  -0.1390196
  -0.0600516   0.5393826  -0.0145488   0.2069908   0.6544057   1.4779224
  -0.0113296  -1.4499643   1.0907535   0.1124425  -0.1381976   0.0576513
   0.4601171   0.5495490   0.3388615   0.6551988  -0.4329156   0.4396685
  -0.1503369  -0.1710862   0.0692274  -0.6672824   0.1321962  -0.8390390
   1.5341830   0.0196323   0.5790294   0.0922701   0.0203324  -0.4933407
   1.6948886  -1.6388054  -0.6162000   0.5177469  -0.4578045   0.6918022
   0.0818939   0.0393924   0.1110754  -0.2540411  -0.7583147  -0.8466802
   0.2168664  -0.1386217  -1.0180410   0.2537316  -0.1295348  -0.3907317
  -0.0829173   0.1685118   0.7623005   0.0652544  -0.1510562   0.6143614
   0.1685851   0.0405746  -0.2664369  -0.3360696   1.1799756   0.4895333
   0.2915749  -0.4318912  -0.3163135   0.1802827  -0.0110117   0.0272111
   1.0598915  -0.7767934  -0.6412195   0.1915408   0.4067036   0.2360978
   0.0855271  -0.1494952   0.0251375   0.2274987  -0.0824000  -0.7648409
   0.1115358   0.3618288  -0.0416720   0.0229661   0.0105104  -0.1079070
   0.4303442  -0.1530424  -0.2583179   1.2286660  -0.0100874  -0.7445032
   0.2286433   0.0628047  -0.0908325  -0.8093990   0.2197255  -0.3645225
   0.4257577  -0.1771266   0.2016953  -0.3347508  -0.2485369  -0.2068491
   0.5418000  -0.2964784  -0.1065274  -0.2840504  -1.2887700   1.7945173
  -0.3229693  -0.1346343   0.2539260  -0.4544487  -0.2680251  -0.8683435
   0.5465273   0.8166585   0.6287890  -0.0006462  -0.1411020   0.0804795
  -1.4859673  -1.5788050  -0.3616113  -1.0887432   0.3243071   1.2287167
   0.1911612   0.1857199  -0.0199875   0.5267135   0.1881019   0.1368856
   0.9489789  -0.9064391   0.0493596  -0.1503648   0.0144917   0.1783441
  -0.1441314   1.4554211   0.4401692  -0.3769906   0.9760811   0.2023464
  -0.0313076  -0.1571237  -0.0284215   1.4073539  -0.1461647   0.1266381
  -0.6597598   0.1118510   1.2411536  -0.2631270  -0.4328194   0.2564386
  -0.5915659  -0.5744657   0.9357577   0.1326676  -0.0389188   0.0931695
  -0.1785999  -0.3210056  -0.0228301  -0.2286598   0.9253494  -0.6752625
   0.9190535  -0.0659502  -0.4503988  -0.3391012  -0.0123781  -0.1766006
  -0.9451286   0.5372579   1.0739077   0.5249126  -0.6954974   0.0382798
  -0.0715842  -0.0138307  -0.0833150   0.6395231   0.1157113  -0.3884637
  -0.4671342  -0.0980202  -0.5264829  -0.1730779   0.3399449   0.0889428
  -0.0901628   0.8152545  -0.3996047  -0.4738570   0.3093405  -0.0352973
   0.4022574   0.4624301   0.2650516  -0.3741038   0.7652966  -0.0701762
   0.3267293  -1.2105071   0.9462741  -0.2126478   0.0978490  -0.0044073
   0.0855405   0.7744554  -0.9914582   0.1727227   0.1245894  -0.8428710
  -0.1867142   0.1512336   0.1399638   1.3923192  -0.4852405  -0.0098264
  -0.0607970  -0.9427654   0.5379632  -0.1417719  -0.3191765  -0.1498308
   1.7565349   0.7240751  -0.6799412  -1.5858177   0.4564384  -0.3938660
   0.1266990   0.3318326   0.0030960  -0.3718834   0.1699390   0.6140976
   0.0791655  -0.7337264  -0.1827993   0.0115076  -0.1009155   0.0092940
   0.1933750  -0.9378207   0.5127079   1.2822478   0.5693438  -0.8591771
   0.0008349  -0.1561056  -0.1210381  -0.2476304   0.7092966  -0.3948784
   0.4760723  -0.6788153  -1.0655593  -0.0450380  -0.1639202   0.0995212
  -1.5713534  -0.0204041  -0.0314108  -0.5464630  -0.6469128  -1.0126138
   0.4234630  -0.3732567  -0.1233024  -0.5630916  -0.8620700   0.3347289
  -0.6394242  -0.1915011  -1.0767707  -0.0444455  -0.1228675  -0.0159926
  -0.4229947   0.2258752   0.4889418   0.1977120  -0.4805029  -1.3969997
  -0.3027886  -0.3285383  -0.1344287   0.7720218  -1.1265332  -0.2161039
   2.1108057   0.1195837   1.6962337   0.5300556  -0.1374797  -0.1075181
  -1.0780983  -0.3918914  -0.5757480   0.1503906   0.4070216   0.0316090
   0.0870425  -0.0031659   0.0297946  -1.3841092   0.4027663   0.9350004
   0.1981932   1.2327188  -0.3511554  -0.1073773  -0.2847835  -0.5481875
   1.9607205   0.2912583  -0.8922565   1.6232811  -1.0232020  -1.2985593
   0.1677196  -0.2709300   0.0436077   0.0874605   0.8289010  -0.7200018
   0.1265837   0.7739318   0.3276433  -0.1977378  -0.0804022  -0.3395843
   0.6105925  -0.2490444  -0.2958217  -0.4821310  -0.5177409  -1.0997516
   0.1765098   0.1975305  -0.0222093   0.3491937   1.0420544  -0.4714994
  -0.2096832   0.0206971  -0.1129855   0.1139784  -0.3042735  -0.1420785
   0.0424546   0.3044876  -0.6904155   0.0594725   0.7769236  -0.9199293
  -0.2309170  -0.0492201  -0.0178728  -0.7513871  -0.1495231   1.0006678
  -0.2976483  -1.9228431  -0.2464234   0.4430913   0.0947379   0.0015206
   0.7063888  -0.3411393   0.3163714  -0.4940122   0.3341733   0.5557445
  -0.2249593   0.1405260  -0.1326708   0.2832356   0.6916015  -0.1259517
   1.0215769  -0.5774998   0.9099739  -0.1640019   0.0526708   0.1328107
   0.3655529   0.2275963  -0.6310192  -0.5359599   0.8777739  -0.5670438
  -0.1161566  -0.3285014  -0.0674502  -0.5551985  -0.8870807  -0.0797690
   0.0456961   0.7199722  -1.4113987   0.0320419  -0.2280042   0.1050655
  -0.7285684  -1.0438044   0.6036268   0.6353918   0.1795012   0.8398839
   0.2430696  -0.0670852   0.0178098   1.3357924  -0.8202052  -0.5758631
   0.6842482  -0.6073102  -1.0852149   0.0157693   0.0348694  -0.0363280
   0.0186165   0.3151172   1.3023055  -0.1961908  -0.1990665   0.6561307
   0.2404554  -0.0373369  -0.0006405  -0.8868389  -0.9968781  -0.4215561
  -1.0326240  -0.6391668   0.1519371   0.1313218   0.0775856  -0.0116306
   0.6557206  -0.1448819  -1.0033114   0.8526672  -1.0610107  -1.2539387
   0.0301528   0.0016795  -0.1413969   1.1042860   0.3129221   0.9361525
   0.4652032   0.4822867  -2.1014086  -0.0954936   0.0222711  -0.0834698
   0.3064125  -1.0993160   0.8916018   0.2331697  -0.0654804  -0.1134740
  -0.1280811  -0.2339120   0.0027225   0.5482736   0.8606355  -1.0862175
   0.0225408   0.4723456  -0.1815429   0.3957803   0.0049572   0.3179613
  -1.0690864   0.2055651  -0.4847137  -0.6792873   0.9017914  -0.6644415
   0.1732073   0.1031398  -0.1363570  -0.4778295   0.1168917  -0.1623698
  -0.7130390   0.4073816  -1.2265265   0.1833239  -0.0851215   0.0810620
   0.7830857  -1.6245267  -0.5672884  -0.7180152   2.1297113   0.3548880
  -0.1643156  -0.0095453   0.0269801   0.2378936  -0.8988057   0.2528708
   0.6698207   0.8608833  -0.6387583   0.1219648  -0.1994129  -0.3326877
   1.5581123   0.2893036   1.0550058   0.3201058  -0.4720131   1.4527354
   0.0475241  -0.2271442   0.1931832  -0.8682628  -0.1200675  -0.3534244
   0.5994437  -1.7994630  -0.5166190  -0.0445103  -0.0323611   0.2315046
  -0.0217847   0.6833755   0.7201722   0.0609321  -0.4707796  -0.8620919
   0.1575532  -0.2088454   0.2785130  -0.7879428  -0.0333364   0.8280402
  -0.0624893   1.2092205  -0.3986325   0.3776818   0.0965618  -0.0376652
  -0.7513188   0.1511748  -0.3675010   1.0227449  -0.5702585   0.3274088
  -0.2658791   0.0488026  -0.0762073  -1.3726671  -1.0142221   0.3685306
   0.9023646  -1.0308626  -1.9259096  -0.1117333   0.1204736   0.0292951
   0.2515416  -1.0982583  -0.8329868   1.0355477   1.2410050   1.8641558
   0.1320295  -0.3114236   0.1014520   0.4915987   0.8863149  -0.3096500
  -1.0978445  -1.0526309  -1.2899607  -0.0169722   0.2872372   0.3223224
   0.6079940  -0.4799388   0.1765529  -0.8676485   0.2582898   0.7429179
  -0.1384144   0.1634292  -0.0609684   0.9470758   1.1548713  -0.9265203
   0.6246278   0.2713999  -0.4752657  -0.0107148  -0.2474034  -0.0033940
   1.0769958   0.7945702  -0.0126003  -0.1818976  -0.5482690  -0.9010182
   0.0435276  -0.2049654   0.1005631   1.6866160  -0.1442667   0.7281468
  -0.1895666   0.8908575   0.6122349   0.3458858  -0.0274786   0.2074726
   0.0620743   0.0855450  -0.9024279   0.7955693  -0.5794065   0.6288777
  -0.1757023  -0.0220052   0.0416611   0.0185860   0.8298759  -0.4427427
  -0.2191668   1.0845244  -0.1497702  -0.0483182   0.1489921   0.1160814
  -1.1786481   0.4320378   0.8150248   1.1028373   0.5880001  -1.0729778
  -0.1147532  -0.3371038  -0.0864514  -0.6961405   0.4496805  -0.2620248
  -0.2579455   0.0728708  -0.4618762  -0.0975660   0.0358167  -0.0760510
   1.5929845   1.0194396  -0.6430127  -0.3311932  -0.3075704  -0.3488052
   0.1208098   0.1786278   0.3028334  -0.0701215   0.2850214  -0.1088672
  -0.0888718   0.6718507  -0.3789225  -0.0917574  -0.0629326  -0.2079956
  -0.1861791  -0.5845782  -0.8159946  -0.3175590   0.5443485   0.4394245
  -0.2867089  -0.1114487   0.3919572   0.3286979   0.2817986  -0.8743444
  -0.5096955  -0.5978340  -0.3167908  -0.2033947  -0.1952286   0.2369595
   1.3468554  -1.0562284  -0.2734971  -0.2335364   0.0330703   0.4900278
  -0.1768372   0.0121991   0.3318223   0.6671692  -0.3822821   0.0554849
  -0.9717473  -0.6514230   1.0469419  -0.1850738   0.0187044  -0.2386162
   0.7412973  -0.5313646   0.6798415  -1.1992360   1.3005077  -1.1692201
   0.2764415   0.2050486  -0.0342480  -0.4354836  -0.8543352  -0.3237357
   0.9209388   0.1413587  -1.6201793  -0.2814281   0.0071927  -0.1728504
   0.2213440  -0.3532891  -0.1446144   0.0620942   0.1341255   0.1817017
   0.0253798  -0.2331580   0.1869914   1.3771261   0.4263630  -0.3883283
  -0.4339507   0.6435328  -0.2363058  -0.1891937  -0.1670221  -0.1470164
   0.7499609  -0.6049782  -0.4365033  -0.7259990   0.0382482  -0.9597383
   0.0446196  -0.1253541   0.3282108  -1.8721692   0.1212155   0.1878488
   0.9354671  -1.2334760   0.1254364   0.2651954   0.0663905   0.1573611
   1.3430770   0.9457597   0.1364670   1.4528735   1.8771331   0.7755810
   0.3040075  -0.0106731   0.1990795   0.6496160  -0.6673807   1.0878025
   0.0878729  -0.2635470   0.0596695   0.4145871  -0.1067551   0.0203105
   0.1365987   0.6593604  -0.3030749   1.4110786  -0.4883251  -1.0944683
   0.2584096   0.1878974  -0.1081388   0.0678388  -0.7908946  -0.9829208
  -0.3814071   0.1507820  -0.6558906  -0.0967360  -0.0206764  -0.3776234
  -0.9643329   0.2338797   0.5446955   0.7079680  -0.1255635  -1.0717123
   0.1892907  -0.0686840   0.1862369  -1.5904215   0.1516076  -0.3592648
   0.6835772  -0.9679754  -0.6499597   0.2786118   0.1771028  -0.3301715
   0.8358440   0.8616520  -0.9123515   0.0798558  -1.1675082   0.6406611
  -0.1775632  -0.0131701  -0.2214005  -0.7832140   0.1399626   0.1809106
  -0.8194352  -0.0514304   1.3982313  -0.2557579  -0.0784188   0.0370129
  -1.7893897  -0.8736702   0.3076883   0.3000780   0.5247618  -0.4095581
  -0.2920557  -0.3435584   0.1138806  -1.1716505   0.0855211  -0.8963311
  -0.0322743  -0.5574405  -0.4990893   0.0661061   0.1124627   0.4843400
  -0.4776392   0.0278006   1.1296643   1.8012571  -0.9538073  -1.3691288
   0.2848985  -0.0761782   0.2150470   1.4799855   0.6620559  -0.6834879
  -0.1524919  -0.7968697   0.9332710   0.0698382  -0.1821807   0.1360611
  -0.8302267  -1.9678787   1.2621153  -0.4789020   0.0867619  -1.1864154
   0.2302563  -0.2000062  -0.0269187   0.8425870   0.0326896   0.2295784
   0.1151610   1.2669090  -0.3228302  -0.1480407  -0.0433627   0.0054865
  -0.2366856   1.6022482   0.3102238  -0.2508047   0.2617195   0.3799989
   0.4803669  -0.2451974  -0.0311419   1.0253076  -0.2284317   0.6281895
  -0.4763836   0.4628696   0.8609546  -0.2541891   0.2236250   0.1669564
  -0.6370369  -0.2545946   1.2225240   0.2382925   0.6372683  -0.2132071
   0.2081466   0.1432029  -0.2262181   1.0658715   0.9930549   0.0761136
  -0.1584860  -0.0386721  -0.1012420  -0.0346471  -0.0995954   0.1559945
   0.1245399   0.6619896   0.3091223  -0.0855580  -0.2465178   0.6944333
  -0.0835784   0.0688589  -0.0533552   0.3979314  -0.5362724   0.2057858
  -0.5845359   0.8740271  -2.8973226   0.0593112   0.0050031   0.0107528
   0.7566705  -0.6105949  -0.1980915   0.0430907  -0.4505926  -0.6906082
  -0.0620449  -0.1857291  -0.1730917  -0.1869579   1.0116787   0.1258177
  -0.5107748  -0.2999332   0.4764634  -0.0924255   0.0634380  -0.0602788
  -0.5911142  -0.8630640   0.7504156  -2.0116659  -0.0130007   0.2331141
   0.2122258   0.2713795   0.2130740   0.5422108   0.8393045  -0.7512597
   0.8568246  -1.1413890  -1.1368751  -0.3136551  -0.0053259   0.0875464
  -0.4352322  -0.6132039  -0.0464504  -0.3507105  -0.6927252  -0.5814836
  -0.0150570   0.1389232   0.1294162   1.9239918   0.4272034   0.9960429
  -0.6298971   0.5804904   0.0302016   0.0307844   0.1784386  -0.1452600
   0.3192286  -1.4958547  -0.6922671  -0.3681609   0.9990636  -0.2981810
   0.3385922  -0.0677565  -0.0531927   0.8198704  -1.1415991   0.4432648
   1.2266908  -0.7487201   0.2533578   0.1428828  -0.0905509  -0.2286484
   0.3723379  -0.1712245   0.7029584  -0.3966709   0.4911608   0.6289913
   0.1325110   0.4715184  -0.0314505   0.8480627  -0.7351847  -0.4823079
  -2.3545094  -1.0515232   0.0827229  -0.0588533   0.2801187   0.0510773
   0.5090324  -0.5163712   0.5484227   0.0018062   0.5055512  -0.9039374
  -0.3538044  -0.1829880  -0.2711913   0.3563509   0.1516819  -0.2850684
  -0.4477640  -0.9106816  -0.5090205   0.4492021  -0.3137364   0.2522908
   0.0147195  -0.9813888  -0.6004038  -0.3722948   0.5097797   0.1945761
  -0.0203939  -0.0510413   0.3070384  -0.0739032   1.0787591  -0.4981090
   0.8462658  -1.1774401   0.8121705  -0.1352040   0.2525000  -0.0646068
   0.1679994  -1.6001822  -2.0176077   0.6485283  -0.0563165   0.3017737
  -0.1821919  -0.0045159   0.1528174   1.4149950  -1.0366325   0.0834349
  -0.2341564   0.0046521  -0.3323096  -0.2861584  -0.0957065   0.1370590
   0.3752078   0.6997486   0.7840446  -0.3570153  -1.9344802  -1.3414486
   0.4455904   0.0142835   0.1491214  -0.7178333   0.1310600  -0.7334424
  -0.0173600  -0.6589622   1.4697742   0.0209448   0.0854224   0.2610178
  -0.3353702  -0.9325868   0.4350928   0.1808669   0.2872736  -0.3391958
  -0.4858076  -0.3396997   0.0215937   0.7867007   0.2522144   0.4977221
   0.5785832  -0.2975945   0.7510946   0.0867716  -0.0284704   0.0689205
  -0.8168208  -1.0248951  -0.4486906  -0.5525357  -0.1696719  -0.4460490
  -0.5089966   0.0850292  -0.1223890   1.3869172  -1.4295494   0.5699051
   1.8359086   0.1071687  -0.2999540   0.0847800  -0.0074929   0.0753579
  -1.9308401  -0.4628085   1.3948775  -0.5958290   1.4689349   0.3027550
   0.0334104   0.5267298   0.1163252  -0.9087113  -0.3563774   0.6238450
  -0.6511857  -0.4748839  -0.8327490  -0.0088159  -0.2085510   0.0018933
   0.6072738  -0.1944271  -0.4894439  -0.8534817   0.7494321  -0.5126064
   0.0887766   0.1721303  -0.0540143   0.9219961   0.6148972   0.6478739
   0.4467605   0.1852264  -0.4942092   0.0558032   0.2243118  -0.1049833
   0.0283601   0.4001994   0.9653625   0.2856255   1.1455614  -0.5724727
   0.0472587  -0.0669828  -0.0851347  -0.7011877   0.0636096  -0.2843539
  -0.2202471   0.3041849   1.2405767  -0.1716931   0.1207357   0.1163415
   0.0990061  -0.3832622   0.9232548   1.0566435  -0.6725644   1.4371268
   0.0067269  -0.0450391   0.1983325   0.1426536  -1.4836679   0.5179894
   0.7591836  -0.4199416   1.2909852   0.2368563  -0.1819742   0.1136973
  -0.2214680   0.0291916   1.0881939   0.8867346   0.1572712  -1.4566088
  -0.0092051   0.1069398   0.0699635  -0.2477364   0.1038077  -0.8116824
  -1.3800461   0.0833688   0.8790757  -0.3806625   0.1023493   0.0897369
  -0.7842862   0.4834034   0.4661548   0.9443628  -0.3294258   0.1371763
   0.0350484   0.0776847  -0.2029219   0.3457383   0.3876441   0.8144212
  -0.1356461   0.0222779   0.6250592  -0.1781423  -0.1214005  -0.2634093
  -0.7764412  -0.1633021  -0.0102402  -0.2045980  -0.7683021   0.3356213
  -0.0819120   0.0070199  -0.0286536  -1.1323774  -0.0474494   0.2340810
  -0.5494860  -1.0734454  -0.9366282   0.2052942   0.2483608   0.1098856
   1.5052748   1.0519594   1.3289663  -0.0755048  -0.4000715  -0.2366283
   0.0924013   0.0467259   0.0900508  -0.3198083   0.0875102   1.2607215
   0.3447109  -1.3095505  -0.5085121   0.0535274   0.3475604   0.1825968
   0.3047741  -1.0018923   0.1291402   0.8241234  -0.6159250   1.3945238
  -0.0764796   0.0058985  -0.0993173   0.1073503  -0.7438602   0.8987914
   0.6710043  -0.0542873   0.6055245   0.3175109  -0.0785690  -0.0967755
   1.2100665  -0.0211307   1.1661655  -0.0804622  -2.1162852   0.7366996
  -0.0096929   0.0521927  -0.1162628  -0.5296366   0.1863225   0.3456945
   0.5574867   0.3040070   0.2460669   0.2545338  -0.1195152   0.0062437
   0.5579432   0.5412094   0.5343927   0.5114516  -0.9926927   0.5883100
   0.0468774  -0.2611673  -0.1164751   0.0252886  -0.4116882   0.9804628
  -0.2130991  -0.6498385  -0.8973061   0.0019590   0.2427356  -0.0415201
  -1.0838819  -0.1217478   0.1122005  -0.4429476   0.6182240   0.5178504
  -0.3027952  -0.1726075  -0.1672756  -0.1910370  -0.0802632   0.7114641
   0.4181345  -0.3305270   0.3257470  -0.1612305   0.1320772   0.2351634
   0.4116760   1.3838941   0.7863881   0.8968504  -1.2295371  -0.2730862
   0.0834353  -0.2366612  -0.1068494   0.6232522   0.5711776   1.8553864
   0.4573550  -0.7284946   0.5169192   0.1204944   0.2436044   0.0195964
  -0.4728520  -0.7211971   0.4627585   1.4001472  -0.8660537   0.1117032
   0.1243279   0.1248841   0.1244085   0.0799135   0.0235303   1.3099057
  -0.9893335   0.2896927   1.1917979   0.2510006  -0.2541146   0.0507111
  -0.2628605  -0.3873752  -0.2159146   0.8346666  -0.8195503  -1.0582233
  -0.1367249   0.3160448   0.0559421   0.7023070  -0.1847009   0.0347361
  -0.6018106  -0.9474782   0.4174044   0.0202707  -0.4293993  -0.2239835
  -0.2300430  -0.1055653  -0.2613934   0.2640413   0.3302384  -0.6160700
   0.2342571   0.3922417   0.1453234   0.0520731  -0.3890596   0.8617962
  -0.1664133  -1.5151784  -0.2732356  -0.1124110   0.1353128   0.3391924
   1.1576103   1.0254825  -1.0503445  -0.2901771   0.5036821   0.4335537
  -0.1559740   0.1995505  -0.1623754   0.1480265  -0.0485198   0.4491292
   0.3539412   1.2768163   0.4077440  -0.2661169  -0.3179320   0.0010575
   0.0682001  -0.0998873  -0.0124315   0.9692610  -0.5009806   0.3947904
   0.0643553  -0.0692176  -0.0683699  -0.7484130   1.2271817   1.0625175
  -0.2513252   0.9791184  -0.4302450   0.1856664   0.0714181  -0.0019490
   1.0643222  -0.5968315   0.3141317  -0.3218400  -1.4002180  -0.3337613
   0.2529942   0.2031817  -0.4455091  -0.7503102   0.5485549   0.0776460
   1.7792154  -0.4261024   0.5513870   0.0501973  -0.2350870  -0.2128285
  -0.9230272   0.3968065  -0.5159558  -0.5377801   0.7339688  -0.8761357
   0.1414933  -0.3419314   0.0458839   0.6075036  -0.5176417   0.3558609
   0.2397292  -0.7323207   0.8309129  -0.1640704   0.1180586  -0.1436510
  -0.1154185  -0.2569607   0.1827499   0.7171670  -0.3282396  -0.6340281
   0.2553051   0.0980474  -0.2929417   0.7508724  -0.2348530   0.2869800
   0.2454754  -0.1966513  -0.0079737  -0.2063222   0.1066394  -0.1712241
   0.1703960  -0.9043471   1.0255519  -0.0929996   1.0194357  -0.8321215
  -0.0349567  -0.1615759  -0.0847836  -0.1370442   0.1133669   0.2801776
  -0.0900948  -0.2821955   1.9723317  -0.1766812   0.0879075   0.0462353
   1.8663883  -0.5859961   0.6058731   0.1692136  -0.6715918   0.3892605
  -0.0608523  -0.3430343   0.0048102  -0.6608890   0.3400339   0.1529113
  -1.3380649  -0.6246773  -2.1358888   0.2544326   0.2323177   0.1552508
   0.9163448   1.1450126  -1.1941475  -0.7024977   1.4394796   0.4243093
   0.1020197  -0.0176258  -0.0836132   0.2071026  -1.2766282  -0.1165678
  -0.2408260  -0.3398934   0.4197722   0.2683578   0.2103632   0.3682746
   1.2397098  -0.8081340  -0.2873139   0.5296402  -1.4601793  -0.1727985
  -0.1120829  -0.0923734   0.1748530   0.5965796   1.2175498  -0.0351126
  -0.3367330  -0.5262613  -0.0038724  -0.2242778  -0.1009350  -0.1206257
  -0.7177680   0.5483891  -0.3737380   0.9618500   0.1683378  -0.9014037
  -0.2004020   0.1129028   0.0977657  -0.1205481   1.9713375   0.0731060
  -0.9473202   0.8777997   1.1935344  -0.5271106  -0.0314828  -0.0844668
   1.0246304   0.3479366  -0.8200505  -1.0458732   0.8982018   0.0107831
  -0.0942591  -0.0418588  -0.0295295   0.0144408  -0.3412110  -0.0536533
   0.8476520  -0.3296843  -0.2369592  -0.1945395   0.0124896   0.1710804
   0.4562545  -0.3346959  -0.2366258   0.5958154   0.8484597   1.1911985
   0.0706123  -0.2351764   0.3617738  -1.5536499  -0.7243714   0.6520653
   0.4088923  -0.6910643   0.5454270  -0.0005491   0.0811584   0.3326676
  -0.1512441  -0.4117392  -0.1946957  -0.5077189   0.0961493   0.4185801
  -0.2516445  -0.1565422   0.0755392  -0.5569742   0.5262489  -0.5639822
  -0.4408446   0.3147625   0.7974443  -0.0110840   0.0069986  -0.2053901
  -0.4889427   0.3611771  -0.5718193  -0.2139992  -0.0721410  -0.3618298
   0.0292632   0.1273349   0.1704305  -0.1276991  -0.0963989  -1.6324387
  -0.9979001   0.0688629  -0.8031142  -0.3244888  -0.0772571  -0.0299597
  -1.5402046   0.2081981   0.0521452   0.4795471   0.7293834   0.1714924
  -0.1317185  -0.1516737  -0.0144549   1.1546242  -0.7156908  -0.6108979
  -0.5625011  -1.0128560  -0.8697870   0.2267459   0.0706314  -0.1350143
  -0.6280385  -0.3012927  -0.5545298  -0.8685934  -0.5507815  -0.6400344
   0.1771192  -0.1298286   0.0324708   0.6052905  -0.7480891  -0.7213769
  -0.2317281  -0.8410575  -0.0200295  -0.1127250   0.1095208  -0.5384820
  -1.0301835  -1.0317948  -0.9268298  -0.3145277   0.0969071   0.7502290
  -0.0529512  -0.1866672   0.0703441   0.9914272  -0.2399195   0.6001645
   0.9454413  -0.4839661   0.2171587   0.0744684  -0.1737484   0.0228398
   0.4490153  -0.2669358   0.0936112   0.0801720   1.1583423   0.0953444
   0.0534492  -0.1253357  -0.4364587   0.5523517   1.3522771  -1.3498738
  -0.6158990   1.0573420   0.7331269  -0.1185366   0.1711436   0.1582393
   1.2692068   1.2937865   1.1095033   0.7642738  -1.0803008  -0.9477540
  -0.3659338  -0.1094961  -0.1194023   0.3175896  -0.5487953  -0.2721974
   1.0185197  -0.5707789   0.3319026  -0.1490229  -0.2373966   0.1540712
  -0.9464057  -0.4167963  -0.5382120  -0.3168835  -0.2310065  -0.1531545
  -0.0045933   0.2814028   0.1396091  -0.5116190   0.3762602   0.6583948
  -2.1047833  -0.2718012  -1.0764010   0.0890481   0.3057963  -0.3530436
  -0.5177103  -0.7831668   0.7394648   0.6528314  -0.1303471  -0.0371232
   0.2699761  -0.2601760  -0.0074710   0.8963829   0.9428517  -0.7640208
  -1.2940517   1.7396540   1.1449715  -0.0456041   0.2227885  -0.0034534
   0.0367127  -0.2596095  -0.5673305  -0.4539267   0.7328347  -0.7477024
  -0.1874360  -0.1159149   0.2014816   0.0977595   0.1459751   0.3780493
   1.8833387   0.4165016   1.7631796  -0.3363411  -0.0314354  -0.1981843
  -0.0296510   0.0799410  -0.7687129  -0.5972418   1.1092822  -0.0019681
  -0.2047824  -0.2213122  -0.1136734  -0.2332389   0.0760453   0.9351095
  -0.3053340   0.3176105   0.7920724   0.0798720  -0.0371819  -0.4216199
   1.5150184  -1.1476251   0.2435731  -1.3908205  -0.8836355   0.0861941
   0.2957401  -0.0512967  -0.2403923   0.0910602  -0.1423216   0.1075309
  -0.9598943  -0.9163562   0.9172648   0.1465409  -0.0509095   0.2777059
  -1.3583737  -0.1509636   0.4992373   0.2439145   0.2639779  -0.6142290
   0.0398632  -0.2309614  -0.2856957  -0.2290868   0.4266766   0.8853610
  -0.6844794  -0.1465613  -0.7086835   0.1544545  -0.3529923  -0.0151529
  -0.4058441   0.7871607  -1.0851108  -0.0380837   1.6735235  -0.0326042
  -0.1473026   0.1120239  -0.0028689  -0.0584055   1.3270912  -0.6770883
   0.1275349  -0.7091285  -0.6165958   0.0003640  -0.1224012  -0.2529172
  -0.0136565   0.2465859  -0.7533582   1.1926593   0.7699138  -1.2155260
  -0.0553308   0.1581417   0.1039897  -0.2372952   0.0625213   0.4959268
   0.2127465   0.7092922  -1.2201428  -0.1261292  -0.0364624   0.3319858
  -0.4910649   0.2144926  -0.6845097   0.9427215   0.2131040   0.4201504
  -0.5895342   0.3117237   0.0353184  -0.2072877  -0.9573326  -0.4549914
   0.1079514  -0.6828265   0.6664753   0.0553426  -0.1435513  -0.2047948
  -1.6549074   0.1697095   0.8542577  -0.0240953  -0.2626410  -0.3854061
   0.1068427   0.3353289   0.0244750   0.6551756  -0.2483687   1.7069165
   0.2106115  -0.6058546   0.8282632   0.2025339  -0.1412765   0.5308444
  -2.6952139   1.1964494  -0.7518288  -0.3932358  -1.3085409  -0.2299287
  -0.2863759   0.0287001   0.2406654   1.1952797   0.6327363  -2.2857806
   0.5925648  -1.5869524   0.3137184  -0.2570168   0.2862879   0.1155300
   0.4304697   0.3444620   0.5553422   0.5240698  -1.5278394   0.3464621
  -0.2540054  -0.1773644  -0.0046781   0.5227214   0.1831076   0.8225062
   0.7110885   0.6852560  -0.1652198  -0.1665328   0.0586701   0.0727382
   0.3503908   0.6768829   0.7237853  -0.1022555  -0.3742984  -0.3567382
  -0.2445912  -0.1619490  -0.0242720  -0.7111709  -0.2645114   0.2536769
   0.6981402   0.6777364  -0.0233022  -0.0863341  -0.0766947  -0.3475633
  -1.1425274  -0.3713165  -2.1757727  -0.1016555   0.0271177   1.0048348
   0.0654736  -0.0773623   0.2094969   0.4110174  -1.1793453  -0.6688693
   0.1272886   0.8884039  -0.2847231   0.0581549  -0.0808598  -0.1676372
   1.2451721   0.1250624   0.0790628  -0.1256857   0.2189499  -0.9862164
   0.2766548   0.0444346   0.2052817   0.6531698   0.5071049   1.1309575
   0.4292081   0.0078186   0.5751161  -0.1455792   0.0084146  -0.3280378
   0.0189444  -0.3868932  -2.0244633  -0.1997046  -0.6286188  -1.7024579
  -0.0268841   0.0407390   0.0128377   0.0706680   0.4236341   0.4449520
  -1.7896660   1.0013312   0.0055320  -0.0514305  -0.0969198  -0.2195048
  -0.4982433  -0.9992405  -0.5044372   0.3628748  -0.4863631   0.0602606
   0.1583278  -0.3301336  -0.1111672   0.5794102  -1.0784602   1.2088883
  -0.1763784  -1.3039964  -0.9260931  -0.0649517  -0.2974928   0.3203280
  -0.0878679  -0.2663153   1.3939288  -1.1075955  -0.1395820  -0.8962980
  -0.0047191  -0.1109913  -0.0159990  -0.2137213   0.1846812  -0.7189466
  -0.3228812   1.0606231   1.5767791   0.2475635   0.0183631  -0.1373294
  -0.1651468   0.3154913  -1.0634521   0.5518810   0.0635792  -1.0261777
  -0.0244436   0.1385197   0.1779913  -0.7928305  -0.1370935   0.0411345
  -1.4379057  -0.8710206  -0.4574605   0.0064951   0.0277349   0.0216327
   1.5553183   0.6645674   0.1686165  -1.1262452  -1.4727336  -0.3786982
  -0.0599316  -0.0822904  -0.0940001  -0.6573530   0.8443070   0.3915896
   0.1963547   1.5144281   1.0263618  -0.2439358  -0.1245847   0.2654745
   0.2585915   0.3954157  -0.9622214  -1.6192739   0.2215443  -2.3684987
  -0.2086880   0.0864634  -0.4101097  -0.4600902   0.4663502   1.1931177
   0.3307914   0.3740751   1.2730875   0.0475372  -0.3541308   0.0034068
   1.5200040  -1.0392715  -0.1471346  -0.5296163  -0.5501329   0.0283171
   0.3072809  -0.4359157   0.4052310   0.6660918  -0.5095918   0.0424719
  -0.8229842   0.5758747   0.1181369   0.0052345   0.2190366   0.1773562
  -0.8906344   0.7612184  -0.6089819  -0.3873351  -0.9102376   0.2541654
   0.3149781   0.2287323   0.1840329  -0.2146938  -0.3570812   0.6587993
   0.6980720   0.9507833   0.7131567  -0.1684805  -0.1818473  -0.2178080
   0.5112726   0.5165797   0.1315287   1.0150633   0.4523734  -0.5790117
  -0.1060150   0.2150556  -0.0380762  -0.8346700  -1.3510880   0.6852427
   1.3275122  -0.7402665  -0.0322873  -0.0229411   0.0178144  -0.0885674
  -0.3275464  -0.0366122  -0.2438298  -0.8756476  -0.1225021   0.8686011
  -0.0899107   0.0077140  -0.1380200  -0.7256619   0.6031675  -1.0034376
   0.1949666  -0.6594049   0.0651685   0.1658174  -0.0057998  -0.3109828
   1.3187442   0.0997663   0.0543885  -0.0110374   0.0696455   1.0715721
  -0.1260209   0.0341528  -0.2413489  -0.1083668   0.0510399   1.0051669
   1.1413645   0.5866699   0.2192844   0.0826457   0.1048709   0.2975809
   0.6199871   0.5497176   0.4639316  -1.0377120   0.4899504   0.4186663
  -0.2253635  -0.0075439   0.2883706  -0.2943522   1.5633819  -0.8435350
  -0.6301108   0.2704513   0.0292551   0.1188928  -0.1631586  -0.0647938
  -0.6330229   1.5434515  -0.6523864   0.4929934   0.1575073   0.6159563
  -0.0776499   0.3851934   0.2580431  -0.0108261   0.0778687  -0.9895216
   0.3927325  -0.8670924  -0.3026894  -0.0535776  -0.0647372   0.0288806
  -0.3041172   1.1194531  -0.3152518  -0.3306041  -0.2610408   0.1674633
   0.0681587  -0.3854252  -0.0516053  -0.3084503   0.5789587   0.0640187
   0.1500035   0.0001562  -0.9766635  -0.0986688  -0.0085931   0.0379064
  -0.1853811   0.7474174  -0.7286063  -0.3843120   0.9426616  -1.6925546
  -0.0020019   0.0008719  -0.2069567  -0.9180865   0.7329740   1.1125033
   0.8292426   1.6209527   0.3129798   0.1630403   0.0214245  -0.3553559
  -0.0200926   0.3444253   0.0276727   0.4433270   0.1732259  -0.5979722
  -0.3835824   0.2386132  -0.0724650   0.2954447   1.1312055   0.2555145
  -0.5515792   1.4278215   0.1036861   0.2561447   0.2956956   0.1894438
  -0.4688160  -0.1426908  -0.9360568   1.0549061  -0.2862673   0.0171194
  -0.1501037   0.0049770   0.1058720  -0.4177649   1.0898975   0.6032711
  -2.1818412   0.3956516   0.9536167   0.1066634  -0.2440660   0.0094043
   0.2862460   0.1318982  -0.7217200  -1.9993511   0.5521836   0.8666728
   0.2674035  -0.0327408   0.0954395  -1.7392872  -0.0512098  -0.2746664
   0.0867796   0.7420858   0.0036005   0.0951649   0.1938176  -0.2617395
   1.8420392   1.2299318  -0.1205886   1.0335429   0.3733103   0.1505734
  -0.1855471   0.4531917  -0.3001048   0.8463872   0.6271795  -0.7351206
  -1.2713637  -1.4504778  -0.4346909   0.1964372   0.1185386   0.2074420
  -0.7080993   0.4814365  -0.6084914  -0.3750600   0.4840823   0.0304763
  -0.0216132   0.2638169   0.0885914  -1.2024573   0.8497553  -0.6695394
  -0.2504096   0.9934473   1.2049006  -0.1899654  -0.0642638   0.1388686
   0.1317610   1.0106114  -0.2205374  -1.4253212   0.0417535   0.2655210
  -0.2755849  -0.3246797  -0.2624860  -0.5475706  -1.0653042  -0.3530555
   0.0420688  -1.4356206  -0.0669718  -0.0505928   0.2042669   0.0945780
  -0.1807579  -1.0838567   0.0991533   0.4278365  -0.3118443  -0.1771623
  -0.1975323   0.2592158  -0.3030934   0.8454831   0.0080323  -1.3454919
   0.2566213  -0.5729513   0.3326486   0.2498905  -0.2563872  -0.3761202
   0.2907028  -0.7347762   0.7246008   0.7723653   0.7614488   1.6799568
  -0.0322315   0.0441634  -0.1991698   0.1750917  -0.5115199   0.7264328
  -0.4022248  -0.8594421  -0.2603578   0.3890554  -0.0955164   0.1660808
  -1.3131204   0.1717257  -0.3168736   0.1934319  -0.0071464  -0.3364350
  -0.1808064   0.0270224  -0.0767500   0.9919602  -0.3255541  -0.6824288
  -0.2668342   0.6639918  -1.3666368   0.0670166   0.4371144   0.0509116
   0.3787195   0.4570841   0.0780690   0.0128609   0.7544093   0.8016979
   0.0326872  -0.2861162   0.2123350  -0.9780724  -0.7288213  -0.4452610
  -0.7151005  -0.7873539  -0.5427300  -0.0549704   0.0222269   0.1107050
  -1.5707231   0.5869209   0.5602851   0.0337549   0.1970207  -0.3349490
   0.1435004  -0.3133733   0.0346703  -0.5892701   0.7367098   0.2888553
   0.5436361  -0.1979167  -0.3841872   0.4150920   0.2574764  -0.1190557
  -0.1847951  -0.1117117   1.5105346   0.6988884  -2.3993752  -0.8787022
   0.1753207   0.0379202  -0.1732719  -0.8931278   0.2528236   0.3713068
   0.8829900   0.0336576  -0.7147909   0.0128535   0.2732091   0.0483071
   0.9439084   0.1141124   1.2464200   1.7668712  -0.1394618   0.6396475
   0.0436694  -0.2366487   0.0835700  -0.1603347  -0.0296701  -0.4250051
  -1.0856134   0.3742450   0.4617293  -0.2337112  -0.1848429  -0.2298023
   1.1788282  -0.3316517   0.9777806  -1.8133438  -0.0640586   0.0771781
  -0.0562501   0.1630283  -0.2262171  -0.0011704  -0.0330133  -1.2613358
  -0.6560228   1.2007007  -0.2604333  -0.3522903   0.5446695  -0.2553279
  -0.0818116   0.7904859   0.0239839  -0.4913933  -0.9348451  -0.0383328
   0.1804683  -0.0535291  -0.0968049  -0.1576686  -1.4521765   0.0771130
   1.3038097   0.5187415   0.4495128  -0.0389346  -0.0315437   0.0101687
   1.2159194  -0.9778435  -0.1687372   0.8403055  -1.1202115  -0.5019388
  -0.1334441  -0.1676679  -0.2688537  -0.6312901   1.3563853  -0.0708325
  -0.0881925   0.0956081   1.1836325   0.2625170  -0.1496518  -0.0575850
  -0.5015287  -1.1471488   0.5965444   0.9776951   0.9729815  -0.1163684
   0.0880890   0.3569601   0.1676033   0.3550582   0.4522829  -0.8113538
   0.7404227  -0.8845096   1.4970268  -0.3521939   0.1018767   0.0381522
  -1.3052594   0.2551393   0.6410210  -1.3534594  -0.7859959  -0.0687742
  -0.2608467  -0.1151350   0.1810083  -0.6262618  -0.7456971   0.1761468
   0.3049290   0.6364629   0.0262161  -0.2402735   0.0373673   0.0862733
  -1.0915323   0.4729360  -0.2701773  -0.7147955  -0.4148311  -0.6118674
  -0.0438664  -0.1189813   0.0574361  -0.0557918  -0.5125768   0.3927889
   0.3635602  -0.0407985  -0.0070041   0.2737321  -0.0150835  -0.1848480
   0.1776244  -0.2416403   0.2081527   1.1851619  -0.5547919  -1.7943429
  -0.0331875   0.4833810  -0.2802950  -0.2856556  -0.2052051   0.3377647
   0.2450954   0.2498594   0.5089039   0.1117734  -0.1172919   0.1249046
  -0.1150315  -0.3784409  -0.2657357  -0.8612260   0.0815799  -0.4626446
  -0.0757908  -0.1068686  -0.3295505   1.2292387   1.0613016   2.2082175
   2.0649791  -1.2082554  -0.9992172   0.0349183   0.0526195   0.0330111
   0.7215943   0.3311383   0.0739024   1.1979507   0.2633033   1.4789264
   0.1863946   0.1319336   0.3050082  -0.2702985   0.3989535   0.3974339
  -0.1607852   0.2820972  -1.2977561  -0.4913404   0.2338492   0.2335210
   0.2731904   2.0883078  -0.7475765  -0.1304951   1.1518837  -1.3058000
  -0.0364204  -0.1234163  -0.0620442   0.3730635   0.6870758  -0.6498281
   0.8914299   0.8898614   0.1162716   0.2978244  -0.0117233  -0.1585436
  -0.5254124  -0.6829317  -0.1834130   0.0903957  -0.9965753  -0.1029411
   0.1914977  -0.2528324   0.0544474  -0.1991268   0.2792390   1.5664933
   0.4274945  -1.3499682  -0.6051514   0.1368735   0.1587454  -0.4602961
  -0.6675350  -0.1835297   1.4592299  -0.0847514  -0.1074055   1.3668460
   0.1535161  -0.1177986   0.0668004   0.0188569   0.0658173   0.5124568
  -0.9020469  -0.2998259   0.5220058  -0.0040265  -0.1099781  -0.1669122
   0.5472721   0.1415126   0.1212351  -0.7921022  -0.4773080   0.2145851
   0.2058891   0.0341703  -0.3779583  -0.0496121   0.2375284  -0.3575433
  -0.8443226   0.0030228  -0.1775314  -0.0324353   0.0285724  -0.3625194
   0.3977288   1.1446682   0.4607667  -1.2006632   0.0813276   0.3842435
  -0.3019728   0.1844703   0.0800209  -1.8368137   0.2095240   0.0215422
  -0.1362532  -0.0308253   0.8696443  -0.2753620   0.2144074  -0.0045826
  -0.5900239  -0.1350348   0.1095050   0.0845430  -0.4723885  -1.6209336
   0.1981035   0.2424909   0.0652636   0.6211955  -1.0302378   0.1554674
   0.2088383   1.2590880   1.0021429  -0.1410103   0.3217173   0.2270019
  -0.7451929   1.1681421   0.7150719  -0.1972215   0.9215952   0.9461260
  -0.0396729  -0.1033946   0.1955534   0.7907454  -0.0256379  -0.1947033
   1.1806881  -0.6773572   0.3569697   0.1939279   0.1631689   0.0964998
  -0.0721277  -0.7955501  -1.1146684   0.1377289   0.4772054   0.3330775
   0.5796507   0.0711569   0.2728201  -0.9857872   0.0643642   0.5402013
  -0.7057209  -0.3327144  -1.3152063  -0.1745615  -0.1010581   0.0935794
   0.7856483   1.1620425   0.1279723   0.6482696   0.7221605   1.2834543
  -0.0003992  -0.4888722  -0.0156170  -1.1000734   0.1716138   0.1246853
   0.1418548  -0.7206875  -0.4779988   0.1233529   0.2403889   0.1108178
   0.1737923  -0.6897029  -0.5329836  -0.1929928   0.0124980   0.7376120
  -0.1684337  -0.1882578   0.1534313   0.4207592   0.4730726  -0.0171021
   0.5676564  -1.6274120   1.0178384   0.1852635  -0.1231024  -0.2816723
  -0.3073591   0.5924886  -0.4671176  -0.3180298   0.9614207   0.2620585
   0.0964257  -0.0161095  -0.0618343   0.1305365  -0.1941170   0.8075784
  -1.3251999  -0.8961169  -0.4752394  -0.1585348  -0.1057635   0.1352408
   0.1851979   0.5597648  -0.4099080   0.2901246  -0.6657922  -1.0768652
  -0.1539345   0.3435216   0.0230817  -1.3529741  -0.2654055  -1.0192988
   0.6508951   0.6243574   1.2041270   0.1994756   0.1474143  -0.0613002
  -0.4178689  -0.3811071   0.2061762   0.4886046  -0.6668528  -0.5680444
   0.0075633  -0.0243295  -0.2747780  -0.3533249  -0.8496430  -0.8055132
   0.6801090  -0.2606954  -0.8364942  -0.0100192  -0.1878468   0.2916468
  -0.1240043   0.4036082   1.7878239  -0.1719647   1.1602244  -1.5053804
  -0.0624544   0.0205086  -0.1258769   0.5826038  -0.5358914  -0.3229513
   1.0855677   0.2166382  -0.0483699   0.2601060   0.0624162  -0.0338621
   1.1770970  -0.2476934  -0.1261275   0.9689845   0.3980030  -1.5757942
  -0.5798736   0.0481034  -0.0960033   0.2550714  -0.3966815   0.9225774
  -0.6513763   0.3260463  -0.3066981  -0.2077093  -0.0605354  -0.1218273
  -1.1274432   0.2102665   0.5648806   0.6728416   0.5331947   1.5177226
  -0.1680242  -0.1807801  -0.1713255  -0.4846211   2.2240884  -0.4250069
   0.1167843   0.3878002  -0.0620322   0.0406558   0.1807058   0.0385033
   0.2745054  -0.3134928   0.6055603  -0.4606367  -0.2395453  -0.2743758
  -0.2444620   0.0719473  -0.0699101   0.5758305   0.8286694   1.5016689
  -0.4357513  -0.2597358   0.1386156  -0.5817662  -0.0280454   0.1545695
  -0.0029602  -1.0002933   0.4122511  -0.7397880   1.7443039  -0.3929996
  -0.0856089   0.1708435  -0.4173148   0.1864397  -1.2128573  -1.1615621
   0.1535544   0.5445700  -1.1036768  -0.0785556  -0.0590585   0.1886313
  -0.7818677  -0.3099514  -0.6504340  -0.3340757   0.3779355  -1.0141360
  -0.0770076   0.2181752   0.1990551  -0.0579147   0.5836591   0.1079237
  -1.5092447  -0.8280299   1.0115258   0.2717292  -0.1707814  -0.3302089
   0.2677357   0.8056394   0.7793399   0.2257660  -0.0100297  -0.6822102
  -0.0678880   0.0724711  -0.0359223  -0.0279753   0.1948632   0.1373659
  -0.0758456  -0.4040166  -0.2502312   0.0078309  -0.2350624  -0.2056182
  -0.5124652  -0.3659835  -0.2498664  -0.9441328  -0.6778685  -1.4482242
   0.3116060   0.1120978  -0.1551057   1.4903210  -0.8584709   0.9760034
   1.1257239  -1.0157952  -0.1504109   0.0378270   0.0055939   0.1960818
  -0.2622735   0.2851774   0.1049641  -2.1165928   0.1677983  -1.3450476
   0.1372839  -0.0730621  -0.0558586  -1.3845736   0.8750815   0.1137762
  -0.9965541   0.3154713  -1.5112587   0.0429366  -0.1820413  -0.0183231
  -1.0524826   1.2723947   0.8018140  -0.5392133   0.1805327   0.0396450
   0.2030432   0.1380306   0.6027001  -0.9754620  -0.6214325  -0.8415340
   0.1914882  -1.9728665   0.3109834  -0.0965471   0.3256779  -0.3058110
   0.4397194  -0.1627370   0.2220130  -0.0650094  -0.3225659  -0.5156277
   0.0791263  -0.0114788   0.0426349  -0.6349808  -0.6985994  -0.0445189
  -1.1903139   0.2912268   0.1709721   0.2334055  -0.0856037   0.0372574
   0.1312645  -0.9546490   0.7032325   0.1082347  -0.9250726   0.2753876
  -0.0281884   0.4264861  -0.2925197  -0.2270153   0.6422617  -0.3794520
   0.8073632  -0.1688380  -0.2603909   0.2647915   0.0859658  -0.3371629
  -0.6599606  -0.1173870   0.3968628   1.1585677   0.4021163  -0.4015519
  -0.0808000   0.0727403   0.2160490   1.0428337  -0.3198828   1.7736681
  -1.3219898  -0.5789809  -0.6264196   0.0974993  -0.1989533   0.1464072
   0.5441763  -0.7994833  -0.1786299  -0.6554601   0.9005374   1.0146061
  -0.1557611  -0.0638687  -0.1923213  -0.1217492  -0.8400081   0.0236508
  -0.5290799  -0.8642353   0.1622152   0.4668421  -0.3129599  -0.0430861
  -0.2642420   0.1882230   0.1461706   0.9262500   0.4352950   1.0699618
   0.1197393  -0.1231747   0.2625321   1.4201407   2.3422633   0.3646295
  -1.3125989  -0.1649431  -0.6991159  -0.1473104  -0.1819504  -0.3613155
  -0.8765737   0.2158693  -0.6214169  -0.6335754   0.2867724  -0.2173909
   0.3075790   0.0625826  -0.0887758  -0.5383869  -0.1193870  -1.0280627
  -1.5448050  -0.0103144  -1.2110223   0.1300668   0.0621569   0.0789708
  -0.2252850   0.0693011  -0.0613297  -0.4708648   0.0405940  -1.4319740
  -0.0908273   0.0590569   0.0098769  -1.0673456  -0.9170111  -0.0503795
  -0.0673067   0.8936593   0.0303733  -0.2168986  -0.2415576   0.1635562
   1.5254066   1.3078416   0.5142147   0.6828218   1.6980671   0.0950840
   0.1268524   0.1278521  -0.1124686   0.3256059   0.0000642  -1.0299205
  -0.6997819   0.2743540  -0.8018748   0.0465907   0.1042873  -0.1168879
  -0.0230000  -0.1561384   1.1674598   0.2151955  -0.2148751  -0.1603773
  -0.2968779  -0.1933682   0.3184972   0.3058721   1.8317366  -0.2949810
  -0.5641743   0.0443677  -0.5165944  -0.0742233   0.1290358   0.1593481
  -0.8334809   0.5672001  -0.0092834   0.7660122  -0.1471477   0.6586826
  -0.2439646   0.1392280  -0.1347576   0.7320579   0.1356173  -0.0511753
   0.0370257  -1.3743476   0.1042417  -0.1905084  -0.1883322   0.2946565
   0.3937332   0.2030889   0.0775662   0.1658335  -0.9165336   0.0465908
  -0.2092735  -0.0400439  -0.2417077   0.2329020   0.1610948   0.7528272
  -0.0986750  -0.1117220   0.2439829   0.0894334  -0.0293481   0.0993204
  -0.3921203  -0.2878617   1.7185186   0.1722321  -0.2068993   1.2953162
  -0.0614739  -0.0094308  -0.3544078   0.5009258   0.8380669   1.1944237
   0.1393700  -0.0110245  -0.4194709  -0.0409710   0.0702901   0.0823455
  -0.0186060  -1.3175868   0.3107578   0.2837029  -0.5254795   1.3417486
  -0.1342829  -0.3147586   0.0713462   1.0977215   0.4582766   0.0723298
  -0.2096141   0.7278462   0.2858655   0.1252987  -0.0700020   0.0847199
  -1.1437664  -0.9220827  -0.2723258   1.5159587   0.2584268  -0.7056559
  -0.0267587  -0.1511297   0.2529672   0.4746735  -0.7228587  -0.0097511
  -0.3273488   0.0825078  -0.8149995  -0.4545108   0.0099404  -0.0185744
  -0.8826176  -0.9569102  -0.9546569  -0.0488457  -0.0823807   0.2914898
  -0.1423897   0.1891912   0.0712191  -0.5834301  -0.2765935   0.2891362
  -0.5379532  -0.3814640  -0.2441123  -0.0528529  -0.0764867  -0.0536499
  -0.6023285  -0.1347831   0.5512566   0.5636933  -0.4190432   0.9162023
   0.1626331  -0.2795285   0.0026138   0.0563588   0.2821023   0.4066883
  -0.2961900   1.6883268  -0.8413212   0.0632270  -0.1104700   0.1559853
  -0.0697604  -0.9721904   0.3876066   0.1112185  -0.0458213   0.3458446
   0.1817755   0.0194412  -0.0464504   0.9430159  -0.3081073  -0.0997650
  -0.4588026  -0.1951328   0.8503348   0.0653597   0.1685732  -0.0599417
  -0.3436353  -0.0385708  -0.2774290   0.5964916  -0.1458234  -0.3902904
  -0.1374798  -0.2929876   0.2877465   0.2156751  -0.0640985  -0.9992135
  -0.6741463  -0.6522793  -0.5005626  -0.3912094  -0.0154111   0.0170206
  -0.4652990  -0.3769671   1.1126632   0.9460536  -0.3156903  -0.3126729
   0.0633947   0.1436364  -0.3122934  -0.6743546  -1.2334257  -0.1922381
   0.2338372   1.5156124  -0.3419664   0.0426251  -0.1174123   0.0463185
  -0.2974522   0.3217544  -0.3680020  -0.7494818  -1.3823491  -0.3081608
  -0.2371902   0.1828432  -0.2588121  -0.2884716   0.5197974   0.1982559
  -0.8956252   0.1725381   0.1053136   0.1575036  -0.2994079   0.0824514
   1.1165401   0.1444675   1.3187044   1.0197705  -0.1571643  -0.6762058
  -0.3808988  -0.1774602   0.1524492  -0.4044216  -0.0299071  -0.2810141
  -0.5211070  -0.2210461  -0.2305601  -0.1412090   0.0628137  -0.1893586
   1.1857957   0.1793802   0.2568446  -0.6289705  -0.6937815   0.3166651
  -0.4784456   0.3387594  -0.0234407  -1.8280600  -0.3924181  -0.5378291
   0.0841755   0.0965859   0.5742226   0.4410352  -0.8190295  -0.0025540
  -1.0821134   0.7416404   0.8401798   0.0544908  -0.4517283  -1.2015108
  -0.0999719   0.1635713  -0.1973441  -0.1171499  -0.4023860  -0.6456920
  -0.5119365  -0.3170593  -0.4608090  -0.1425128   0.1445448   0.1405510
  -0.9212539  -0.1185609  -0.5698535  -0.1945289  -0.2483804   0.7218506
   0.1084046   0.0530635   0.3332399  -0.5815673  -0.0126532   1.1735247
  -0.5465024  -0.8921674   0.2949643  -0.0661737  -0.5092840  -0.1255804
   0.5051447   0.3706738  -1.1185865  -2.1958928  -0.0920005   0.3112598
   0.0887176   0.1677096  -0.1469972  -0.1502716   0.3309864  -0.4694688
  -0.4288221  -0.3727890  -0.4538811  -0.2120016   0.0813014  -0.1582070
   0.8726514  -0.2118422   0.5471726  -0.3861798   0.9153806  -0.3004336
   0.1332488   0.0063408  -0.3114551   1.0755811  -0.0893561  -0.6182134
   0.0708611   0.4919240  -0.8372544  -0.0955452  -0.0785134   0.2393503
   0.4727261   1.5030524   0.3913769  -1.1213917  -0.2625486   0.1436244
  -0.2998792  -0.1606515   0.1619579  -0.1470888   0.6155112   0.1705423
   0.2072470  -0.8547658   0.6493490   0.1410259   0.0460636   0.1222754
   1.1183080   0.1038820   1.1904389  -0.0056174   0.7425055  -0.0981806
   0.1733641   0.0338195   0.1867647  -0.8346590  -0.0055593   0.0334990
   1.1415790  -0.4536952  -0.1913738  -0.0257503  -0.1399834  -0.0214603
  -0.7017286   0.6312999  -0.0581840   1.6196007  -1.3029752  -0.0994122
  -0.1881859  -0.0406314  -0.4682322   0.8386149   0.1372724   0.3040148
   0.6217726   0.4446577  -0.8661854  -0.1272319  -0.0927904  -0.2816070
  -0.9879755   0.5993423   1.1918563   0.1552317   0.9067678   1.2448616
   0.2644348  -0.0975287  -0.2108771   0.0636271   1.0951493  -1.0445050
   0.4740203  -0.4081839   0.1712855   0.0288815   0.0713152   0.1219113
  -0.4782851  -0.0724811   0.5727341  -1.5528689  -0.8119521  -0.4906397
   0.1206101   0.0037327   0.2191401   0.2882159  -0.1055170  -0.6762013
   0.6151434   0.0789173   0.5797247  -0.0976178  -0.1704420   0.1985860
  -0.3805116   0.6675985  -0.5237556   0.9146153  -0.5843611   0.3139430
   0.1068846  -0.1813098   0.0091492   0.9252978  -0.1718648  -0.4644935
   0.6850427   0.2689302  -2.5211553   0.4532092   0.1238844  -0.0896401
  -0.2518352  -0.0737507  -0.6055745  -0.6166487   0.3198501  -0.0460729
  -0.1797376  -0.1458159   0.2503256   0.8801496   0.7122901  -0.4542778
   0.0006657   0.6638062   1.2052928   0.1802222  -0.2319811  -0.0784415
  -0.3664922  -0.0709616   0.0255066   0.3522606  -0.9195766   0.4227660
   0.2052228  -0.1097942  -0.5039135   1.0802052  -1.0607406   0.3670821
   0.3207664  -0.3674097   0.5820864   0.0046077  -0.0790146  -0.0935872
   1.4853766  -1.0477567  -1.1504857   0.4170833   0.3432746   0.3644325
  -0.0497407   0.0231311   0.2361092   0.1380604   0.5338738   0.5220374
   0.0808093   1.8220725  -0.4106845   0.4419944   0.0892239   0.1432463
  -1.2027863   0.0238912  -1.2516811   1.1242072   1.4123851  -0.0126075
  -0.1669673  -0.2178662   0.0119644   0.8138340  -0.7840066  -0.1745873
   0.5099644  -0.6306862  -1.1234702   0.0421384   0.0622523   0.0737447
  -0.0258104   0.0676513   1.5328138   1.1222313   0.7610743  -0.6781354
   0.2658002   0.2431261   0.1683511   0.4786632  -0.4608523   0.0183754
   0.1540041   1.2716073  -0.0582272   0.0812153   0.2704590  -0.2097753
   1.2689616  -0.6887298  -1.3656750  -0.0148769  -0.5375571   0.6692213
   0.0616004   0.2355870  -0.1180042   0.4410098   1.1598639  -0.8823341
  -0.8674025  -0.4450551   0.2296388   0.1058129  -0.0495639   0.0639772
  -0.8229884  -0.6738786  -0.5374348   0.1070529  -1.1165170  -0.9358941
  -0.1422512   0.1074385   0.0317010  -0.5345673   1.1273387  -0.0192451
  -0.1809073  -0.8053611   0.8913617  -0.2859247   0.2149344   0.1147561
  -0.4041310   0.0759685   1.4386236  -0.0058517   0.2902052   0.7472620
   0.1507201   0.0919232   0.1245931  -1.9595286  -0.2454295   0.9832785
   1.3163946   0.4830588   0.2612471   0.0797533   0.4674415  -0.0143530
  -0.6354433  -0.0012888  -0.3319699   1.7660806  -0.9617089  -0.2195933
   0.0934758  -0.1270704  -0.2420522  -1.0492589   0.1388394  -1.4528958
   1.9675175   0.2121624  -1.8980161  -0.3151342  -0.0412460  -0.4066467
   0.7417426   0.5345525   0.5614607   0.2006716   1.0538923  -0.3642655
  -0.0107900  -0.0076833  -0.3509229   0.0814667   0.1095112  -0.3689895
   0.1113226   0.4733015   0.4782171  -0.1776632  -0.1759262   0.0412064
   0.1018297  -1.8341968   0.1780833   0.2508785  -0.5481686   0.5216575
   0.0714254  -0.2136116  -0.1889488  -0.4393496   0.9938512   0.7334044
  -0.3122490  -0.4772746   0.5021868   0.0093952   0.1584780  -0.1449137
   0.1447962   0.3742140  -0.2274380  -0.5153050   0.1498902  -0.2305463
   0.1070982   0.0653758  -0.0522206  -0.4543532   0.5438689   0.3908303
  -1.1777703  -0.4943934   0.3685443  -0.0840502  -0.6222484   0.1720129
  -0.7643560   0.5204996  -0.7576595   1.0289118  -1.0342556  -0.7371175
   0.1261198   0.2563155   0.0823243  -0.1636327   0.0160005   0.1090597
   0.7193649  -0.7994327  -0.3191124   0.1382848   0.1134929   0.1735234
   0.4407946   0.2362432   0.9883457  -0.8368121  -0.1962751  -0.6604422
  -0.2800027   0.0286898   0.2059681  -0.1385495   0.7405202  -0.3225119
   0.0455977   0.7938842   0.8285926  -0.1800055  -0.0770198  -0.4086153
   1.6673034   0.2546765  -0.7347485  -0.0963238   0.2109893   0.7052434
   0.2300630  -0.3625102  -0.0213515   0.0252889   1.1319541   1.3223920
   0.0734022   0.5043727   0.9260585   0.2056340  -0.2021039   0.2615786
   0.8036693  -0.7764301  -1.9863580   0.2808618  -0.5259526   0.3538609
  -0.2036801   0.3751835  -0.1348281   0.1564477  -0.9682940  -0.2618691
  -1.0666410  -0.2381532   2.0632550  -0.2820419   0.4663919   0.1312051
   1.5447797  -0.0263725   1.3392070  -0.6512237  -0.4683294  -0.3798009
  -0.2466017  -0.1898298  -0.0531929   0.6518446   0.9134650   0.0374045
   0.3222137  -0.0341495   1.7198316  -0.1216633  -0.0543789   0.3346585
  -0.8198943  -1.2155849   0.3668106  -0.3548265  -0.0136448   0.6094257
  -0.1289637  -0.0327491  -0.2564166   0.3197987   0.2727298   2.0758586
  -0.2736211  -0.7561489  -0.3538834   0.2404434   0.0087527   0.2867049
  -1.4138064   0.9775240  -0.7900085   0.9251841  -0.1571246   0.1669602
   0.0326692  -0.0358516   0.4617551  -1.4158941   0.6229226  -1.0752506
  -0.0449028   1.0551794   0.2365140  -0.0581141  -0.2208904  -0.1421171
  -0.5947006   0.8777909  -1.2684073   0.5217963   0.5946823  -0.1556794
  -0.0145267   0.2423531  -0.0743328  -0.8013108  -0.3240969  -0.4757007
  -0.2894459   0.0133307   0.0522513  -0.1956277  -0.0602780  -0.0106957
  -0.0103593  -0.4613599   0.1209440   0.5165343   0.7444141  -0.1881148
  -0.1411025  -0.1166080  -0.2600856   0.5548311   0.3004844  -0.3590051
  -0.8448647  -0.2873126  -0.7264016  -0.0858809  -0.1531720  -0.2450718
   0.7926585  -0.3949837   0.7557096   0.0779631  -0.6667907  -0.1306538
  -0.0903073  -0.1441250  -0.1007617   0.3853818   1.3683140  -1.6191981
   0.1441797  -0.2185078   1.2820609   0.3791483  -0.4349564   0.1115030
   0.0589844   0.6876274  -0.6510621   0.1327023  -0.6484131  -0.1038748
   0.1055143  -0.3085006   0.0759391   0.6008933  -0.2401089   0.2950634
   0.8725648  -1.1062078   0.5802227  -0.0711593   0.1965232   0.0338339
   0.4845073   0.7795581  -0.1826903   0.3288578  -0.3885358   0.3779087
   0.1628701   0.3585044   0.0509792  -1.0733613  -1.1565805   0.8711598
  -0.1852201  -0.0239307  -0.2617630  -0.0937951   0.1500433   0.1201497
   0.0746859   0.9449001   0.7028189  -0.5037361   0.8380848   0.4322706
   0.1627892  -0.0557217   0.1156874   0.6703103  -0.4373667  -0.1580729
   0.9513524   0.1748411   0.6171903  -0.0436616  -0.0200511  -0.1214321
  -0.2670460   0.0226365   0.3537666  -0.4379049   1.0206129   0.4464558
  -0.2272876   0.1891726   0.6722853  -0.2100002   0.6241962   0.3131065
   0.3178903   0.3075352  -1.1760485  -0.0953924  -0.4353589  -0.2770958
   1.1301516   0.2984361  -0.0589346   0.5302750   0.0813808   0.0677743
  -0.2548983  -0.3209012  -0.3321211   1.0417261  -0.1263388   0.1133535
   1.1091104  -0.8005069  -0.3692151   0.0056628  -0.2385351   0.4582456
  -1.6465331   0.1183411  -1.1204435  -0.9531722   0.1653417   0.8769723
   0.3729873   0.0112043   0.0467530   0.3493211  -0.7238403   0.5937674
   0.5517460  -0.6807094   0.6584466   0.2281977   0.0469796  -0.0155285
  -1.4933795  -0.6803070  -0.3036353   0.6004088  -0.6357255  -0.6378039
  -0.1474972   0.0532698   0.1246254  -0.1531748   1.1153073  -0.4259937
   1.2049994  -0.2556016  -0.2986210  -0.1058901  -0.1029919   0.1105233
   0.5126539   0.0309803   0.4857281   0.9588795  -0.5505282  -0.5560541
   0.2687447   0.0388760  -0.1137765   0.2387013   0.7329866  -0.1353535
  -0.7579660  -0.2583280   1.1163953   0.2558658  -0.1210143   0.0922940
   0.4954744   0.0078584  -1.3083465   0.2821255  -0.4321358  -0.1266371
  -0.4117478   0.0022944  -0.1632073   0.3358857  -0.5347185   0.7511045
  -0.6311421  -0.4015933   0.4588346   0.0088553   0.1471331   0.0685915
  -0.2482252   0.5015959   0.3089877   0.4823297  -0.1194892  -0.4286332
   0.1083325   0.1077576   0.2445817   0.8633034  -1.5371577   0.6133181
   0.8051422   0.6033927  -0.4734160   0.1062799  -0.1101808  -0.0700505
   0.7613377   0.2371410  -0.4939333   0.2095815   0.7235879   1.0155373
   0.0012836  -0.3070965  -0.0803598   0.4809288  -0.3127459   0.0622132
  -0.9711366  -0.0952622   0.6956487  -0.0808705  -0.2256673   0.1364485
  -0.8921054   0.2774303  -0.4009637  -1.6414631  -0.2155043   1.4184554
  -0.3077259   0.0696655   0.4253994  -2.1361554   0.1657713  -0.9634085
  -1.5382613  -1.0501758  -0.8798034  -0.1421166  -0.1074019   0.2379275
   0.8534398   0.3662407  -1.7831122   0.3091427   1.7858618   0.4443497
   0.1860916   0.1531821   0.3036857   0.2008257   2.2197673   0.4670960
   0.0884426  -0.1190610   0.3124533  -0.3202451  -0.0545708   0.2062618
   0.6596902  -0.9853947  -0.5909880  -2.5540678  -0.1269216  -0.4545166
  -0.0143697   0.1517932  -0.1995166   1.2448634  -1.0962589   0.7512361
  -0.0421998   0.6379370   0.0231715   0.4767488  -0.0969626  -0.0417062
  -0.5950065   0.6836748   0.1357936   0.7214597   0.3532604  -0.4630576
   0.0756466  -0.1194085   0.1032671   0.6521887  -0.1277538  -0.1330151
   0.9890904   1.4500327   1.4757021   0.1357031  -0.3211323   0.0058482
  -0.8948000   0.1969713   0.1290993  -0.3014666   1.0467414  -0.2980068
  -0.1463881   0.0561951  -0.0981576   0.4652938   0.5185799  -1.4167898
   0.5817741  -1.5770217  -0.4519495   0.0313496   0.1844760   0.1223427
  -1.1138278  -0.8799106   0.2125346  -0.2743343  -0.1170066   0.6341188
  -0.0763612  -0.1569629   0.2039042  -0.3236315  -0.0114371   0.1392189
   1.1346066  -0.4100104  -0.4603852   0.1919201   0.0752361   0.2981035
   0.3414437   0.9992124  -0.6364243   1.0622243  -0.6538968   0.6557992
   0.2200680   0.0569936  -0.2354353   0.7489267   0.2101556  -0.4364856
   1.6089468  -0.2135730   1.7848215   0.2324267   0.3534690   0.0673093
   0.2131413   0.1439983  -0.0399737  -1.6395952   1.9191899  -0.5007370
   0.0216939  -0.1860942  -0.2551611  -0.3707459  -0.8081477  -0.1471020
   0.5638581  -0.9386612  -2.1070515  -0.3067482   0.0354891  -0.1802835
   1.2913111   0.0537497   0.3460058  -0.0917954   1.1186285   0.1799919
  -0.0684169  -0.0389027   0.0106078  -0.0390517   0.4254305  -0.2123836
  -0.3885356  -0.6868384  -0.5850417   0.1121937   0.1110246  -0.0757869
  -2.2278986   0.0747022  -0.9477115   0.2931341   1.2464192   0.0567838
   0.4295212  -0.4505021   0.0813303  -0.6888853  -1.0058005  -1.7558424
  -0.8485060   0.3951296  -0.1433410   0.3175321   0.1860565   0.4655069
   0.8544316   0.4078051  -0.9509601   0.3590706  -0.0397034   0.0237799
   0.1574151   0.2216335  -0.0515367   0.4513658   0.0219919   0.0274929
   0.7338665  -1.0433280   0.3530060  -0.0911586   0.0231249  -0.0988204
  -0.1137541  -0.8547853  -0.0503429   0.1499239  -0.4584817   1.1729325
   0.1629288   0.0708856  -0.2424830   0.5146644   0.2450633  -0.7992170
   0.5081135  -0.6698112   0.2691580   0.0101234  -0.3376972  -0.5276596
  -1.1749880  -0.1655414   0.8076882  -0.1243880  -0.4358904  -0.2264290
  -0.1805962  -0.0695397   0.0866628  -0.4018496   0.5748983  -0.0709436
  -1.6653819   0.6542246  -0.9135219  -0.2110753  -0.1136747  -0.2900797
  -0.4381062   0.5144969   1.0063043   0.7677448  -0.1672931   0.4219104
   0.1524006  -0.0289894  -0.1595973  -0.1894271   0.6826119  -0.5050442
  -0.8036461   0.4788845  -0.5076077   0.0821462  -0.1258547  -0.0376134
   1.3604451   0.7892653   0.9740143   1.3886309  -0.5005179  -0.5586139
  -0.1709557  -0.0263998  -0.3223557   0.2643812   0.7319377   0.2724392
   0.3429736   0.9755376  -0.3344789  -0.1963083  -0.0629103  -0.0022777
   1.0549071   0.1992314   0.2244491  -1.1450223  -0.1326290  -0.7333010
  -0.0428432   0.1434473  -0.2732376   0.1537056   0.2168124   0.2945495
  -0.1329461  -1.5928959   0.5366342   0.0243184   0.1150952   0.0311938
  -1.0306803   1.4388283  -0.9270330   1.0050061  -0.9554934  -0.2134546
   0.0712791   0.1300975   0.0807177   1.7393396   0.3647415   0.4267088
  -0.2938149   1.5758954   0.0045080   0.0208130   0.1215699   0.1904732
   2.2124938  -0.7908182  -0.0642121   0.0663925  -0.2560905  -0.0018509
   0.3138609   0.2615033   0.0773269   0.2195283   1.6194099  -0.3248101
   0.4840774  -0.6471207   0.7445326   0.2501960   0.2028109  -0.1790692
   1.0943873  -0.1697821   0.7553481   0.3318672   0.9831285  -0.0878845
  -0.0490160  -0.0256529   0.2724658  -1.5988153   0.4071180   0.4228894
  -1.8754730  -0.0297415  -0.3249926  -0.0879457   0.1377691  -0.1814030
   0.1765240  -0.4561381  -1.4288321   0.2807135   1.5585507   0.0375366
  -0.0502587  -0.2719972  -0.2044803  -0.2515086   0.1931851   0.4484659
  -0.5640189  -1.0338609   0.9780637  -0.0878799  -0.0006770   0.3520288
   0.0816854  -1.3847544  -0.4563256  -0.7777173  -1.2902974  -0.9860425
  -0.0584070  -0.0470925  -0.0718598  -0.2008475  -0.6130641   0.2470487
   0.7000993   0.1315657  -0.8493108  -0.1793635  -0.0634506   0.1057813
  -0.6627024  -0.6633245  -0.1191882   0.6047293  -0.8151670  -1.7748090
  -0.0875986  -0.2962979  -0.2850921   0.1004539  -0.6388303   0.1363940
   0.6611988   0.4000959   1.1832672  -0.1060757   0.1096736   0.2280116
   0.9918403   0.5181085   0.0135320   0.8844211   0.8707242  -0.3071834
   0.1671570   0.0751823  -0.2353115   0.0751060   0.6603072  -0.5993913
   1.2079915  -0.3580777   0.4691684   0.1453044  -0.0489643   0.3109301
  -0.0109648   0.0558533  -0.8515338   0.4325121   1.5919308   0.3905836
  -0.1926087   0.0527860  -0.0758105   1.0377879  -0.2853496   1.2235674
   0.5074147   0.2303665   0.4284618   0.0246042  -0.3131026   0.0861999
   0.0731056  -0.2336768  -1.1370252  -0.7506071   0.3918731   0.3796814
  -0.0236136   0.1349804  -0.1279059  -1.0671108   0.9681084  -0.5924793
   0.2393779  -0.5302429   0.7127021  -0.0313127   0.4105315   0.2532512
  -0.3471475  -0.7661052   0.1111640   0.4151021   0.1367279  -0.2107066
   0.1715385   0.1694220   0.2083882  -0.6089979  -0.1789208   1.3397941
   0.3804105   0.1349669  -0.3510449   0.2560139   0.1551787  -0.0319154
  -0.8166935   0.4126539   1.1139391  -0.3574915   0.0832399   1.1053080
   0.0000407  -0.0045431  -0.1687972   0.0198775   0.0669502  -1.8065288
   0.6304944  -1.0664195  -0.3300096   0.1256995  -0.0627639  -0.0428589
  -0.1123235   0.5754056  -1.4637132  -0.0257880   0.5130202   0.7297197
  -0.1230232   0.0637298  -0.0147195  -0.5694969  -0.5013623   1.1035078
   1.1240636   1.1220698  -0.8862767   0.2689248   0.4183306   0.1823446
   0.6841322  -0.0824704  -0.6179719  -0.6699911  -1.2121851   0.3871609
  -0.4567350  -0.1272365  -0.2355634  -0.4273693   1.0196399   0.2200089
  -0.0425459  -0.6751750   0.0690008  -0.1174142  -0.1015311   0.0133914
   1.3471722  -0.0137663  -0.3710854   0.4149217  -0.1637350   0.5842255
   0.0328036  -0.1227564   0.1555215  -0.4355355   0.4314817  -0.4224499
   0.4493500   0.0073399  -0.5444194  -0.1506541   0.1052877  -0.2188276
  -1.0157722  -0.7291155  -0.1916328  -0.6324311   0.0486104  -0.9065654
  -0.2387627   0.2652831  -0.0209592  -0.1822469  -0.6837342   0.0841646
  -2.2326209  -0.9295849   1.2068321  -0.1044517  -0.1179940  -0.1528069
   0.5996041  -0.9168791  -1.3233556  -0.8805794  -0.2001871  -0.4508775
  -0.3478990  -0.0365167   0.1012367   1.0153636  -0.2357919  -0.7397038
  -0.4269516   0.6753281   0.4880203   0.1428712   0.0643906   0.0284293
  -0.5146648   0.3150945  -0.8937185   1.4700800   1.1216199  -0.6914802
   0.0000513  -0.0092152  -0.3292924  -0.0791688   1.3233285   0.2799957
  -1.7856412   0.9753709   0.4639170  -0.0293911   0.0587568  -0.0554525
   1.0960312   0.1531716  -0.7261103   0.6768949   1.0970167  -1.1955651
   0.1054913   0.1699778   0.3038229  -0.4332202  -0.8423824  -0.7133869
   1.0884904   0.7990390   0.7358311  -0.0745762  -0.1231081   0.0683886
   0.8210123  -0.0049078   0.6191244   1.3275667   0.3650416   0.2285578
  -0.2276465   0.1494407  -0.1125374  -0.6055719  -1.3014415  -0.6838772
   0.9187191  -1.2943003   1.1362920   0.0410162   0.0407129  -0.1015158
   1.2420946  -0.0300093   0.4830301  -1.4837367   0.0976885  -1.2998122
  -0.1881091  -0.1878476   0.1747449  -0.4696340   0.1065968   0.2166731
   0.2493077  -0.6196313  -0.5507709  -0.1284520   0.1400333  -0.3964828
   0.0333067  -0.6797059  -0.4342776  -1.0231857  -0.5159505   0.3516333
  -0.0678780  -0.0773097  -0.2861470   0.4410713   0.3314629   0.4639208
   0.7259213  -1.0721699  -0.2360894  -0.1663662   0.3427459   0.0865776
  -0.7338654  -0.0256862  -0.2230191  -0.7077625   0.5355705  -0.0004686
   0.0118230  -0.2818904  -0.1537177   1.6280535   0.1333873  -0.3956329
   0.4063176  -1.2103570   0.3737568   0.0145640  -0.0277041   0.0664277
  -0.6656230  -0.1935688  -1.1163953  -0.4567381  -1.7112066  -0.0128355
  -0.0113027   0.2815943   0.3458996   0.9981366  -0.7898186  -1.2963708
   0.2498394   0.5393877   0.5137117   0.1967380   0.0868895  -0.1753082
   0.0499130  -1.0158406   0.4800304  -0.0079835  -2.2078120   0.1740600
  -0.1065239   0.2208549  -0.4043724   1.1487759   0.4824670   1.0679940
  -1.6089183   1.4773917   1.0390441  -0.0757343   0.0909414  -0.2507383
  -1.4100052  -0.3067215  -1.1112606  -0.2421973  -0.1494915   0.4685385
  -0.1203837   0.0961172   0.0483943  -0.8393789  -0.8289613   1.2806560
   0.9716972   0.4087593  -1.1360462   0.1170924   0.0162249  -0.3590904
   0.5924080  -1.0286669  -0.2782931  -0.1397585   0.3768800   0.8152479
   0.1129734  -0.1471596   0.1350567  -1.3050528  -0.0282591  -0.4023356
   0.3630383   1.2809690  -0.5373967   0.0469214  -0.0424504  -0.1462611
   0.3121716   0.2519877   0.9673788  -0.3770887  -0.0921720   0.2466756
   0.1994227  -0.0082335  -0.3276545   0.2384289  -0.6576166   1.0845965
  -0.8349890   0.1837248   0.0205057   0.2422048  -0.3532918  -0.2213300
   0.1723229   0.3587696  -0.5297966   0.4821319   0.6971921   0.2353452
  -0.1842353  -0.0308703   0.2884706   0.0824951   0.7206260  -0.0471775
   0.0101466   0.0076727   0.3417099   0.1171861   0.2106910  -0.1669799
   0.4346527   0.3477167   0.0152966   0.9647304  -0.9401400  -0.7876514
  -0.0612882   0.4206165  -0.0784776  -0.8785138  -0.1605617   0.5671032
   0.7307208  -0.1365785  -1.1567919   0.0197911  -0.4050329   0.0663878
  -0.4563127  -0.3881952   0.6281245  -0.3421158  -0.1422023   0.4014294
  -0.0138965   0.1474840   0.1922600   0.6462634  -0.4037535   1.3252570
  -0.0248535   1.3119479  -1.0212548   0.0675134   0.0807901   0.3516965
   1.2897431  -0.2082821  -0.2111580   0.5440606  -0.4489860  -0.5009678
  -0.0746472  -0.1572493   0.0400316   1.1465328   0.3210089  -0.7047635
  -0.5432765   0.2423214   0.3536630   0.2082408  -0.3156395  -0.1155861
   0.1355056  -0.3526613   0.1406528   0.7383653  -0.2283274  -0.3332281
   0.0051252   0.2119184   0.5445942  -0.2866603  -0.1441775  -0.0321687
   0.2194992   1.2411309  -1.0351265  -0.0797818   0.0779371  -0.3490109
   1.4950191   0.9204911  -1.3314933  -0.3925204  -1.5985743  -0.2363111
  -0.0607342   0.3026988   0.0255696   0.8172833  -0.5976938   0.9145775
  -0.5153213   0.1202057  -0.1112581  -0.0209641  -0.0765121   0.1677198
   0.7029666  -1.0761111   0.5167423  -0.2584554  -0.6254577   0.5089020
   0.0212617   0.1480771  -0.0371650  -2.4054734   0.3623891   0.1627341
  -0.3531206  -0.6266790  -1.5228338  -0.0113166   0.0617289  -0.0761573
   0.6157671   2.1638274   0.0808259  -0.4657944   0.9265477   0.5529119
  -0.0798284  -0.1169282   0.2847048   0.3189802   0.3009476  -0.5520978
   0.2842916   0.1096967  -0.4180703  -0.1251698  -0.2548725   0.1240223
  -0.2156037   0.3088963  -0.3587407  -0.6097552   0.8363517  -0.5789230
   0.1995628   0.0764136   0.1054420   1.8154251  -0.2804921   1.4807576
   0.8023109  -1.0664892   0.4997035  -0.1806862  -0.0690881  -0.0851863
  -0.6066040   0.7458696  -0.1778030   0.2754289   0.4768576   0.0915563
  -0.0584857  -0.1979679  -0.0554081   0.7277268  -0.4428834   0.6470676
  -0.3350709   1.0757757  -0.4034135   0.2357109   0.1475705   0.2093266
   1.0316808  -0.0365227   0.9689507   1.3229019   0.3373347  -0.6206727
   0.2248685   0.1637790  -0.1466444   1.3116551   0.8115524   0.0135314
  -0.6044378  -0.0930984   0.3768654  -0.2833584   0.0749577   0.1225391
  -0.9426402  -2.1579862   0.7351968  -1.0224459  -0.0116764  -0.6204557
   0.1436541   0.3378414  -0.0760379  -0.2889344  -0.0236609   0.6076999
  -1.4979746   0.8656019  -0.0656145   0.1238578   0.1009311  -0.1062126
   0.7035523   1.0927284   0.2566475  -0.0371130  -0.6701314  -0.8410262
  -0.0203488  -0.1101822  -0.0696886  -0.5161798  -0.3933075   0.0065667
  -1.2064701   0.4536131   0.4353080  -0.4362176   0.2425737  -0.3231053
  -0.6019786   0.4513572   0.8828150   0.0235755   2.3271234   0.1883197
  -0.0501657  -0.1081478   0.4861174  -0.4126837   1.0560551   0.8415730
  -0.4266348  -0.8199338   0.2419427   0.0564208  -0.0296020   0.0791360
   2.0225354   0.4560197  -0.0312742   1.4769444   0.4299206   0.6280244
   0.1647654  -0.3814873  -0.1153781  -0.4287967   0.2889353  -0.4411118
  -0.1670143  -0.1220672  -0.8401718   0.1933770  -0.0360057   0.0967777
   0.5133824   0.7364845   0.4060070   0.1439773   0.1155355  -0.2593915
  -0.0113992   0.1922607   0.1383994  -0.9566411   0.1314051  -0.2294967
   1.3692692  -0.1014388   0.3906296  -0.0504511  -0.2785553   0.0551110
   1.4499071  -0.3904638  -0.7344893   0.1852704  -0.3473747  -0.8047325
   0.0061257  -0.0132068   0.0719233   1.1367387  -0.5680504  -1.1758791
   0.4730477  -0.0513713  -0.1209067   0.1277740   0.1328063   0.0357845
  -0.6618025   0.4583358   0.3721018  -0.7220469   0.7841459  -0.6647667
  -0.0796489  -0.2216313   0.1821992  -0.8472840   0.5760122  -0.1993002
   0.6203463   0.0456583  -0.7593197   0.0393451   0.2819336   0.1064542
  -0.3271489   0.0792572  -0.9962723  -0.2418158  -0.2863348  -0.3036440
  -0.1061219   0.0377463  -0.1266513   0.8479281   0.3963169  -0.2462951
  -0.5167371   0.2039167   0.3656354  -0.0162831   0.2343714  -0.0870781
  -0.8038808  -0.1609843   0.2466181  -0.0941417  -0.6036688  -0.4826109
  -0.1934981  -0.2686628  -0.1016504   0.0755376  -0.7164393   0.3186735
  -0.6605683   0.9079503   0.3785128   0.2900243  -0.3777771   0.2732389
  -0.8196892   0.4662245   1.5946710   0.9043810   0.4268199  -0.8265289
   0.0480930  -0.1201533   0.2953551   0.2334443   0.6845128   0.2956303
  -0.3573655   0.3050235   1.2932817  -0.0139726   0.0616162   0.1634413
  -0.3324713   0.7521763  -0.1342941  -0.4837003   1.0892300   1.1079558
  -0.2189733   0.3050597  -0.4635208   0.5096885   0.4187211  -1.3309597
  -0.6645805  -0.4471862   0.7553159   0.1440054   0.2884251  -0.1823895
   0.1955564   0.6863331  -0.7007687  -0.7512819  -0.0672931   0.3080956
   0.3479402   0.1300713   0.2215143   0.7787386  -0.7655388   0.1421550
  -0.7894266  -0.4935730  -0.6472269  -0.3172543  -0.0664723  -0.1587141
  -0.5390873  -0.4099374  -0.0626394   0.2019954   0.1319606   0.3082651
  -0.0624978  -0.0600872  -0.1366333  -0.9920526   0.5906773  -0.3747470
  -0.7917137  -0.8699413  -1.2412033   0.0695536  -0.3451330   0.0306429
   0.3992124  -0.9887360   0.3653486   0.5235707  -0.1816772   0.8290906
  -0.1557159  -0.2100709  -0.1559435   0.5539028  -1.9967598  -0.3073122
  -1.2657920  -0.3268808   0.2799925   0.1003500  -0.1550320  -0.4137169
  -0.6938014   0.8381007   0.5980334   0.8331050  -1.3069746   0.3026984
   0.1845173  -0.0266350  -0.1083422   0.4660393  -1.5292446   0.5639292
   1.3225292   0.2544940  -0.7640943   0.0766622  -0.0613651   0.1158955
  -0.9915142   0.0788383  -0.0131679  -0.6833339  -0.1719589  -0.3544216
   0.0239960   0.1855232   0.0850644  -0.8157310   0.3137915   0.3970305
   0.6680350   0.0978568  -0.3101999  -0.0608817  -0.0983880   0.0392204
  -0.8772253  -0.2258461   0.3638555  -0.0776457   0.9463899  -0.0843559
  -0.0490401   0.0038450   0.4782784  -1.1350333   0.0305502   1.0499212
  -0.2634051   1.2917863  -0.8164994   0.0635214   0.3293046   0.1180677
  -0.3858368   0.2900686  -0.8295775   0.2283494   0.6313807   0.6304048
   0.1421726   0.1295507  -0.2833846  -0.5902054  -0.8972334   0.1647517
  -2.3520391   0.2393136   0.9677685   0.0657050   0.2895891  -0.3838316
  -0.1216382   1.3218796   0.7012679  -0.3768750  -0.8838930   0.4789788
   0.1644410   0.1262651   0.2003461   0.2622394  -0.3657932   0.6573019
  -2.2077658  -1.1760424  -0.8772863   0.2953237  -0.4114062   0.0697834
  -1.4238159   0.8495641   0.5222883   0.7676251   0.1820758  -2.2272015
   0.2107655  -0.0150878  -0.0777426  -0.3315105  -0.3673941   0.3726070
   0.4436487   0.3414235   0.0855403  -0.0857640   0.0212769  -0.0902939
  -0.0597996  -1.1636494   0.1374495   0.3605281   0.3012060  -0.8679283
   0.0316433   0.1469632   0.0859978   0.1640709  -0.8468860   0.6633034
   0.5149864  -0.5231629  -0.5670663   0.1894903   0.0740814  -0.0070847
   1.4479241  -0.3702271  -0.5710996   0.2822663  -1.3675388   0.0125359
   0.0754021   0.1371261   0.1012938  -0.6947370   0.5066773  -0.9031678
  -0.0674554   0.8687128  -0.4046391  -0.0188056  -0.3431855   0.1010143
  -0.4089957   0.9982039  -0.5619826   0.4333765  -1.1041166  -0.2486265
   0.0127078   0.0650838  -0.2093282   0.2274459  -0.0068910   1.8532750
   1.9627247   0.3602588  -0.8744253  -0.0418616   0.0295841  -0.0709121
  -1.5261989   1.0220478   0.6273767   0.0743217  -0.6297973  -0.8617506
  -0.0349615   0.0034996  -0.0082213  -0.0527292   0.3122101  -0.8316160
   0.9696067  -0.7075665   0.9033386  -0.2213457   0.0075680  -0.0599900
  -0.4725079  -0.5054727  -1.4914852  -0.0587828   0.9847835  -0.8852000
   0.2111371  -0.1839136  -0.0370573  -0.9964459  -0.2511688   0.4164589
   0.3351457   0.1321587   1.1739107   0.0933239   0.1790328  -0.0164103
   0.0995466  -0.7562561   0.4217199  -1.3873527  -0.2707048   0.0208690
   0.0959548   0.1823486   0.0410380  -0.1466727   0.6843947   0.9683642
  -2.1969056   0.8419101   0.7933650   0.2623417  -0.1698576   0.0725780
  -0.5588738  -0.3158193  -0.5593594   0.3061381   0.2563707  -0.5723246
   0.0889735  -0.0355164  -0.0138765  -0.1697909  -0.6912175   0.6081935
  -0.2138226   0.7509323   0.6577701   0.3055087   0.0547193   0.1625335
   1.2339951   0.9684490  -0.7467889  -1.2152504   1.1282534  -0.0970839
  -0.0407813   0.1955065  -0.0443632   0.3935931  -0.2145595  -0.3876173
  -0.5200756  -0.6102517  -0.4046816  -0.0387439   0.1397586   0.2944086
  -0.6946912   1.0010154   0.1697271  -0.3304700   0.6564560   1.0116344
  -0.0377955   0.1316340  -0.0206265  -0.0783153  -0.0161652  -0.5183955
  -0.4909039  -0.0479547   0.2633076  -0.1244241  -0.2298222  -0.2325843
   0.9483945   0.3830440   0.1627886  -1.0333616   0.2795424   0.2150849
  -0.2240743  -0.0044314   0.0077738  -1.3487265  -0.5510032  -0.8484116
  -0.8582828   0.3996229   1.2204512  -0.1655068   0.2077229  -0.0543963
   0.3224611   0.8104532  -0.2108073   0.3377477  -0.0370453  -0.2694871
  -0.1045887  -0.0125972   0.0321815   1.1563264  -0.1907763  -0.8550368
   0.3967193   0.3882799  -0.3244594   0.0151158   0.0977796   0.1082161
  -0.3709932  -0.6994643   0.7443350   0.7027060   0.6663457  -0.5025278
  -0.0377568  -0.0304870  -0.1428811   0.4939422   1.3766479  -1.3012747
  -0.3452462  -0.6597966  -0.1517836  -0.2769518  -0.1246793  -0.1220099
   0.1941334   0.1966751   0.0088438   0.1661137  -0.6385811  -1.3025157
   0.1722790  -0.2292011   0.2598273  -1.6975211   1.5731309  -1.1942238
  -0.4830119  -0.7235012  -0.5016047  -0.0206645   0.2809189  -0.2568251
  -0.6940559  -0.1252986   0.5561532  -1.1417902   0.8873860   0.2472876
   0.1489969  -0.2510879   0.1593384  -0.2441545   0.3651984  -0.0977942
  -0.4292079  -0.1946939   0.4627058   0.3513310  -0.0257447  -0.1903052
   0.2970729   0.5603311  -1.3242488   0.1918607  -0.3181499   0.0677812
   0.0428244   0.0678393  -0.0421162   1.0795008  -0.7584788   1.1446852
   1.3466810  -0.0086183   0.0105171   0.0218879  -0.2835476   0.2387150
  -0.3709201   0.7762722   0.1016499  -0.5972087  -0.4810425   0.2389817
  -0.4306001   0.3680223  -0.2070361  -0.0794735   0.0315024   0.3898410
  -1.1383002  -1.3061844   0.0764233  -0.3696119   0.3595539   0.0230936
  -0.3787782  -0.5895005  -0.9360038   0.5943230  -1.5532496  -0.8319615
   0.0592328   0.0999396  -0.1180225   0.7750760  -0.5662241  -0.7504378
   0.4583383  -0.5953754  -0.9183940  -0.0763390   0.2052650   0.1545232
  -0.5153474  -0.0831047   1.0472330   0.5423197   0.9410763  -1.3625586
   0.0957594   0.0197875  -0.2695052   0.7351298   1.5158928  -0.7443775
  -0.5670900   0.5667998  -1.3215886  -0.0466958  -0.2634551  -0.0446765
   0.4702874   0.1921900   0.2590709   0.3721498   1.1645302   0.3773312
   0.1597868  -0.3623799  -0.0370592   0.5732111  -0.2649408  -0.9071787
  -0.4823095   0.9289205   0.3211371  -0.1200426   0.0401412  -0.0876223
  -1.0477267   1.6250024   0.3863518  -0.1957290  -1.9733796  -0.9724367
   0.0579290  -0.0430290  -0.2126767  -1.1754016   0.2909728   0.0285108
   0.9271288  -0.3460770  -0.0623052  -0.3488976   0.0414043  -0.3861159
  -1.7678252  -1.0573473  -0.5577205   0.4555267  -0.5287716   0.5766001
  -0.0097494   0.0287686   0.1499403   0.1124407  -0.0248598  -0.0414348
  -0.5889802  -1.3554655   0.9131278  -0.0079921  -0.2227354  -0.2002508
   1.5603362   0.4280996   0.7821822   0.3245285   0.3935613   0.6335956
   0.0551633  -0.1182703   0.1066369  -0.1630650   0.5081131  -0.2999272
  -0.7526007  -1.0585918   0.2403868   0.1475523   0.4580588   0.3410044
   0.4899690  -1.5506587   1.3672355   0.6984379  -0.7090021  -0.3755816
   0.0640078  -0.0091687  -0.1305390  -0.2248925   0.7570518   0.7775880
  -0.0399902   0.2028748   0.0633120  -0.1245198  -0.0984089  -0.2341780
   0.1573161   0.6738484   0.4953582  -0.8100541  -0.5601763   1.3404910
  -0.1201186  -0.3104777   0.2147480   2.0380029   1.3784256  -1.3200834
  -0.3455657   0.4194458   1.0732218   0.0051170   0.0328176  -0.4103671
  -1.0028086   0.2010187  -0.0816505  -0.6523775  -0.1784498  -0.7456683
   0.0733081  -0.0473617   0.1144348  -0.4610385   0.5860845  -1.0197891
  -0.1427704   0.2591935   0.1271096  -0.0823910  -0.1060225  -0.3160472
  -1.6264901  -0.1458841  -0.3626989  -0.9377758  -0.4926402   0.8962062
   0.0190677   0.0674129  -0.0332938   0.6490976   0.0425606   1.0646615
  -0.2178232   0.2287884  -0.2737954   0.2485984  -0.1596421   0.1967049
   0.9760333  -1.0344986   0.0841917  -0.6789558  -0.5416244   0.8031957
  -0.4136748  -0.5062162   0.3760321  -0.4911752   0.1762749   0.6393949
  -0.1372193  -0.5065756   0.1380165   0.1401117  -0.5436361  -0.0396446
   0.0942965  -0.3439442   0.6057800  -1.3330625  -0.0763900   1.1483523
  -0.2398407  -0.0916100   0.1014204   0.2760258   0.4471115   0.4090108
  -0.2603005   0.0823916   0.4448489   0.2183918  -0.2607591  -0.1968980
  -0.5048034  -1.5575840  -0.3782683  -0.3802762   1.2286329  -0.1350077
  -0.1022939   0.1762939   0.1068693  -0.2933025   1.3460841  -0.7992910
  -2.3963395   0.3545502   1.0449871   0.1326611  -0.1589717  -0.0825271
  -1.1296378   0.5243315   0.0341631  -0.5818936  -1.0638148   0.1324926
  -0.2436278   0.1465041   0.0089440  -0.5087311   1.5965233  -0.4499411
   0.4343045   0.0797231   0.5070426   0.4439978   0.2085437  -0.1276840
  -0.2192263   1.1242842   0.2167557   0.8260157  -0.6013786   0.5477062
  -0.2853410   0.2529917   0.0793026   0.5120970  -0.6750627   1.0125487
   0.8361929  -0.4774491   0.3429513  -0.1475461  -0.2116770  -0.0964449
  -0.7793651  -0.2886878   0.9241213  -0.1393485   0.8486619   1.4790928
  -0.2103950  -0.0313002  -0.0759375   0.4452224   0.6713872   0.3706050
  -0.0236067  -0.7056358  -0.1990359   0.0854683  -0.4141096   0.2960740
   0.8257229   1.2080734   0.9411789  -0.6071302   0.7163917   0.4868832
  -0.3366933   0.0204584  -0.0348126   0.1083794   0.1411252   0.0316385
   1.1665264  -0.4501052   0.4303450  -0.0489765   0.0469383  -0.2731779
   0.9598387  -0.8505786  -0.5132032  -1.1508883  -1.0441883   0.4918841
  -0.0844084   0.3559590  -0.0352601  -0.7210480  -0.5616453  -0.0337412
   0.1300667  -0.9364251   0.8872161  -0.2020096   0.0183880  -0.3263578
   1.6103573   1.4033172   0.0640725   0.8794209   0.0359173  -0.6837995
  -0.2285374   0.2496849  -0.1101496  -1.6944819  -0.9667937  -0.2651884
  -1.0521964   0.4914980   0.2820370  -0.2823274  -0.3172551   0.6124459
   0.4260518   1.2389836  -0.1698172  -0.0262709  -0.9976009   0.8520896
  -0.0161187  -0.2473184   0.4243793   1.0426396  -0.1445758   1.7497687
   0.3145646   0.4029435   0.0960852   0.2126751   0.2322813  -0.1332976
   1.1298181  -0.8453828   1.2793237  -0.0886220  -0.5893606  -0.8563535
   0.2040097  -0.0404401  -0.0169016   0.1414339  -0.2892999   0.3326809
   0.6170984  -0.0478942  -0.8094195  -0.1259168   0.1320865   0.1422861
   0.5448616   0.9972763  -0.6703689   0.4197705  -0.2232070   1.2392774
  -0.1609371   0.1889916  -0.0966487   1.1464639   1.3482043   0.1785155
  -0.0267835   1.1214806   0.4002384   0.1054889  -0.0451341   0.0891293
   1.9919271  -0.8850215  -1.2686305  -0.2813369   0.0068691   0.4767640
  -0.0870313  -0.2090486  -0.1919376  -0.0445285  -0.0771419  -1.6842947
  -0.1876842   0.1379510  -0.0366886   0.2993646   0.2716760  -0.1029081
   0.0683377  -0.5159756  -0.9803844   0.0974319  -0.7263071   0.1914381
   0.2994927  -0.0930927  -0.0497273  -1.7248836   0.1796776   0.0381267
  -0.5059061  -0.8904511   0.1906787  -0.0782627   0.2868697  -0.1351200
  -1.4417750  -0.6789062   0.7528956   0.5715812   0.1096332  -0.4031410
   0.0316854   0.2523702  -0.0651767   0.0790409   0.3732828  -0.8837293
   1.9471495   0.0356928   0.7867399  -0.0457718  -0.1763734  -0.0353140
   0.3263583  -0.1759034   0.0718760   0.7143113   0.4482624   1.0259070
   0.0590370   0.2138254  -0.3970039   0.1237075   0.5218470   0.5278142
   1.8964194   0.0784816   0.6198648  -0.0612106  -0.2003124   0.0698142
  -0.2090296  -0.9023729   0.9886454   1.0756834   0.7933892  -0.4693278
   0.1243739  -0.0079375  -0.3306024   0.2178212   0.2423407  -1.2964760
  -0.1018298  -0.4613098  -0.5944803   0.1035938   0.0644945  -0.1060730
   0.4703198   0.3898086   0.6314717  -0.8505010  -1.2653805  -0.6063817
   0.1950077  -0.1281857  -0.0027245   0.0425689  -1.5602590   0.9986025
   0.1448320   0.2347412  -1.4199749  -0.3457857  -0.2641399  -0.0836994
  -0.9480476  -0.6573979   0.2694307   0.4723892   0.9872721  -0.4255318
   0.1599673   0.3795860  -0.1286106   1.3397655   0.4989804  -1.0128727
   1.3065813  -0.3317266  -0.4868961  -0.3159415  -0.0039709   0.3957991
   0.2137206   0.8520457   0.2107766  -0.1923981   0.1429437   0.5240984
   0.2756646   0.1995460   0.1816642  -1.5797421  -1.2425740  -0.2742213
  -1.1077735   0.2633738  -0.1529371  -0.0491440   0.1556797   0.1766635
   1.1383716   0.8243495  -1.0422113   0.2609781   0.6883371   1.0820719
  -0.0253949   0.0254478  -0.0522248   0.5499269   1.0180167  -0.1108672
  -0.0229747  -0.1236061  -0.9207062  -0.0983199  -0.2786552   0.3917815
   0.5108465   0.9166669   0.2773914  -0.5519262  -0.7492728   0.1134933
  -0.0654603   0.3431991   0.1392133  -1.9354108   1.5428571  -0.2172139
   0.4864890   0.1299142  -0.1725621   0.0265360  -0.2650097   0.3007462
  -1.0844113   0.7761138  -0.4097199   0.4886243   0.4719500  -0.3738313
  -0.0432339  -0.1475777   0.1912290  -0.0221387  -0.9439641   0.1995549
  -1.0538099   0.1728177   0.4723184  -0.0587317   0.1422355   0.4112628
   0.5229582  -0.2363222  -0.3493036   0.7720574  -0.3742247   0.5981391
   0.3096364   0.1982330  -0.1700860   0.3703871  -0.1386880  -0.2779125
  -1.2980778  -1.6464382   0.0245226  -0.0587494   0.5013975   0.2344671
  -1.4575825   0.6289538  -1.1427325   2.2151071   1.0978476  -0.1013668
  -0.0204763   0.1501833  -0.0013683   0.0887791   0.1596920  -0.6779297
  -0.5503285   0.3449861  -1.0977668  -0.0971157   0.1976299   0.0642156
  -0.0781366  -0.0888347   0.6197724   0.5237653   0.7897003  -0.7644320
   0.0364323  -0.2460647  -0.0452739   0.8191065   0.7889787  -1.0476447
  -1.0879439   0.0181774   0.2511601   0.0053944   0.2246821   0.4866389
  -0.3031014  -0.9761369  -0.0531644   1.0571450  -0.6187682  -1.5709496
   0.0709188   0.1711132  -0.3810308  -0.2507840  -1.1443018  -0.7919560
  -1.1097939  -1.8907781   1.8250160   0.1064499  -0.0142821  -0.0066684
   1.0765280  -0.1995122  -0.4848652  -0.4455679  -0.0506440   0.1402399
  -0.0843558  -0.0670879   0.2313369  -0.2895106  -0.0537481   1.0678661
  -0.9021459  -1.4306650   1.2260881  -0.0491592  -0.2244396   0.1864713
  -0.0607086   0.0803574  -0.6537507   0.2952242   0.0401651  -0.3158867
   0.5522824   0.1350647   0.2365604   0.8091017   1.2160197   0.4287092
   0.3248146  -1.3706334   0.2087684   0.0257064   0.0017363  -0.0996601
   0.8103520   0.6351820  -0.6973269  -0.2734927  -1.2550387   0.8853904
   0.4090499   0.0925489  -0.4002894  -0.7131839   0.0234463  -0.0576185
  -0.6322284   0.6936615  -0.4638988   0.0335125  -0.1596682   0.0186180
  -0.0040512   0.5021414  -0.9194949   1.1059589  -1.2426769   1.9754496
   0.0502245  -0.0116062   0.1077388  -0.4071908   1.2929972   1.1553367
  -0.4771677   0.9151280  -0.0366103  -0.0074197   0.1126709   0.0707554
   0.6995054   0.3921073  -0.8337168  -0.2386513  -0.2290067   0.6354768
  -0.0784976  -0.0277921   0.2937998   0.2572159  -0.0178064  -0.3105563
  -0.7273094  -0.1417174   0.8986720   0.3173363   0.1266608  -0.0908867
  -0.9511114   1.5443276   0.6582004   0.0322494  -0.2126443  -0.7642991
   0.0064256   0.1283363  -0.0533333   0.2819017  -0.3735184  -0.6393534
  -0.0486518   1.4144297   0.5429061   0.2584348  -0.2516403   0.0728033
  -0.7741030   0.5140058   0.2914791  -0.5178412  -0.2381005  -0.6883641
  -0.0071479   0.0228382  -0.1344196   0.1907386  -0.2435755   0.1944202
   0.1735344  -0.6397623  -0.9123107   0.2425159  -0.2463612  -0.0603479
  -0.3778090  -0.5698783   0.2210185   0.1849812  -0.2596705  -1.2119050
  -0.0321984  -0.3557760   0.3006857   1.5937966   0.1097984  -0.1376787
  -0.4918295   0.4867528   0.0104081  -0.2130344  -0.0015645  -0.1555028
   0.6570200  -0.2312512   1.6091973   0.8997908   1.0860410  -1.0332573
  -0.1159510   0.0103823   0.1737782   0.1752638   0.4862396   1.7601023
  -0.9895066  -0.0559693  -0.5811934  -0.0621687   0.1131242   0.0961566
  -1.0779409   0.2774899   0.1467710   0.8891927  -0.9754295  -0.6860722
  -0.1889673  -0.1658831  -0.2244104  -2.0128127  -0.2660234   0.5331497
   0.2193671   0.6965828   0.3919522   0.1843174   0.0492430  -0.3640583
   0.1099552  -1.3781259  -0.3584461   1.0502879   0.2905856  -0.2238572
   0.1784428  -0.2532570   0.3781562   0.8034193  -0.3292739   1.1180647
   2.0558025   1.3179571  -0.1604432   0.2223134  -0.1191086  -0.3421335
   1.5190889  -1.3756242  -0.1983980  -0.1806105   0.2038249   0.3374217
  -0.1723058  -0.1252082   0.1210647  -0.9895536   0.9374342  -0.7438609
  -1.5514016  -0.6302352   1.2178365  -0.0914601   0.2931916  -0.0775088
  -1.4091379  -0.0323511  -0.3601904   0.4148728  -1.8956114   0.1738029
  -0.0058164  -0.1749397   0.2800635   0.3406545  -0.5047525   0.4966531
   0.1042532   0.1911148   0.4516714   0.0596528  -0.0359907   0.1612071
  -0.7147281  -0.4846470   0.1521073   0.1336700  -0.0731826   0.5143035
   0.1289258   0.0245397   0.0610520   0.1086581   0.1731500  -0.4552368
  -1.2162987  -0.2784886   1.3902681  -0.2293949   0.2987637   0.0072466
  -0.5140193   0.5230438   0.2656560  -0.4747900   0.5594735   0.8147646
  -0.2257365   0.2068981   0.3036948  -0.9784734   0.2829914  -0.8952282
  -0.1500384   0.6968527   0.1986436   0.2186797  -0.0481675  -0.1226196
  -0.0185416  -0.6877118  -0.1132963   0.5886430   0.7497130   0.4205356
   0.3348067  -0.1600352  -0.0588886   0.6204916   0.0395442   0.5573849
   2.0854420   1.0789165   1.2338031   0.0666102   0.2077222  -0.0470233
  -0.6202809  -0.5290150  -0.6359960   0.4222786   1.0801225  -0.4704679
  -0.1544440  -0.1331843  -0.3314197  -0.5086190   0.2383475   0.7722005
  -0.9831726  -0.0281400  -0.0686015  -0.1028072  -0.0113361   0.2583898
  -0.9161127   1.3154790  -0.2582519  -0.5713866  -0.2121599  -0.4469967
  -0.0034525   0.0794780   0.0884922   0.6775659   0.4023294  -1.0807251
   0.3410494  -0.3189890   0.6486697   0.2907310  -0.2057360  -0.1373534
   0.7089108   0.4249013  -0.0344594   0.7206489  -0.6323393  -0.2904574
   0.1401285   0.2201219  -0.0346357   2.1747929   0.7899773  -0.9324700
  -0.7520416  -0.6362891   0.0384486   0.0567683  -0.1937084  -0.4250853
   1.5841185  -0.1615033   0.1332377  -0.3829469  -0.5298685   1.2235620
  -0.1682662  -0.4171618   0.4139612   0.2710388  -0.1110096  -0.7549227
   0.6961870  -0.9915969   0.0092427   0.0426191   0.2102333  -0.1553615
   0.6945540  -0.7231136  -0.3358842  -1.0256144   0.6605743   0.2927049
   0.3990620   0.1530127   0.0333031   0.4988282   0.4145429   0.5189203
   1.8858235  -1.0903010  -0.9527890  -0.0797127  -0.1416252   0.3519476
   0.3357767   1.2052470  -0.7471801   0.4843595   0.1576977  -0.1810972
   0.1285753   0.0177129  -0.4070370  -0.7529025   0.0540408  -0.1856964
  -1.0880075   0.2974928   0.5071633   0.2286666  -0.1549287   0.4588748
  -1.0412897   1.2264242  -0.1070450   0.3349575  -0.6328259  -1.4489077
  -0.3871738  -0.1439072   0.5056468  -1.2040195   1.0445248   0.7246329
  -1.1853499  -0.8754471  -0.3857536  -0.0074735   0.0411600  -0.0404843
  -0.4165571   0.6765913   0.0285469   0.8225111   0.1823638   0.2737367
  -0.0415737   0.2478039   0.0024601  -0.1340408  -0.5974324  -0.0997798
  -0.3838068   1.7586256  -0.1410086   0.3435646  -0.1854323   0.0767472
  -1.7630023   0.1298846  -0.5086299  -0.1434305  -0.3993227  -2.3057217
  -0.0225958  -0.0792679   0.0465362   0.1297374  -0.2694596   0.1078512
  -0.3109294   1.1332860  -0.1425446   0.2501688  -0.1402216   0.1325680
  -1.2926806   1.3093147   0.5119583   0.1108620   0.0720585  -0.5777413
  -0.0858158   0.0335063   0.2476292   0.4433433   0.2746771  -0.3508507
   0.2836328   0.3251912   0.0086944   0.2340027  -0.1863509  -0.0126195
  -0.0259760   1.0898158  -1.4537188   0.7688915  -0.4013211   0.1767508
  -0.2651420   0.0466262   0.1690186  -0.3288754   0.1189749  -1.3414178
  -1.1290231  -0.4560201   0.1309093  -0.2908713  -0.0064885   0.2939589
  -0.4901439   0.2472077   0.5421870  -0.3231243   1.0309091  -0.5544274
   0.0431003   0.0662049  -0.0281131   0.0149178  -0.3827553   0.7166446
  -1.6907590  -0.7667404   1.0081011   0.0289715   0.1192514   0.1799027
  -0.2887530  -0.6745523   1.8129830   0.4858391  -0.6310856  -0.8686093
  -0.1333423   0.0764478   0.3784123   0.1134524  -0.5443659  -1.2907221
   0.6666084   1.7108156   0.1961011   0.0811463   0.2828835  -0.0502242
   0.5264183  -0.7842945   1.1975748  -0.6322063  -1.1296955   0.1394755
  -0.1163763   0.1191342   0.0636801   1.0091677  -0.7220726   0.0023078
   0.8924900   0.2920875   0.1015544  -0.2310708  -0.0285339  -0.4291822
   0.3437434   0.9870881   0.1309128  -0.1352732  -2.5957477   0.4198777
  -0.0014986  -0.0704199  -0.3667156  -0.4363302   0.2785410  -1.0840283
   0.5933772   0.7171301   0.1271537  -0.2261659   0.4872582  -0.0911730
  -0.7127744  -0.6499207   0.0039845   0.4470216  -0.5425318  -0.2815660
  -0.3036604  -0.0144958  -0.0978388  -0.1621094  -0.1385341   0.7133802
   0.9288166   0.3053961  -0.3393962   0.1098765  -0.0431297  -0.1448265
   0.8554107  -0.5151736   0.0822060  -0.1714241   0.7840061   0.3649222
   0.3097726   0.2407618   0.0662023  -0.0456666   2.2238049  -0.6795020
  -1.1599351   0.2523091  -0.4642561  -0.1029801   0.2378674   0.3638095
  -0.3396845   1.5800004   0.2326801   0.6525086  -0.2029189  -0.0864270
   0.1740856  -0.0442553   0.2846057  -0.1526107   0.8544967  -0.4211066
   0.2571896   0.0413852  -1.5589990   0.2361130  -0.1405688  -0.1082857
  -1.5945886   0.4135810  -0.3164251   0.8499152   0.2787236  -0.0198635
   0.0458277   0.2656553  -0.0322556  -1.4154547  -1.2263898  -0.4093727
   0.7378072  -0.4789369   0.0687832   0.0688867   0.0611106   0.0376053
   0.0925655  -0.4311574   0.8768761   1.1956284  -0.0249956   1.0840940
  -0.0140533  -0.3599221  -0.2472814   0.2531301  -0.8446149  -0.3978957
  -0.2859250   0.1901692  -1.0962674  -0.0752098  -0.0557270  -0.1732181
   1.2281546   1.4019332  -0.4910872   0.2977803   0.5401371   0.1807285
  -0.0914609  -0.0485441   0.3748317  -0.9879886   0.3967926  -1.9295333
   1.0560672  -0.7789870   1.5855080   0.2870611   0.0769153   0.1852474
   1.1846145   0.0162455  -0.4141931  -0.9356323  -0.5601148  -1.6739246
  -0.0775708   0.2810721   0.1805569  -0.7372868  -1.2440666  -0.6136277
  -0.4388862  -0.5627672   1.4735379   0.4811998  -0.0633835  -0.0254294
  -1.1882213   0.1474393   0.0157357  -0.1171573   0.5234119  -0.5475449
  -0.1048846   0.0355596   0.1923960   0.4711407   0.0149146   0.1359263
   0.1136877  -0.3486384  -0.1483177   0.0914334   0.1651203  -0.1796176
   0.0434833  -0.4835728  -0.2771907   0.8123849  -0.4890048  -0.8485790
  -0.2066578  -0.0595033   0.0796454   0.2353007  -0.6565995   0.0875645
  -1.0004787  -1.0453124   0.8351454   0.0071109  -0.2236224   0.5099988
   0.9509397  -0.1418319   0.9417238   0.6310551   0.2990059  -0.6307912
  -0.0034181  -0.0225368  -0.0268117   0.0988278   0.0454886   0.5638033
   0.8987372  -1.5714170  -0.3947922   0.1064704   0.2109119  -0.0912657
   1.1922122   0.6281476   0.1157256  -0.0204151   0.4270245   0.6305840
  -0.1425864  -0.0388421  -0.3229155   0.9985379  -0.2345085   0.2860571
   0.7938394  -0.1945376   0.6780091   0.3141109  -0.3230465   0.0338787
   0.2880883  -0.4145443  -0.2270256   1.3193550  -0.2896483   0.6372803
   0.4113862   0.1289315   0.0962706  -0.2373343   1.0736186   1.0177889
  -0.0338780   0.2773184  -0.3302835   0.0909331  -0.1227122   0.2370398
   0.1025801   0.0257179   0.2670039  -0.0141370   0.2016630  -0.1936551
  -0.0889792   0.0773343   0.1145580  -0.3492099   0.6622055  -0.6942643
   0.4383329   1.3175769   0.6562045   0.0737420  -0.1025365  -0.0985703
  -0.2181986  -0.9546357  -0.7132915   0.3879489   0.7737890   0.6357166
  -0.0349952  -0.1260837  -0.2930358   0.9143098   0.1634376  -0.4002752
   0.1752146  -0.7259664   0.3193797   0.2618524   0.1164433   0.2002860
  -0.1591299  -0.9006783   0.4642952  -0.2258766   1.4183428  -0.4360065
  -0.0912883  -0.3768321   0.1152925   0.5595311  -0.0286406  -1.1620401
   0.4277151   0.6078127   0.0810118  -0.0578923   0.1269278  -0.1508461
  -1.1030002   0.6107394   0.6314882  -0.2532254  -0.1771494  -0.1393161
  -0.0304052   0.1127806  -0.4456528  -0.0251445   0.2657014  -0.0461006
  -0.1325217   0.2816677  -1.4694960  -0.1555336  -0.0360476  -0.0247783
  -0.1626638  -1.8252724  -0.8744484   0.2439403  -1.2906069   0.3529149
  -0.2476595   0.1700430   0.0551503  -1.1823984   0.2625834  -0.5540706
  -0.0787327   0.1028870  -0.1504457   0.1420741   0.3007043  -0.0785934
   0.6718473   0.5894770   1.1654078   0.2395674   1.8729462  -0.3718390
   0.0275786   0.1397577  -0.0044979   0.2172094  -1.4066192  -0.1110072
  -0.5811653   1.1663028   0.7064918   0.5268841  -0.1222730   0.0562459
   0.9151140  -0.4408383  -0.8671133   0.6766711  -0.0533520   0.0177512
   0.3200441   0.0094346  -0.0003819   0.6641035  -0.6209231  -0.9065542
   0.8205601   0.6156670  -0.3362850   0.0131063  -0.1155718   0.0238077
   0.5379590  -1.0969821   0.5262607  -0.5793237   0.8259928   0.6049114
  -0.1581827   0.1718249   0.2520520  -0.2316335   0.8549927   0.0105538
  -1.0502428  -0.0321482   0.4253371  -0.0096474  -0.0569848  -0.1545864
   0.5050014   0.9692338  -1.3765697  -1.1425387   1.9533499   0.7804493
   0.2928037  -0.1220775  -0.1331858  -0.1111772   0.9687616  -0.1212898
  -0.9246559   0.7319190   0.7409903  -0.2462805  -0.1491668  -0.1419184
  -0.3163849  -1.4963336   0.9769840   0.6969472   0.1488831   0.1449358
   0.2278954  -0.0578730   0.4598619  -0.4627300  -0.5154576  -0.4074922
  -0.4265771   1.1062628  -0.6365470   0.2141351   0.0695582   0.3536073
  -0.5864465  -0.4335025  -0.7671404  -0.9975723  -0.9117113   0.0538045
   0.0384844  -0.1089264  -0.0670295   0.3614669   0.0549554  -0.0667274
   0.0259119   0.9441054   0.8069942  -0.0891229   0.1082716  -0.4754211
  -0.4019337   0.9780807   0.6902085   1.1428192   1.6256274   0.0713622
  -0.0408743  -0.0619078   0.0954410  -0.5792069   1.0343749   1.2843698
  -0.7588741  -0.6441093  -0.9460406   0.1723641  -0.0097013   0.1015530
   0.9339895  -1.0175644  -1.5145989  -0.5569507  -0.7050746  -0.9747517
   0.0477233  -0.1253620  -0.0370567   1.7817148  -0.2050002  -0.8644830
   0.5790074  -1.5400594  -1.3664115  -0.0990415  -0.1287215   0.3883542
  -0.6541327  -0.5976616  -0.2734359   1.8136992  -0.0804478  -1.2116411
  -0.1419118   0.0172669  -0.1572008   0.4115059   0.7018615   0.5798072
   1.0086919  -0.6781164   0.2281784   0.1337163   0.0834109  -0.2836832
   1.0793104  -1.3340407   0.6116178  -0.1594867   0.5349474  -0.9650780
  -0.2467132  -0.1587182  -0.1213756  -0.2431819  -0.8194767  -0.9096216
   0.4594302  -0.2897186   0.2406595  -0.3867271   0.0979214  -0.0215816
  -0.6188333   0.3820920   0.4683706   0.3805353   0.2874900  -0.1713073
   0.0692093  -0.0246208  -0.2112063   0.1707976  -0.9138159   0.8366217
  -0.0272352   0.8342059  -1.3157327   0.3648692   0.0079818   0.1546705
   0.6974769   0.0711261  -0.5641876   0.8386415   0.2553754  -0.6566116
  -0.4226554  -0.2478120  -0.1165075  -1.1623124  -0.3903413  -0.4192560
   0.3815520  -0.2544365  -0.7956302  -0.4318123   0.3704243   0.3126650
   0.2999828   0.2234768  -0.0890889   0.3892902   1.2481572   0.0338780
  -0.2288517  -0.0927485   0.2432291   1.6336994  -0.0853023   1.8608301
  -0.4628324   0.1155354  -0.6394527  -0.0955926  -0.2694141   0.2309795
  -1.2857657  -0.5724640  -0.6567818  -0.3295957   0.8165467  -1.1582668
   0.0473800   0.0275773  -0.0416689   0.1086660  -0.5980944   0.9930303
  -0.2086728  -0.3871924   0.2382176   0.4278371   0.0862447   0.1407460
  -0.7085220  -0.6464813  -0.0142208  -0.7207447  -0.8493107  -0.2889964
  -0.0008842   0.4240221  -0.0463289  -0.0149577   0.0561855  -0.8026974
   0.2294115  -0.2609332  -0.3534785  -0.1550413   0.0506309   0.2460954
   1.2162047   1.7277429  -0.3453371   0.6633756  -0.3978133  -0.1626497
   0.1426524   0.0269614  -0.1703265   0.0221406  -1.3551464   0.1206064
   1.1093378   0.4832679  -0.7940258   0.1137324  -0.3731697  -0.0751407
  -0.8394060   1.3263408  -0.3484424   0.1019112   2.4823108  -0.5606331
  -0.0524687  -0.0892339  -0.1440298   0.4633563   0.0134639   2.3133291
  -0.2412692   0.3783616  -1.1681627  -0.0338368  -0.0825850  -0.1620924
   0.1206069   1.2208228   0.3236631  -0.0903532  -0.1424225   0.4399221
   0.2321369   0.1865610   0.1130716   0.1674656   0.9988092  -0.0017979
   1.5997782  -1.0591926   0.6170478  -0.0239030  -0.3015770  -0.0687271
   0.3443755  -0.5422755  -1.1001880  -0.0948594   0.8513445  -0.2099337
  -0.2932199   0.0898298  -0.4150464  -0.8572648   0.1088085   0.8439896
  -1.1705411  -1.1565586  -0.6701267   0.1927535   0.0186270  -0.1643792
  -0.5816527  -0.4851667  -1.0166394  -1.1490377  -0.5205845   0.5020585
   0.2548965  -0.0438069  -0.0362752  -1.5449246   0.1309412  -0.0596741
   0.3090201   1.1624532   0.2014784  -0.3579526  -0.1188918   0.0408685
  -0.4206426  -0.8989529  -1.4293284   0.2079066   0.2496237  -0.3341927
  -0.1855594  -0.0148441  -0.1030861   0.0277970  -0.6870759  -1.9056197
  -0.5960481  -1.1632041   0.2047100   0.1436507   0.1886290  -0.1837301
   0.9913447   0.0455036  -1.4826529  -0.6314697  -0.6419282   0.5191623
   0.4245974  -0.1552877   0.4218069   1.6931279   1.0012388   0.9636420
  -0.6914788  -1.2012399   0.1461246  -0.0299866  -0.0862262  -0.0361959
   0.1159720   1.1040300   0.2941217   0.7171226  -0.7065608   0.3005993
  -0.0156267   0.1663753   0.2849986  -0.4554950   0.1667909  -0.3232799
   0.4039182  -0.2619292  -1.4081885  -0.0468058  -0.0532426   0.0294942
  -0.4283422  -1.1871022  -0.0388411  -0.5544738   0.5203883  -0.6470279
  -0.4321461   0.1708084   0.1624888   0.2944748  -0.3413803   0.2077231
   0.9482223  -0.5929693   0.3514850   0.4066947   0.0015218   0.0564448
   1.7135779   0.0202817   1.0321200   0.1503508  -0.1862526  -0.6643447
  -0.0587968  -0.0644053  -0.0084688  -0.1428424  -0.0358776   0.8667907
   0.5349741   2.2165468  -0.2579047   0.1898372  -0.0720361   0.0397675
   0.6903703  -0.7983521  -0.6390142   0.5600265   0.1495429   0.0363503
   0.0553803  -0.0304991  -0.0179504  -0.2120181   0.0261769  -0.9965816
   0.4593284   0.6828930   0.9472861  -0.5196257   0.0439712  -0.2265053
   0.9141365  -0.8257691   0.4007744   0.4138827   0.0461439  -2.6251134
   0.1670374  -0.1383725  -0.2556920  -0.9730509   0.5015592   0.5412979
  -1.1547796  -0.0331618  -0.3560544   0.0839258   0.2857130   0.1279915
   0.3521455   0.1016925   1.5263368   0.9538249   0.1347334   1.5123416
  -0.1867612   0.5184472  -0.0785215   0.9130105  -0.8084759   0.4298009
  -1.8571692   0.0153344   0.5645747   0.4479737  -0.1516674   0.0063076
   1.6793399  -1.0803838  -0.4108868  -1.0845977   0.3743050  -0.5140674
  -0.1827005   0.0452790   0.2125442  -0.8521254   0.5281240   0.1044228
  -0.2489274   0.4133041  -0.8233548  -0.2577640  -0.2591514   0.2191658
   2.0639809   0.8469834   0.7478486  -0.6839036  -0.3671708   0.7904367
   0.4572072   0.1649702  -0.0294852  -0.8452619   0.0478119  -0.8621863
  -1.3542424  -0.3350552   0.6924804   0.0923954   0.1752656   0.1808364
  -0.7704798  -1.2542199  -0.5610872   1.1844189  -0.6595311  -0.4060599
  -0.0238429  -0.1263327  -0.1665663   0.4312199  -0.8639457   0.9298690
   0.2104157   1.1987169  -0.5826758   0.0574280  -0.1520780   0.0179730
   0.3878873   0.2638351  -0.4252149  -0.5817291   0.2059995   0.3826931
   0.0963030  -0.1672775  -0.0149159   1.1999709  -0.1454618  -0.2899132
   0.2559563  -0.9365184  -0.5285759   0.1741473   0.4148890  -0.2002698
  -0.5257988  -0.3728493  -0.2086992  -1.3092236   0.9751645   0.4857387
  -0.3630738  -0.0491897   0.0865263  -0.1275371  -0.5686455   1.6634746
  -0.6347876   0.2023089  -1.0566599   0.3215611   0.1155873   0.1149727
   0.9493794   0.4172451  -0.4969409   1.0111352   0.8643005   0.2058656
   0.1276891   0.2696777   0.0001952  -0.4578600   0.9826035   0.2338891
  -0.9093118   0.4487323   0.0698875  -0.2983407   0.3411476  -0.1163241
  -0.1619455   0.6929145  -1.0903785   0.2141470  -0.6638771   0.1001963
   0.2318902  -0.1037750  -0.0450456  -0.0124942  -0.6829470   0.5289808
   1.5476555   0.0747189  -1.7226385   0.0338816   0.0971763   0.1628404
  -0.0431913   0.5244391  -1.8421012   0.2141055  -0.5800574   0.6554349
  -0.2605896  -0.3135372  -0.1159641  -0.4809412  -1.1678926  -1.5542492
  -0.3184719   0.9723669   1.3410280  -0.0280848   0.1707605  -0.1285591
   0.6195145   0.2053085  -0.2064191  -0.1776263  -0.7213078   0.0046896
  -0.1992464  -0.2001306   0.1541288  -0.3459820  -1.3181841   0.1962908
   0.4702344  -0.8890722  -0.2950684   0.3576353  -0.2405486   0.0328001
  -1.5544623  -1.6296893  -0.1581154   0.1069863  -0.4733174  -0.3736826
  -0.0537594   0.0126303   0.3470246  -0.3737118   0.1763636   0.4889343
  -0.4097424   0.7149296  -0.0848367   0.0773114  -0.1955914   0.1270463
   0.2998217   1.6142192   0.7857202  -1.0350373  -0.0043011  -0.5815964
   0.0577059   0.3003324  -0.0058400  -1.5122199  -0.3379852   1.3753627
  -1.1397246   0.6986523   1.0976274   0.3740857   0.2601296   0.2284740
  -1.5570275   0.4533546  -0.2747492   1.3184993  -0.0812228  -0.4988997
   0.0410198  -0.2283313   0.2858819   0.6679899  -0.7428438   0.2543552
   0.4422717  -0.1061995  -0.3934499  -0.2464486   0.0046848  -0.0538733
  -0.2612123   0.9591180  -0.6316339   0.2553234   0.3656856  -0.0166415
  -0.1688859  -0.1997753   0.2384941  -0.5939260   0.8412776  -0.0523449
  -0.3838479  -0.4406379   1.4128398  -0.0136965   0.1443201   0.3037900
  -0.6106496  -0.6389346  -0.1958410   0.7714007  -0.3867394   0.3157883
   0.1659537  -0.1603286   0.2356792  -0.4386947  -1.1078086  -1.0736161
   1.1262314   0.2206997  -0.9163578   0.1411218   0.1505253  -0.0923987
  -0.4430353  -0.6692344   0.0745348  -0.6117889   1.1391324  -0.3430472
  -0.1982823   0.1017499   0.0318805   0.9750082  -0.2211681  -0.3844811
  -1.0842126  -0.2652328   1.1533080  -0.1709816   0.1100298  -0.2291024
   1.5509839  -0.1542087  -1.2109110  -0.0601728  -0.4391072  -0.3706919
  -0.1796342   0.0131188  -0.0348197  -0.5884660   0.9479492   0.2043079
   0.8758628  -0.3685044  -0.0206688  -0.1256879  -0.3136777   0.2545718
   0.1214715  -0.7067891  -0.9435851   1.2828598   0.1952969   0.5649970
  -0.2730173   0.1660138   0.1622419   0.7576962   0.1979347   1.9431386
   0.5142097   0.1971801   0.9936198   0.2283911  -0.5182225   0.0989790
  -0.2665114   0.1162706   0.2828499  -0.9646284   0.4637724   1.2640585
   0.0913805   0.1705179   0.0918754  -0.6592617   0.9678986  -0.8553826
  -0.6300234   0.4914943  -0.6170111   0.3941943   0.1348105  -0.3220853
   0.3733043  -0.2711934  -1.2998038   0.7180195  -0.1790630  -0.4070718
  -0.1309068  -0.0753355   0.2909831   0.6597509  -1.2428429   0.1398591
  -0.1882693  -0.5111355   1.7192623   0.3870948   0.0451460   0.1271217
   0.7488407   0.6361641   0.6921205  -0.1253508  -0.8437778   0.0181617
   0.0441619  -0.1191501   0.0938745   1.4720910   0.4819358  -0.7700485
  -0.3161754  -0.3616967  -0.6348897  -0.0306298  -0.2280063   0.1632120
  -0.3630064  -1.4023242  -0.6634835  -0.1314504   0.3898868  -0.0155065
   0.1036245   0.1280794  -0.0674372  -0.6325927  -0.5309397  -0.2702185
   0.2865581  -0.3192046  -0.5210709   0.2601598  -0.1347296  -0.1156181
  -0.3786945   1.3332080   0.7195885  -0.2200838  -0.7390386  -0.5407443
  -0.2423098   0.2293881  -0.5218485  -0.2310442  -0.4437708   0.8764803
   0.2347904   0.2205703  -1.5683909   0.1003755  -0.1367075  -0.1013593
   1.1437482   0.8325945  -1.9825340   0.6251897  -1.0469326  -1.1249106
  -0.1852748  -0.1836755   0.1047337  -0.0137656  -0.9246974  -1.8166271
  -0.4823606   0.1459793   0.0994974   0.2395916   0.1182409   0.0616547
   0.8292459   0.4603956   1.1022629   0.4588599  -0.1232274  -0.0989482
   0.2545832  -0.2184547   0.1852054  -0.5566573   0.9327738  -1.1971651
   1.0631138   0.6421329  -0.5631120  -0.0192763   0.0778606   0.0274673
   0.2132531   0.8722601   0.1479676   0.8645699  -0.0058831   0.8242648
  -0.0129239   0.0055902  -0.0171899  -0.4238755   0.2885848  -0.6473468
  -0.4876933  -0.2786373   0.1489925   0.0297850   0.1602010   0.0217044
  -0.9369490  -0.6498780  -0.3934259  -0.2456894   0.4404940  -0.5515818
  -0.0326199   0.0294493   0.4896862   0.6804453  -1.2509119   0.4874458
  -0.1440272  -0.1999954   0.5163325   0.1620772   0.0506904  -0.0561418
   1.5845932   0.4880082  -0.2606804   0.1939615   0.7444712  -0.0416840
   0.1551228  -0.0342185  -0.1074572  -0.3982090   0.7098509  -0.6990887
  -0.6116005  -0.3098518  -0.7685562  -0.1602820  -0.0764702   0.1351319
   0.4863901   0.0120796  -0.2242564   0.1060450  -0.8007924   0.3496354
   0.0029880   0.1142167  -0.3003172   0.2113872  -0.5587807   0.3990539
   0.1249562   0.5506282  -0.0920532   0.2162948  -0.3792446   0.3737001
   0.2212862   0.3012715   1.3964185   0.6183086  -0.0831993   0.6360860
   0.2061767   0.0771117  -0.0313374   1.0975153  -0.3336801   1.0508661
   1.2040458   0.5682620  -0.3863334  -0.4146781  -0.0932432   0.0776928
   0.5416259   0.4075224   0.1179643  -0.9911471   1.0160637   0.8164323
   0.0973576   0.0379551   0.2437020  -0.0275164  -0.0553996   1.1602301
   0.5687755  -0.3507128  -0.5388492   0.5103290   0.0114548   0.2500523
  -0.2943956  -0.8834645   0.0017048  -0.2123070  -0.5876347  -0.1602515
  -0.0702187   0.1693129   0.1593009  -0.1674710  -0.5370127   0.9083118
   0.4489139  -0.8462640  -0.8228542  -0.2321437  -0.2106235   0.0331076
   0.5359646  -0.8221460  -0.3295707   0.5290744  -1.3333622  -1.6426530
  -0.1089366   0.2638857  -0.3940457   0.8864562   1.0619186  -1.8846839
   0.1129220  -0.6044860   0.3174976  -0.0027217  -0.3284087  -0.0979623
  -0.8723177   0.1121842   1.5057571  -1.4004125   0.6230670  -0.8435376
   0.3285371  -0.1685572  -0.0539030   0.0957509  -1.0350687  -0.0561069
   0.0783674  -0.1678061  -1.1131988   0.0275119  -0.1036583   0.1132317
   1.1940798   0.1250474  -0.0935875   0.8581231   1.3439211  -0.7941346
   0.5007068   0.0714336  -0.0759418  -1.2657802   0.4899661   0.4424183
  -0.1883814  -0.4377482  -0.5772980  -0.0782873  -0.0107738  -0.2801885
   1.0917522  -0.1024903  -1.2974428  -0.3959598   2.1038516  -1.1058292
   0.0269191  -0.2643907  -0.1796613   0.2475551   0.5155641  -1.2076252
   1.0481225   1.4708801  -0.3077110  -0.1146560   0.2673500   0.0408041
   0.9760959   0.7310172   1.0864594   0.6562948   0.5129072  -0.0647693
  -0.0554196  -0.0385752  -0.2748078  -1.3751233  -0.7788374   0.6780683
   0.4875727   0.2331351   0.7765296   0.2764136  -0.4667661  -0.0358864
   0.2003342  -1.0192077   0.9374719   0.5672321   0.1222921  -1.1025122
   0.1905266  -0.3383510  -0.1343524   0.5744992   0.4079286  -2.0029961
   0.3815449   0.6300255  -0.6150960  -0.3767194   0.1855081  -0.3422905
  -1.0744275   0.1514777   0.2547162  -0.1199507   0.6484345  -0.6694682
   0.0336404   0.0969776   0.2034922  -1.0400541   0.9109131  -0.6137438
   0.0027574  -0.3323639   0.2014672  -0.3144441   0.0925453  -0.1581801
  -0.6244361   0.0890882  -0.6411688   0.3850997   0.4265415   0.1083274
   0.1611098  -0.2706883  -0.0563674   0.9852928   0.0530774  -0.7702625
  -1.1748925   0.2206967  -0.5725677   0.1256199   0.1801422  -0.0049647
  -0.1218513  -0.3648165   0.8432568   0.8123670   0.1536609   1.5730446
   0.2923408  -0.4551298  -0.2280606   0.8303351  -0.2741128   0.6926872
   0.4189875  -0.0308759  -0.1104616   0.0912842   0.4371146  -0.2512464
  -0.8812997  -1.0421277  -0.4316279  -0.3417935  -1.0336077   0.4281620
  -0.1597964  -0.4311738   0.3518995   0.6788410   0.0256430   0.3890491
   0.0303382  -0.6011048  -0.6915256  -0.1695119  -0.0155002  -0.0963173
   0.0379082   1.4852165   1.3447140   2.0175102  -1.4779547  -0.9040219
   0.0248663  -0.1907292   0.0526640  -1.8031469   0.5089691   1.3630107
  -0.5831124   0.5692214  -1.5322747  -0.0693485  -0.2893109  -0.0826912
   0.8606647   0.2209177   0.3759139  -0.9574784  -0.0224575   1.6589646
  -0.0927965   0.3117526   0.1360587   0.6582531   1.5631278   1.4814152
   0.6292311   0.2085764   0.7632505  -0.2195103   0.2790593   0.2424788
  -0.7235346  -0.3119732  -0.2247478   0.2889820  -0.8292449  -1.2803077
  -0.1088514  -0.4340337   0.0440570  -0.0776669  -0.5391780   0.8704947
   1.1607379  -0.3146635  -0.9742301  -0.2745726   0.3892847   0.3109191
  -0.8742858   0.6127402  -0.0412781   0.4476566   0.6714459  -0.1882741
  -0.0994946  -0.0816245  -0.0282168   0.5753157   0.5031404   0.9708875
   0.9525661   0.2901428   2.1855552  -0.0749713   0.4692979  -0.0840337
   0.5590577  -0.1362117   0.4186810  -0.9063237   0.8075886  -0.3983170
   0.3135980   0.1551731   0.1674311  -0.6090009   0.0329672  -0.6185242
  -0.4062009  -0.8153735   0.5964096  -0.3060465  -0.0071738  -0.0043971
   0.8251219   0.2367342  -0.3543637   1.2945225   0.4698740   0.9429402
   0.0332698  -0.3287647  -0.3552027   0.6878845   0.3726090   0.6655418
   0.3271067  -0.2614946   1.1067067   0.1910069  -0.0983046   0.1025631
   0.5811389   0.4779883  -0.2382951   0.2010720  -1.0957562  -1.5219784
  -0.1252219   0.1840984  -0.1698899   0.4167520   0.6279734   0.5051068
  -0.9724489  -0.3555684  -0.2343011  -0.2231181  -0.0094868  -0.1423304
  -0.6686025  -0.6634937   0.5556141   1.5423002  -0.3912406   0.9820937
   0.0240969  -0.1607460  -0.2030395  -0.7746494   0.0265157   1.1748133
  -0.1586319  -0.0030809  -0.8432268   0.0912957   0.2111299  -0.1062173
   0.9582812  -0.2586070  -0.0853240  -2.1396801   0.5695519  -0.9369876
   0.1785247   0.0880729   0.0302813   0.6410617  -0.1780050  -0.0187973
   0.1923022  -0.0272683   0.0372396   0.2134652   0.3761233   0.1414305
   0.2613685   1.5809478  -0.5137145  -0.7689579  -0.5955471   0.8271463
  -0.4451425  -0.1300331   0.2683043  -0.4151630   1.6639980   0.4638071
  -0.2757948   0.2696449  -1.9629008   0.0480453   0.0297394  -0.2728056
  -0.6946099   0.0945941  -0.3029325   0.2440624  -1.0018564  -0.4694395
  -0.0290113  -0.0712673   0.1924342  -0.4988178   0.2248162   1.5867378
  -0.0029554  -0.6601874   1.0344503   0.1461205  -0.1264732  -0.2103302
  -1.6123319   0.0002371   0.2643595   0.6594975  -0.6493701  -0.1209211
   0.1877587   0.2280513   0.1389230  -0.7747552  -0.8802227   0.5834501
   0.6454485   1.5747205  -0.6159662   0.0165436  -0.0726926   0.1639073
  -1.0914556   1.4226185   0.1932903   0.0256535  -0.0554457  -1.2870755
   0.1254313   0.1547034   0.2414415   0.0071902   0.7076211   0.5724479
   0.4114534  -0.7913627  -0.4930742   0.1885891  -0.1267927   0.2797952
   0.1613637  -0.2560734   0.5993687   0.2685470  -0.1493472  -0.8484619
   0.1325074   0.1175575  -0.1250399  -0.4198708   0.4457401  -0.2138936
   0.4029173   0.5927525  -0.3838101  -0.2125956   0.0669825  -0.0023687
   0.5267716   0.7853264  -0.4464914  -1.0474949  -0.1805308   0.7675116
  -0.2129004  -0.0862146   0.2585734   0.6634889   0.0659929  -0.1060136
   0.1803656  -0.3291226  -0.6536545   0.2247163   0.0406034   0.2274315
  -0.4602027   1.0764663  -0.5909755  -0.3816367  -1.0765250   0.6783452
   0.0254556   0.2299641  -0.0249919  -0.3043257   0.1449336  -0.1471442
  -0.0322949   1.9640349  -1.0170751  -0.0060194   0.0058043   0.2240746
  -0.4250350   0.7441225  -0.2925620  -0.0920889  -0.3370156   0.4652107
  -0.0708640   0.1366371  -0.1662345   0.0264978   0.5621462  -0.4337532
   0.1282774   0.4263585   0.3040406   0.0380058  -0.1413016   0.1685490
   0.6788817  -0.8770870   0.4420813  -1.3572064   1.8947649   0.6872074
  -0.0007944  -0.4103896   0.1439939   0.2239375  -0.7598748  -0.7392682
   0.6286215  -1.0499437  -1.2917740  -0.0764199  -0.3591926   0.0944990
   0.0948838  -0.3414345   0.2049948  -0.1882813  -0.3064391  -0.7785191
   0.0071826  -0.1650482  -0.1290550   0.3816550   0.3281208   0.3467419
  -0.3374266  -0.2097384   0.9749758  -0.0849894  -0.0406034  -0.2433754
   0.0972263   0.2478198   0.2161717  -0.1190875  -0.6597205   1.0565697
  -0.0290983  -0.1328043  -0.1308406  -0.3190397   0.2521764   0.5290015
  -0.0641092   0.0903413  -0.3871278  -0.0533805  -0.2768703  -0.2326906
   0.2067389  -0.4460794   0.1169890   0.3406649   0.1280831   0.0231462
   0.1830343  -0.1832042   0.2244532   1.0359869   0.3258736   0.0347311
   0.3282594  -1.7093144  -2.2524081  -0.1221110  -0.1058620  -0.0679550
   0.2105134   0.5836337   0.6654945  -1.3926610  -0.9606825   0.4652094
  -0.4894706  -0.0165326  -0.1437703  -0.7264744  -0.3467023  -0.7870650
  -0.4127961  -1.0209366   0.8970394  -0.0837626  -0.1932882   0.0231142
   2.0013768   0.3230487  -0.7984714  -0.5346653   0.3738288   1.3254638
   0.1743755  -0.1045389  -0.2587419  -0.1925663  -0.4060302   0.1319928
  -0.0594814   1.1354517   0.0491309  -0.5144522   0.1010109   0.3550843
   0.8756863  -0.5059951  -1.1297207  -0.7989695  -1.1231390   0.1441592
  -0.1483781   0.2455813  -0.0112931   0.8995249   0.8245073  -0.0272641
   0.0685389  -1.8599684   0.6657145   0.2427404  -0.0393127  -0.0209358
  -0.5127032   0.4278392   0.3570246   0.0215928  -0.5539372  -0.1453984
  -0.0082006   0.1975319  -0.2412877   1.3058254   0.3506296   0.4694518
  -0.4088473  -0.9788077  -1.4177715  -0.1124388   0.1508664   0.0654176
  -0.2621901   0.4625243  -0.3624371  -0.2211470  -0.3407742  -1.8859754
  -0.0767787   0.1613477  -0.0002985   1.2946477  -0.6208798   0.8291556
   0.0872552   0.0848225  -1.5216214   0.1199050   0.1636927   0.1741901
   1.6076312   0.0920830  -0.1734972  -0.0300936   0.1675026  -0.0762314
  -0.1602082   0.1020228   0.0515098  -0.8659376  -0.0533577   0.6933993
  -0.7475307   0.5220109  -0.8698832  -0.0172486  -0.2785770   0.3007704
   0.2763830   1.2125595  -0.2384117  -1.2447992  -0.3147454  -2.0312717
   0.1149670  -0.3182781   0.0830304  -0.2326045   0.0991143   0.8912793
   0.4216722  -1.4782400   1.1544941   0.0905498   0.1774196  -0.2530453
  -0.1476498  -0.5846989  -0.5435358   0.2479769   0.5189247   0.0384729
   0.0808382  -0.1176269   0.1095347   2.4693150   1.0838508  -0.4539912
  -0.3017993  -1.3355219   0.2650516  -0.0543272   0.0326512   0.2338039
  -0.0329720   0.9749400   0.0303936  -1.2325185  -0.8364694  -0.3765846
   0.1720347  -0.1347578  -0.0861314  -0.3517979   0.2466036   1.5840209
   1.3107934   0.3306403   0.9989404  -0.0240484   0.0581102  -0.1531807
   0.4915592  -0.0798170   0.5782384   0.4724063   0.3983544   0.9125725
   0.0420931  -0.0209256   0.3199231  -0.9306935  -0.4810492  -0.3348997
  -0.8890968   1.5056123  -1.2508608   0.0540329  -0.0174458  -0.0226749
   0.1183164   1.1135810   0.6815900   0.3326243   0.1367766  -0.2425164
  -0.1345143  -0.0033264  -0.1480177   0.3196766  -0.9349158  -0.6942969
   1.1780861  -1.0578528   0.9721277  -0.1485567  -0.0660332   0.0507452
  -0.2505209   0.7130051   0.0077693   1.0720084  -0.4976943   0.5707077
  -0.0220431  -0.2535308   0.1849434  -0.2694028   0.6576162   0.7826361
   0.7255048  -1.6033804  -0.3033935   0.1093190   0.0372771  -0.2487586
  -0.2227805   0.8629038   0.3255095   0.5097851   0.9125095  -0.4407390
  -0.0082095   0.1102905   0.2769732   0.0685246   0.6004545  -0.7016069
  -0.8032747   1.7395489  -0.6802898   0.0605958  -0.0847131  -0.2623511
   1.4308356  -0.7548457   0.0192891  -0.8921221   2.1127881   0.0302009
  -0.1027648  -0.0158408   0.0862769  -0.5085411   0.1214119   0.2263010
   0.3712433   1.3343353  -0.5152332   0.2188226   0.3647960  -0.1069394
   0.2668939   0.7645027  -0.6806295  -0.8225889   0.6621211   0.0587462
  -0.4287036   0.0862276   0.2125674   0.7478878  -0.6500306   0.6770815
  -0.4665988   0.6708011  -1.1557741  -0.2042134  -0.0434350   0.0060717
   0.5580163   0.0609619   1.0255485  -0.2115126  -1.3386483  -0.5550872
  -0.1176056  -0.0572261   0.1552117   1.8126855  -0.4660833   0.3104851
  -0.0225704  -0.6596833   0.9286741  -0.0795111   0.0160997   0.1407713
  -0.0998903  -1.1297075  -1.3433944   0.7611350   0.0602618  -1.4326876
  -0.3697845  -0.0151368   0.2711343   1.2932943  -0.6527250   0.4104171
  -1.0829388  -0.5783218   0.4564152  -0.0293038  -0.1681510  -0.6936431
  -0.4751269  -0.1806434  -1.3474338  -0.2580086  -0.5779622   0.2599949
  -0.0907969   0.2015493   0.0714728   0.5716082  -0.4257099  -1.2898095
  -0.8551804  -0.9511601  -1.0908333   0.1344123  -0.0813189  -0.0434313
  -0.7712906  -0.3347309   1.3653052   0.4389725  -0.7917593  -1.5120504
   0.0968012  -0.1968829   0.2048086  -0.6557427  -1.0313298  -0.4230676
  -0.4897538  -0.9573757   0.6754690   0.3370472  -0.2350123   0.1776474
  -1.1361138  -0.4376407  -0.6673237   0.1562027  -0.4836107  -0.2734868
  -0.3079959  -0.0519733   0.1138599   1.2614568   0.3060410  -0.4019505
  -0.4378034  -1.1518792   1.0590703  -0.1027369  -0.0987353   0.1382542
  -0.0727419  -0.1574715  -0.1117656  -0.8791125  -0.2310225  -0.5187438
  -0.0942266   0.0614355  -0.0984214  -1.6191999   0.5115184   1.0026520
  -0.7067033  -0.8172732   0.1218777  -0.0641505  -0.0873192   0.2125328
   0.7359495   0.7890468  -0.1309162   0.1737002   0.0825632  -0.2259138
   0.1038768   0.3518249  -0.1418946  -0.0042576  -0.8260195   1.5021528
  -0.0042421  -0.2511667  -0.4664891   0.2234208   0.2336304   0.0594500
   0.7920844  -0.1484706  -0.0883600  -1.1501717   0.5501095  -0.0430673
   0.0385649  -0.5475306  -0.3297545   1.0931630  -1.1000534  -0.6335788
  -0.8944004   0.0649920   0.9808171  -0.1056001   0.1116238  -0.2528448
   0.3358473  -0.4630420   1.0759439  -0.1818402  -0.7598955   0.9776218
  -0.3145850  -0.2253411  -0.0565532  -0.2203590   0.6092303  -1.1349103
   0.9651749  -0.1448266   0.7086204  -0.1188690  -0.2477803   0.2835088
   0.2785066  -0.3331084   0.1397647  -0.1303905  -0.0413240  -0.2963932
   0.2000042   0.0497577  -0.0046828   0.7249290  -0.4124211  -0.0191126
   0.8619302   0.9103308   1.0794972   0.2451177  -0.0623739  -0.2638645
  -0.1980015  -1.4663819  -0.0003133  -0.5185695  -0.5652278   0.2580500
  -0.3776382   0.1425152   0.2417817   0.2780657   0.6014017   0.0641611
   0.5982119   1.6740726   0.6347872   0.2315721  -0.0384846   0.2428573
   0.0919619   0.4192287  -0.3453538   1.0688395   0.0976427   0.4029884
   0.2605826   0.1376634  -0.1405814  -0.5609451  -0.7397391   1.2189186
  -0.1569314   0.2225406  -0.4331635   0.1009339   0.0739670   0.0889920
   0.0461489   0.2297958   0.4709972  -0.3967726  -0.1778210  -0.2284808
  -0.3246416  -0.0388953   0.2014578  -0.3451477  -0.2050447   0.9272304
  -0.0408831  -0.7509012  -0.4705764   0.0104925   0.1137800  -0.1596904
  -0.7989209  -0.6457374  -0.4352217  -1.0197426   0.0812903  -0.1377174
   0.4283071   0.0615968   0.1455544   0.4015079   1.2348750   0.5443250
  -0.6356960   0.3605914   0.4706909  -0.2367523  -0.0287342   0.0495004
  -0.1937063  -0.2718887  -0.5980745   0.5735199  -0.1333450   0.5731707
   0.1583296  -0.3620165   0.0785573  -0.7647677   0.7920014  -0.2684479
  -0.0747715   0.8859018   0.4731303  -0.5317377  -0.0426757  -0.4759021
  -0.3448072  -0.3072739  -1.2486109  -0.1147862   1.2748298  -0.8125778
   0.1317861  -0.4708399   0.1281027  -1.0278480  -1.0044926  -0.4732632
   0.4743033  -0.2572697  -0.2150016  -0.1804701   0.0979709  -0.1607910
   2.3104071   0.4530141   0.2226706   0.2307527   1.0520226   0.1966313
  -0.1956129  -0.1683686   0.1709758   0.9239784  -0.2340963   0.1302575
   0.7089745  -0.0489542  -0.8721001  -0.0238446  -0.0202387  -0.2885578
  -0.1780333  -0.9613304  -0.8005943  -1.1177962  -0.6260153   0.1383599
   0.2880505  -0.0780499   0.0554479   0.9251886   1.1953574  -0.8863140
   0.7773417   0.8169862   2.1171459  -0.0422578  -0.2621970  -0.1229285
  -0.5965566   0.1945312   0.5552738  -0.9805374  -0.9061774  -1.7541510
   0.1020909  -0.0035578  -0.2247179   0.8829401  -0.1620736  -0.8980616
   0.1389067  -0.5918982   0.4388560  -0.2532889   0.0851877  -0.1126238
   0.0449332  -0.3689568  -0.0783955  -0.7830909   0.4155791  -0.4538162
   0.1461772  -0.0732073   0.0404094   0.2059836   0.2196078  -0.6618456
   0.5920169  -0.4092247   0.3808541  -0.0100958   0.0321556   0.1193702
   0.6379274  -0.2460347  -0.5714121   1.2986804  -0.9221298   0.2382044
  -0.0664852  -0.0113729   0.2140868   0.8464250   0.7959612   1.3033387
   0.3352071  -0.8709105  -0.0701517   0.0413388  -0.2661607  -0.0374451
  -1.2273327   0.3006986  -0.2568156   0.7052353   0.3676454   0.5705123
   0.0092610   0.0579971  -0.0140216  -0.1576741  -0.3764475   0.8324842
   0.6258435  -0.1463033   0.9166841  -0.1196763   0.1853839   0.1282652
  -0.1437576   0.2450314   0.2619860   0.0172894   0.3434075   0.9375824
  -0.0361120  -0.0027727   0.0599915  -0.1092464   1.0547027  -1.4594474
   1.9154269   0.6264196   0.2134861   0.0021749  -0.2692080   0.2042773
  -1.6336930  -1.4218457  -1.8266918  -0.8134809   1.2278812  -0.4246364
   0.1351150   0.4394041   0.2113206   0.5648128   1.7942927   0.7539489
  -0.5171372  -0.0509022  -0.6153023  -0.1200160   0.0742445   0.0949531
   0.2331926   0.6760076  -0.2816192  -0.9185219  -0.2291777   0.6174775
  -0.0398200   0.0287585   0.2548835  -0.7042232  -0.8499893  -0.5664220
  -0.0165277  -0.5525588  -0.6708517   0.2718881   0.0678633   0.0187149
   0.5973218   0.5506101  -1.4787231  -0.9254082  -0.1560285  -0.7918003
  -0.0137225   0.1093385   0.2165457   0.7544067  -0.3830382   0.2114851
  -0.4845206   0.1240408   1.0713995   0.3361669   0.3063032   0.3006744
   0.2582866   0.2386268   1.3151502  -0.7116034  -2.0544885   0.3426678
   0.0160810   0.1406291  -0.2846341  -0.1180340   0.3435337  -0.8100325
  -0.4639368   0.5207082   0.5971813   0.0641278  -0.0154917   0.2396280
   1.0340521  -0.9944854   0.0358577   0.9092410   1.0610543   0.7453281
  -0.0218319  -0.3794213   0.2189301  -0.4641155   0.2622260   0.1011944
   0.2958367   1.2129384  -0.9565409  -0.1309761   0.0971995   0.0537998
   0.7572717  -1.0477353   0.3604144   0.8833748   1.1237549   1.0212636
   0.0650210   0.0765742   0.5059556  -0.6848489  -0.7506752   0.0602096
  -0.6103694   0.3471159   0.0973690  -0.0803938   0.1080408  -0.1639797
   1.2977051  -0.8604418   0.0376568  -0.3023673  -0.4534315   0.5935199
  -0.1144744  -0.3545852   0.0087346   0.9637065  -1.0449491  -0.4300658
  -1.3036984   1.2838541  -0.3415942  -0.0625706   0.1176384   0.3668396
  -0.0589313   0.2499657  -0.2827260  -0.4068067  -0.7653672   0.5678609
   0.0248444  -0.2410048  -0.0455334  -0.5878927   0.0870389  -1.2645515
  -0.8683869  -0.1829966  -0.2066885  -0.0660542   0.0139783   0.1048620
   0.5548680   0.7958017  -0.4096179   0.5950946  -0.1189535   0.6521002
  -0.2012512  -0.1676011  -0.3174826   0.6165365   0.2237137   0.5149702
   0.2744567  -0.3452536  -0.5932020  -0.0675479   0.5289536  -0.0456788
   1.2404929   0.2209648   1.4074697  -0.1894518  -0.0000462  -0.9187651
   0.3606030   0.0667967  -0.0415736   0.0147713  -0.0552444   0.3032481
  -0.0290596   0.7911867   0.2654898   0.1911507  -0.0148235   0.2937032
  -0.1795080  -0.3344598   1.8869534  -0.8879779   0.9984495  -0.4578952
   0.0661032  -0.0809920  -0.2300316   0.3032487  -1.0049771  -0.1125825
   0.1539226  -1.0456655  -1.2221965  -0.1577826  -0.0756557   0.3671679
   0.1150962  -0.9041278  -0.5293193  -1.8239111  -0.9374435  -0.3716574
  -0.0946427  -0.2708338  -0.1108254   0.4589903  -0.4136304   0.6431332
  -2.1261369  -0.7662242  -1.2148014  -0.1484540   0.0149653   0.4724258
  -0.7985040  -0.2011876   0.9040096   0.1321683  -2.1744302  -0.4399441
  -0.1378306  -0.1328085  -0.0656824  -0.7552817   0.7655567   0.1097492
   0.4464935   1.1126636   0.4736416   0.1488124   0.0768478   0.1351588
  -0.2846870  -0.2186762   0.4394991   0.1512933  -0.7387682  -0.3738875
   0.2962738  -0.0444451  -0.2960753   1.1889512   0.8484548   1.6160969
  -0.7451362   0.8185827   1.1245032   0.1376498  -0.2246445   0.3550407
  -0.5955333   0.1082722   0.8330001  -0.2624005  -0.9153402   0.0804238
   0.0415471   0.1558804  -0.2499080   0.5685011  -1.9785253   0.1870287
  -1.0545942   0.6596488   0.7678382  -0.0404381   0.1907555  -0.1927206
   0.3290354  -1.5383469  -0.2621061   0.8815212  -0.1210105   0.3520010
  -0.2898005  -0.1552795   0.2098596  -1.2531654  -0.6733514   0.2161418
  -1.0390269   0.8259591   0.5959903  -0.3559238   0.0849121   0.2559488
  -1.3167666  -0.3129344   0.2550353  -0.0931944  -1.3093691  -0.6284804
  -0.0131434  -0.0568999   0.0050257   0.7689887  -0.9079106   0.3454121
   2.1421664  -0.1344258   0.7701501   0.0072436   0.3053262  -0.2490175
  -0.7400823  -0.8366143  -1.6323186   0.6813716   0.4732771  -0.6710765
   0.2657348   0.2993379  -0.0929703   0.1013880  -0.1268143  -0.4055192
  -0.1226531   1.1374105  -0.1013986   0.3125453  -0.0334785   0.1714140
  -0.3637042  -1.1120878  -0.7699902  -0.3843943  -0.2512870  -0.1807261
   0.1330087  -0.2407367  -0.1676014   0.1659238   0.4973503  -1.0684047
   0.3998307   0.8426392   0.3305314  -0.0293266  -0.2933312   0.0509899
  -0.1137145   0.7589326  -0.4692730  -0.3021342  -1.0628359  -0.1449708
  -0.0916152   0.2415473   0.3918323   0.4764487  -0.1597954   0.0531092
  -0.5386214   0.0592307  -1.9102005   0.3133505  -0.4303679  -0.0770612
  -0.3133592  -0.3636441   0.9008030   0.7274670  -1.0304212   0.5474825
  -0.1366995  -0.0196868  -0.5741557  -1.4320520  -0.3218385   0.0656659
  -0.6200548   0.2878611   0.9404501   0.1969567  -0.3265858  -0.1149695
  -0.0961970  -0.7034833  -0.3908156   0.1880292   0.3910276  -0.3755690
   0.6103808  -0.2360160   0.0880235  -0.0996428   1.5567747  -0.2244857
   1.7053983  -0.7801952  -0.0411750   0.1668616  -0.0990143  -0.1474107
  -1.5130486   0.6610343  -0.4987288  -0.1938671   0.5853612   1.4468880
   0.0118923   0.0550786   0.0136839   0.3598210  -0.5931666   0.5796357
   0.1295973   0.3040222  -0.9947324   0.4708592   0.0188997   0.1828627
  -0.8770319   0.6325560  -0.0980747  -0.3769023  -2.3477005  -1.0460728
  -0.0010574   0.2233946   0.0912838   1.4803069  -0.7509617   0.0305796
  -0.0834212   0.8973632  -1.4495731   0.1063776   0.0549269  -0.1288570
   0.8443162  -0.1053132   0.0337332  -0.8584848   0.2440341  -0.0269676
   0.1039744  -0.3739154  -0.0468724   1.4098199  -1.0563996  -0.0937644
   0.2391434   0.2291446  -0.5726708  -0.0953241  -0.2716585   0.0277000
  -0.0562437  -0.3521807  -0.8063290   0.4697999   0.3338199   0.4896555
   0.0948934   0.2323947  -0.3425840  -0.4075652  -1.8993544   1.8669792
   1.5132060   0.5499178   0.2211468   0.0232984  -0.0093470  -0.0204792
  -0.4897204   0.5259529  -0.5896514  -0.3900125  -0.2900054   0.4234484
  -0.2101232   0.2005409   0.1843220   1.3450064   0.7489217   0.2261188
  -1.2805940  -1.2418684   0.5571650  -0.1914021   0.1157666  -0.4115251
   0.1518498  -0.7870110   0.1292367   0.6888663   0.0864292  -0.7338692
  -0.0318599   0.0817714  -0.0074038  -1.9989553  -0.8191492   0.3257285
   0.4961338  -0.2428649  -0.0109955   0.0454989  -0.1381372   0.0650797
  -0.7869750   0.4387370  -0.4140702  -0.0768713   1.0866541   0.4612064
  -0.2861172   0.2604950   0.1708334  -0.1472030   1.3370913   0.5146721
   0.1794265  -0.9262227  -0.3594114  -0.0464680  -0.0550209   0.2049320
   1.3756298   2.0209653   1.0057160   0.4556935  -0.4064039   0.2740588
   0.2722636  -0.0711492  -0.1150319  -0.5279197  -0.0634247   1.8905319
  -0.4888906  -0.8052141  -0.5318916  -0.1026232  -0.0332684  -0.0647978
   1.5792119   0.0954047  -0.1300350  -0.7803625  -0.4151175  -0.5111630
  -0.0169217   0.3091170   0.0881552   0.3510367  -0.4400573  -0.4840357
  -0.1741440   0.2837543   0.0290133   0.1265239  -0.1519887  -0.0653917
  -0.2077356   0.7312077   0.8019457   0.6034027  -0.0778446   0.2266963
  -0.0151603  -0.3891208   0.0046444  -0.9425688  -0.4562048  -0.9957789
   0.2084026  -0.0785890   0.2357402  -0.0096032   0.0090019  -0.1772045
  -0.7395781  -0.8590508  -1.0392486   0.2529340   1.1433055  -0.4428894
   0.0483504  -0.1932166  -0.0327425  -0.3180832  -0.0806599  -0.4363432
  -0.0482190  -0.7394103  -1.2267612  -0.0704192  -0.0084781  -0.4216138
  -0.1163927   0.8917848  -1.1114964   0.2156374   0.2322468  -0.4899542
  -0.1716638   0.2495992   0.1623500   0.0547550   0.1157662   0.7852969
   0.1766981   1.6716572   0.1805168   0.0755584  -0.0576923  -0.0039514
  -0.5820334  -0.1403671   0.1626392  -0.8232913   0.9876950   0.1481731
   0.0101982  -0.1959388   0.1464522   0.1829490  -0.5129580   0.0193376
   0.3261880  -1.9849963  -0.6043917   0.0802125   0.1308253  -0.0525881
  -0.1981264  -0.1083031  -0.8420004  -0.4872927   0.8486423   0.5350735
  -0.1532917   0.2277935  -0.0214398  -0.7946594   1.0443796   0.5452445
   0.8698951  -0.3303668   0.7491562  -0.2192891   0.2360313  -0.0403595
  -1.4817141   0.0425806   0.3586873   0.5378641  -0.1596917  -1.0773640
  -0.3318191   0.0122951  -0.1079959  -0.0747761   1.2505998   1.4281076
  -0.1703113   0.0054776   0.3899232   0.1596472  -0.0947709  -0.0608028
   0.2178756  -0.9867097  -0.0202956   0.6911465  -0.0728266   0.7380878
  -0.0013607  -0.2769965   0.1142966  -0.2854626   0.9838405   0.5111856
   0.1277460   0.6234695  -0.6349617  -0.3840053  -0.0408832  -0.0910905
   0.7032227   0.5023178  -0.0776486   0.3449984  -0.8911308  -0.3905644
   0.2183623   0.0248372   0.3694596   1.2221502  -0.0782685  -0.3724247
   0.8187856   0.4874964   0.5335037   0.0648153   0.0417791  -0.1854372
   0.9229062  -0.0833917   0.8442397  -1.1338326  -0.1172724   0.9732441
  -0.3192905   0.0321746  -0.1356773  -0.7352229  -1.0096842   0.1944405
  -0.3047543   1.0866730   1.4375439   0.0019840  -0.0836487   0.1761731
   0.2169682  -0.5337462  -1.1174345   0.5458362   0.8154408  -0.5842002
  -0.0145812   0.4240111  -0.0460626   0.1599594  -0.5137240   0.4485633
   0.6543873  -0.6468567   0.4915671  -0.0448903   0.0560964   0.4107536
   0.3320722  -0.6707912   0.3274257   0.1198509  -0.5621816  -0.7566070
   0.4279699   0.1361754   0.2493368   1.7851491   0.1703984   0.5287274
   0.3188210  -0.8845539  -1.8241631  -0.3443742   0.0252464   0.0638972
  -0.0746304  -0.8487269   1.7169652   0.6204574   0.0051191   0.2048220
  -0.1033915  -0.1396846   0.0535272  -0.3484901   0.5095447   0.7368904
  -0.0303630  -0.5456074  -0.0659861  -0.0244526   0.2782619  -0.0386497
  -0.6206436   0.1605667   0.3803546  -1.4616038  -0.2924901   0.1791791
  -0.2350142  -0.4242422  -0.3452174  -0.1807607   0.6705722  -1.3273291
  -0.0921497   1.2181210   1.3249902   0.2499917   0.1482329  -0.1928842
   0.3234002   0.0949398   0.8156279   0.7461065   0.2883596   0.5570311
   0.0610341  -0.0414184  -0.2763182   0.0257655  -0.0743815   1.6764430
   0.0140060  -0.2615934  -0.2679157  -0.1258502  -0.3662735  -0.2132218
   0.1299129   0.5542408  -0.0203923   0.1021493  -0.4424753   1.1834467
  -0.0586613   0.1589490  -0.0007254  -0.8918493  -0.7608518   0.7233948
   0.6476600   1.1313061  -0.4688004  -0.1601708   0.2030149  -0.1749597
   0.4834305  -1.7943408  -0.8551961  -1.3036734  -0.5559037   0.0945070
  -0.2304002  -0.1681985   0.1607712  -0.7777115   0.9082760  -0.9051821
   0.1636868  -0.2872299   0.6149007  -0.3681721  -0.2698444   0.1356815
  -1.5642499   1.3810655   2.2203229   0.1679781   1.9842552   1.4208227
  -0.0419495   0.2214564  -0.1427465   0.0997132   0.3937865   0.0361700
   0.1369834   0.2637145   0.1228097   0.1009304  -0.0105015   0.0069582
   1.0521541  -0.4975729   0.2141567   0.5310506   0.0718626   0.7575236
  -0.0501800  -0.1252202   0.0351356  -0.1404288   1.0277687  -1.2470319
   0.2330764  -0.5468488   1.6154301  -0.1683756  -0.1010268  -0.0800339
  -0.0572215   0.9960175  -0.4545150   2.2566472   0.0114806   0.9744049
   0.4137105   0.2825901   0.1144860   0.4594795  -0.5375659  -0.2386569
  -1.0081447   1.2167544  -0.7535612  -0.3845536  -0.3183027   0.2287784
   0.0118212  -0.4418237   0.3269387   0.0701987  -0.2482473  -0.1547779
  -0.0070085   0.2595377  -0.3015387  -0.4527906   0.3014022   0.7957416
   0.2323366  -0.9758953  -0.1498494   0.1045451   0.0741194   0.1804406
  -1.3101957  -0.3028203   0.3245086  -1.0133873  -0.5901086   0.7844667
   0.3966215  -0.0848553   0.1305950  -0.4665712   0.6513329   0.5684533
  -0.6799940  -0.1499209  -0.6984094  -0.1214814   0.0569541   0.0629317
   0.0917059  -0.7831225  -0.2815472  -0.4618679   0.4755395   1.5417719
   0.0003507   0.0128149   0.0670314   0.1735918  -0.1711517  -0.3386355
  -1.1775970   0.1313709  -0.5149981  -0.0724692   0.0534131   0.0966078
  -0.9507418   0.1781892   0.7793788  -0.0261315   0.2156805  -0.2987536
  -0.0224064  -0.0492152  -0.2754804  -0.2840520   0.4493673  -0.0297152
  -0.2398037   0.0917981   1.6526483   0.0064469   0.1829544  -0.2696617
   0.4482158  -0.4122322  -0.4300403   0.1991817   0.6441868   1.7215347
   0.1851211  -0.2035710   0.1002424  -0.7866168   0.2571076   0.7603221
   0.5512300  -0.7942760   0.4006601  -0.2536902  -0.0279514   0.0380083
   0.0887494   0.7311114   0.5426417  -0.6313043  -0.1640197  -0.4423540
  -0.1649174   0.0283999  -0.0857080  -0.3980244  -1.6212902   0.4369482
   0.3838888  -0.2167593  -1.1318241   0.0451704  -0.2444732   0.0206773
   0.1882021  -0.1142885  -0.0648532  -0.2058664  -0.6274718   0.5160826
  -0.3428842  -0.0155198   0.2336027   0.6323929  -0.4603343   0.1551830
  -0.6404304   0.4682637   1.0486266   0.0339459  -0.2714159  -0.0238585
   0.2081972  -1.1189426   0.0726764   0.0326432   0.8552122  -0.0111583
  -0.4200972   0.3173358   0.0297867   1.0411817   0.2806017   0.9947426
   0.1584711   1.1231592  -1.9235410   0.1932303   0.2480983  -0.0917562
  -0.2585326   0.5213803   1.0339479   0.6861413  -0.2947369  -0.5691753
   0.0647345   0.1874698  -0.2162690  -0.8505099   0.6745160  -0.0624280
  -0.8266105  -0.5104479   1.4467481  -0.1656398  -0.0821861  -0.1016972
   0.7253978   0.2447615  -0.8597554  -0.3018863   0.4701403  -0.6250867
  -0.1650787   0.0160049  -0.1048328   0.0641741  -0.0374652  -0.5003634
  -0.4973695   0.5427384  -0.2898601  -0.0663256  -0.1910572  -0.0489874
   0.4085679   0.2335551   0.3274488  -1.0127909  -0.4978610  -0.6900446
  -0.6949550   0.1386792   0.1074536   0.1411740   0.0336802  -0.2829123
   0.3879754   0.3556510   0.5615032   0.1900045  -0.0822247   0.0224347
   0.1322199   0.1860512   1.0889622  -0.7625223   0.2184916   0.6691478
  -0.1773701  -0.0625692   0.0217740   1.3253056  -0.3836032  -0.0976993
   1.0888964  -0.3000709   0.8352478  -0.0415675   0.2100957  -0.3010609
  -1.3050879  -0.6862323  -0.3276052  -0.3075055   0.4895878   0.8210196
  -0.2472084  -0.2043170   0.1493464  -0.1147482  -1.1365653  -0.8519236
  -1.5026090  -0.2974064   0.7904284   0.1737341  -0.3142546   0.2022116
  -0.0069237   0.5675880   0.3902137   0.8252423  -0.3711206  -2.4187282
   0.0719169   0.0860299   0.3902239   0.3080975   0.7233986   0.0531997
  -0.5380002  -0.3333539   0.4632852  -0.0446393   0.0842040  -0.1852065
   0.8549594  -0.9227429   0.2633390   0.1877007   1.8505274   0.9071609
   0.1365222  -0.1223201   0.0109663  -0.7064568   0.8370521  -0.7265758
   0.7649238   0.1117771   0.0510433  -0.0607913  -0.1221032  -0.1764820
  -0.2375853  -0.5116181  -0.2879685   2.1853198  -0.4625298  -0.3100424
   0.2591135   0.0904616  -0.0097070  -0.9017745  -0.3866206  -1.5229940
   0.0834482  -0.4593718  -0.3701626  -0.0438456   0.2373555   0.0522209
   0.8527146   1.0789731  -0.2996012   0.0576708   0.6505368  -0.4286435
  -0.1659066  -0.1982773   0.0071862  -0.1321312  -2.0647722   1.0143037
   0.2402317   1.3124927   0.1609972  -0.2036712   0.3497085  -0.1401179
  -0.1528590   0.0837777   0.4254546   0.6884077   0.3582833  -0.1037565
   0.0527009   0.0501706  -0.3463402   0.1532831   0.4405572   0.4011160
   0.2076307   0.4341444   0.6026450  -0.3075338  -0.0720510   0.0175766
   0.6987880   0.8944026  -1.6089150  -0.0685718  -0.7500552  -0.4444989
  -0.2154000   0.1336869   0.2610806   0.8099057   0.7069487   1.0288053
   1.0367436   0.8246977   0.2701025   0.2183008   0.1065575  -0.0115438
   0.1201582  -1.1384522  -0.3539927  -0.5055234   0.2014241   0.3125445
   0.4510037  -0.2330447  -0.1860070  -0.5588447   0.5601755  -0.3978035
  -0.5917220  -0.5265045   0.3845279  -0.1464427  -0.0302756   0.1976832
  -0.3408319   1.6486076  -0.2859762   0.4693392  -0.1087866   0.5434466
   0.0548788  -0.2394649  -0.1054552  -0.6929579  -0.2107704  -0.8466782
   0.6541532  -2.0413406   0.0888382   0.2003524   0.1537509   0.0590159
   0.7662101   0.1239030  -0.1247341   1.0841533   0.9206642  -0.2858717
  -0.0027908  -0.1182921   0.3564854   1.0765674   0.5083618  -0.5082909
  -0.4658820   0.0452947  -0.9080798   0.0521777  -0.0238124   0.1555485
  -0.8401353  -0.3929242  -0.2454810  -1.6137104   0.2473046   1.0056018
  -0.0571297  -0.0495933   0.0831892  -1.5152206   0.3424908  -0.1057995
   0.3759522  -0.1513905  -0.2840934   0.3028596  -0.0326924   0.3120408
   1.9602040  -0.4960433  -0.2360547   0.1572445  -0.3210124  -0.1973281
   0.1097060  -0.1682323  -0.0909320  -0.7798275  -1.4076619   0.1196763
  -0.1197774   0.4679218  -0.1454383   0.1439217   0.0257243   0.3357403
  -1.2734950   0.5659989  -0.2719988   2.0347515   0.5169196   0.5171920
  -0.0635625   0.3526933  -0.0259660  -0.9618326   1.3519752   0.8734722
   0.6339583   0.0243225   0.7382800   0.0877103   0.2236258  -0.1063950
  -0.3779624  -0.6776409  -0.7549065  -0.5151770  -0.6720770   0.0563108
  -0.2276269   0.0265439  -0.0801677   0.7264003   0.1345223   1.3655119
  -0.5893132  -2.6086834  -0.8057953  -0.1779757   0.0873618   0.1651102
  -0.0663609  -0.4621813  -0.8969546  -0.3698536  -0.4138991  -0.2154764
  -0.5548696  -0.1710380  -0.2327911   0.6897550  -0.4753607  -0.1301550
  -0.8367725   0.7120260   0.4670405   0.2275102  -0.0519438  -0.2527120
  -0.4760563   0.4133684  -0.4655868   0.8533417   0.1927972  -0.4214129
  -0.0007644  -0.0121916   0.0819230   0.0222402  -0.8049384  -0.0705275
   0.3588165  -0.1728485   0.3358869  -0.0075241   0.5110925  -0.0729940
   0.9711907   0.1394871   0.6795733   0.3817854   0.4917843   0.3987392
   0.0742327  -0.1024138  -0.0990853  -0.0465511  -1.0773286  -0.6131740
   1.4680218  -1.1452381  -0.5785403   0.2204748   0.0270988  -0.0067830
  -0.8557767  -0.9718505  -0.3953927   0.2822306  -0.4934309   0.8046867
   0.2563450   0.4720027  -0.1748094   0.9255065   0.3856513  -0.2577670
  -2.0669956  -0.5184717   0.2999869  -0.1808765   0.1351361   0.0728253
  -0.5912543   0.0931825   1.1055239   1.1278944  -1.3296337  -1.9592247
   0.1187796   0.0915662   0.0305746   0.0738228   0.1890958  -0.3672923
   1.8334441   0.9537313   1.6768281   0.1944070   0.1036196  -0.3331799
   0.3851039   0.1776706   0.1540635  -0.3512010   0.8549382   0.1593836
   0.2070162   0.2097055  -0.0239074  -0.5506547  -0.3899025  -0.1167099
   0.3370798   0.7936340  -1.2782324  -0.3376679   0.0818851   0.1068194
  -0.3501801  -0.1818722   0.2324325   1.5744963  -0.0176880   0.8575308
  -0.0110855   0.1684501  -0.2064476  -0.3199425   0.9208169  -0.8608809
   1.2141692  -0.5735455  -0.2518880   0.0966836   0.0006896   0.1046919
   1.3376794  -0.1748072  -0.1425458   0.8879862  -1.2959889   0.0647116
  -0.1458782   0.0345746  -0.2363403   0.8255225   0.1975125  -0.2690685
   0.0275379  -0.0374532   0.4528371   0.3119388  -0.0271513  -0.1032258
  -0.9516706   0.3660545  -0.4908615   0.2063049   0.5239792  -1.1015866
  -0.2150617  -0.1444432   0.2510452   0.0029177  -1.4990675   0.4341065
  -0.0712901   0.2020318   0.4053166  -0.1738107  -0.1160580  -0.2516698
   0.2961425  -1.0899132   1.6379474   0.3829060  -1.6688339  -0.0060504
   0.0869794  -0.2740534   0.0225283   0.3395849  -0.9910888  -0.1130651
   0.5646377   0.4626260   0.1580299   0.3254711   0.1327698   0.3574788
  -0.6591906   0.1625933  -0.2451593   1.0493356   0.4231655  -0.8763375
  -0.0404514   0.4495937   0.2111860   1.0765518   0.0188129  -0.4160064
   0.9204311   1.0193954  -0.6822624   0.1089619  -0.1119383  -0.1088600
  -0.3292888  -0.3813741  -0.0997387   0.0122804   0.3808665   0.1304795
  -0.0063836   0.1263165   0.2136190  -1.0922510  -1.2229778  -0.9000394
  -0.4321476  -0.0961769   1.0188777  -0.2295035  -0.0531357   0.0716603
  -1.2253517  -0.0142945  -0.7850917  -0.2197086   0.6613428  -0.3908324
  -0.0752368   0.0116646   0.1463252   0.5852684   0.3182871  -0.4077300
   0.2818176   0.3539595  -0.8607663   0.3389104   0.1102809   0.1316841
   1.8335650   1.4395499   0.1234628  -0.4177176  -0.5151374   0.1434287
  -0.1862671  -0.0115788   0.1526352  -0.5259420   0.4910338  -0.0857081
   0.3028514  -0.1556485  -0.8528609  -0.0367700   0.0920340  -0.2459885
  -0.3805832  -1.4720414   0.1911339  -0.6366790  -0.6965258  -0.3811728
   0.2165793  -0.3628035  -0.0124546  -0.5398970  -0.6553982   0.2762396
  -0.4867031  -0.4418054  -0.7464577   0.2172181  -0.0641238  -0.1748103
  -0.0970517   1.0432179  -0.0118919   0.1760118   1.0071703   0.1449060
  -0.2062566  -0.0191620  -0.1714549   1.1069444  -0.3902909  -1.4726743
   0.9603031  -1.0015888   0.9083384   0.1093548   0.0949614  -0.2447900
  -1.6719370  -0.9875314  -0.7316522   1.4404728  -0.5327988  -0.0967198
   0.1160668  -0.0111567   0.1757156   0.2064726  -0.0442320  -0.2330533
  -0.0975217   0.0282601  -0.8984896   0.0918387  -0.0191247   0.0708570
  -0.5870671   0.0499632  -0.6437576  -1.0708656  -0.4536079  -0.3922518
   0.2882200   0.1214742  -0.0812609  -0.0656990  -0.0588210   2.3993188
  -0.4839612  -0.2566598   0.0097972  -0.2790945  -0.2664564   0.3104952
   0.2101469   0.8418079   0.6751044   0.4039206   0.9555645  -0.3006471
   0.0009034  -0.0281037   0.1793799   0.4789751   0.0911559   1.4393401
  -0.7080531  -0.3845023  -0.8944306   0.0323552   0.0303058   0.3225215
   0.3221032   0.7388878   0.5749088  -0.4842099  -0.1308389   0.0344277
   0.0592941   0.1043156   0.1603737   0.5606708  -0.0360608   0.4355767
  -0.3873784  -0.1333368   0.2848733  -0.0291304  -0.3695449   0.2304903
  -1.7689440  -0.0009589  -0.8371769   0.1305500  -0.5910571   0.0800595
  -0.1200559   0.0122461  -0.1454243  -0.8652866   1.1207679  -0.3185861
  -0.0845712   0.0513353   0.9621527  -0.0496091   0.3042661  -0.4958565
   0.0497842  -1.1823732   1.0019819   0.8545292   0.8606073   0.7993328
   0.1069587   0.1378769   0.2309502  -0.1329243   0.4081548  -0.1078679
   1.2950452  -1.0707183  -0.0976438  -0.0172571   0.1227347   0.2304632
  -1.0058415   0.1497291   0.4172980   0.0280930  -0.8760496   0.2514133
  -0.1606446   0.4858697   0.1357013   0.3352472   0.1612519  -0.8344858
  -0.1705400  -0.9927946   1.1846030  -0.0343165  -0.0374631  -0.0375135
   1.1963475  -0.4763099  -1.0129818   0.5684477   0.4101790  -0.1835712
   0.0438966   0.1767235   0.0844756   0.1277776  -1.1497162  -0.1158245
   0.0758648  -0.5848450   0.0610127   0.0813823  -0.0939951  -0.1637563
  -0.8022582  -0.4909596  -0.4366059  -1.2689816   1.3374238  -1.3660993
   0.1233640  -0.0980687   0.2635897   0.0510024  -0.3636162  -0.1192153
   0.7395453   0.0097037  -0.1903598   0.0363835  -0.2249680   0.2268975
  -0.0335636   0.1662237  -0.4233196  -0.2548354  -0.1294267   0.7329264
   0.0535312  -0.1704627   0.4093709   0.5496333  -1.1972932  -1.1505495
   0.9382120   0.6408302   0.5931632  -0.3993421   0.1692711  -0.0268013
  -0.7001361  -0.5803767  -0.7928540  -0.9484985  -0.0151386   0.7710468
  -0.2121671  -0.1304271  -0.0922489  -0.3998692  -0.5794195  -0.6641561
   0.5216185   0.7893953   1.0345160   0.0688277   0.0513243  -0.0485432
  -0.6163100  -0.6849214   0.3766952  -1.8524060  -1.3967480   0.0053723
   0.2734678  -0.0538576  -0.0343863  -1.3481089  -0.2901014   0.9940965
   0.9470456   0.7833332   0.8535864  -0.3958470   0.1246970   0.0360228
   1.0600344   0.6419094  -0.9162307  -0.0262200  -0.1911691   0.8477357
   0.0792613   0.0037094  -0.0514364   0.3567733  -0.5913671  -0.0079344
  -0.4493945   0.6240429   0.2607851   0.0670265  -0.0744853   0.1386734
  -1.5073040   1.0030236  -0.5278535   0.6172242   0.0899820  -0.9025774
  -0.0441938  -0.3085893  -0.0134810   1.2406043   0.6027126   0.5228831
   0.0271937   0.8751884  -1.0451405   0.2936559  -0.2040118   0.4234044
  -0.4716863  -0.0188857  -0.3855517  -0.1336745   0.3438881  -0.6148793
   0.1602969   0.0145215   0.1929769  -1.2683074   0.3516894  -0.6825042
   0.0022329   0.5755599   0.1767017   0.6538282   0.1493094   0.2944630
  -0.1595670  -1.3258292  -0.1510897  -1.5404609   0.8628621  -0.3899147
  -0.1849378   0.1282753  -0.0857595  -0.6693259   0.1679070  -0.7101345
   0.6570841   0.6196830  -1.2422774   0.1462459  -0.4271060   0.0882466
   0.2917357   0.5005776   1.5434551   0.4712961  -0.5153060  -0.5910662
   0.0864683   0.2619449  -0.2162012  -1.0037829  -0.5446399   0.2404891
  -0.0076566  -0.4665490   0.0280096   0.0851568  -0.1579721  -0.2684807
  -0.7978217  -0.3847798  -0.8247009  -0.0800935  -0.1134391   1.5531095
   0.1089465   0.2049368   0.2150975  -0.0873439   0.1944011   0.7682835
   0.5420617   1.1029336  -1.7023705   0.1162187   0.2629539   0.1856468
   0.6578273   0.1264230  -0.4930616  -0.7483938  -1.6677967  -0.4789006
  -0.1550750  -0.1720206  -0.2445061  -2.1398900  -0.1937120   0.4214476
  -0.1081057  -0.6682077   0.4085185  -0.1103586  -0.0416788  -0.2726001
  -0.7099915  -0.1569166  -0.3864729  -1.2215919  -0.0617018  -0.4291735
   0.2284555   0.0221953   0.1408097  -0.8173846  -0.7223905  -0.4526372
   0.9244161  -1.6290145  -0.1448459  -0.0907582   0.1575997  -0.1420470
   0.1390940  -0.4104106  -1.0549084  -0.0039942   0.5147993  -0.0325544
  -0.1049211   0.1113616   0.0853985   1.0497274  -0.0640485  -1.6232797
  -1.3816447  -0.1463890  -1.5203550   0.1908099   0.2210380  -0.1144664
  -0.6581316   0.1995929  -0.8355536  -1.8064618   0.1217084   1.0546522
  -0.2463598   0.0650735   0.1985321   0.2361352   0.8983970   0.5530129
  -0.4090690  -0.9922612  -0.4947620   0.0686035   0.0026256  -0.0450283
  -0.3969950  -1.0815514   0.2210672  -1.3736355  -0.1269059   0.3383944
  -0.0200282  -0.1792735  -0.2613528   0.3302762   1.2089431   0.0906228
   0.0857601   0.0748492   1.0560726   0.2137396   0.1936731   0.1313697
  -1.2666641   0.7027117   1.0060365  -1.1876345  -0.3814283  -0.1538356
   0.1985977   0.2865910  -0.1204210  -0.2124479   1.1806258  -0.2466039
   0.3952353  -2.0052028  -0.6398348  -0.0864619   0.0965984   0.2105446
   0.9259147   0.4043676   0.7902513  -0.7017610   0.3643165  -1.1775216
  -0.1884995   0.0662908   0.1943098   1.1491412   1.6822931   1.7108071
   0.3710562   0.1562163  -0.4233744  -0.0033225   0.1543953   0.1988485
  -0.9572532   0.9109042   0.1207596   0.1136663  -0.1969100  -0.1780755
   0.0172559  -0.2098168   0.0995648  -1.3784678  -0.5311318   0.3363499
   0.6045876   1.6988885   0.5247228   0.0191655   0.2012728   0.0909133
  -0.4526204  -0.7879553   0.3231792   0.1725055  -0.1834478   0.0615632
   0.0702705  -0.1707344   0.0051399  -0.0444998   0.7941086  -0.0170076
  -0.3818090  -0.1461613  -0.2241119  -0.1319202  -0.1121218   0.1933551
  -0.5073576   0.2684852  -0.8049513   0.4847674   0.5360744   0.1705761
  -0.1865494  -0.1555929   0.0524626  -0.8093383   1.1923375  -0.9469763
  -0.1919642   0.2018841   0.7885960  -0.0656757   0.0565066  -0.2830787
   0.2056393   0.4112315   0.8437735   0.7786265  -0.5205986  -0.0373566
   0.2742873  -0.0805155  -0.3342042   0.8267221  -1.3851406   0.7843442
  -0.6703081   0.4791920   0.7200869  -0.1056721  -0.2955267   0.0716820
   0.6655215   0.5647073  -0.1635559  -0.2984899  -0.0190778   0.6295913
  -0.2449231  -0.3314361   0.0198418  -0.0997445  -0.8511719  -0.0803022
   0.5380222  -1.2425932  -0.3528931   0.2755068   0.3313386   0.0652520
  -0.2432071  -0.3028040   0.2266747  -1.5240414   0.3154716  -0.3348080
  -0.3466189   0.1422056  -0.1577111  -0.7861523   0.6033618   0.2428399
  -0.1456822   0.5990043  -0.1826362   0.0888430  -0.1479717  -0.0373748
  -0.5887608   0.5618803  -0.2595046   0.4211286   0.0531784   0.4999379
   0.0165818   0.0306339   0.0302635   0.0047539   0.4917464   0.1271193
  -0.6394899  -1.2176064   0.3990893   0.2572192   0.1600051   0.1914480
   0.6589620  -1.1008994   0.7471220   0.3234969   0.5861491  -0.7914817
  -0.2646493   0.0530216  -0.0090177  -1.6770317  -0.3582384  -1.3893687
  -0.1854264  -0.6627063  -1.0247145   0.4744551  -0.1377759   0.3288414
  -1.2455879   0.1848665  -0.6766495  -0.3023057   0.1879373  -0.9248267
   0.0429402  -0.0535894  -0.1083388   0.1374306  -1.2861297   1.3278335
  -0.1527214   0.3262181   0.5422986  -0.1191414  -0.2105022   0.0011940
  -0.2132389  -0.1575607   0.0943054  -0.0322015   0.3932403   1.3276348
   0.0003073   0.4332593   0.2161864   0.0321211   0.9440748  -0.5606837
  -1.0182325  -0.7081985   0.2929270   0.0920573  -0.0905387  -0.0367362
  -0.4458327   2.0055497   0.1457893  -0.9966743  -0.9083382   1.0961709
   0.0151165  -0.0676774  -0.1899212  -0.7762402  -0.1842401  -0.7749746
   0.0136741  -0.2187337   0.3167486   0.2094282   0.0551794   0.1540467
   0.6314615  -0.3858038   1.4548072  -0.1491924  -0.4419851  -1.7057050
   0.1338684  -0.2089178  -0.0405943  -1.1099982   0.3847872   0.4014514
  -0.7516172   1.0024376  -0.1713414   0.3075102  -0.1662342  -0.0622152
  -1.5045631   0.9689894  -0.7125777   0.2862043   0.3586204  -0.1551857
  -0.0852809   0.3061885  -0.1785730   0.4569217  -0.3369635   0.3119265
  -0.2031031   0.0968521   0.0211209  -0.2702708  -0.0234144  -0.1982857
   0.3836648   0.0453506  -0.5538419  -0.2575755  -0.8806337   0.0150055
  -0.2071371   0.2593339   0.0242476   0.4571934  -0.2490343   1.2279892
  -0.3790222  -0.4427669  -0.4871137   0.0433083   0.0387009   0.2343358
   0.4245904  -0.5339677   0.2390316  -0.2679583   0.3637734   0.9184043
  -0.2540707  -0.0172996   0.1508639   0.8433738   0.0197967  -0.0115775
  -0.5249729  -0.4472471  -1.2291140  -0.0033999   0.0928251   0.1101966
   0.2703649   1.7738077  -0.6878404  -0.0574571   0.0420362  -1.6414992
   0.3598302  -0.0261928   0.0376660   1.0562882  -1.2945987   0.4616181
   0.7236120   1.3293663   0.2823871  -0.3589994  -0.0058845  -0.0211561
  -0.9076946  -0.5664890   1.0142051   1.4518280   0.1648265  -0.0824310
   0.1194416  -0.1542595  -0.2046834   0.5000176   0.7085514  -0.7095062
   0.7406588  -0.9503606   0.2955009  -0.1254029  -0.0006253   0.1874589
  -0.7255466   0.3083836   0.7279641   1.0589698  -0.4118841  -0.2259838
  -0.0925423  -0.2487661   0.2312190   0.1987383  -0.4663581  -0.3025126
  -1.4960461   0.4445946   0.9894399  -0.3800310   0.0340064  -0.0841543
  -0.3295363  -0.8703841   0.2051677   0.6311020   1.2612153   1.8892161
  -0.4232204   0.0658287  -0.2077287   0.5400291  -0.0192101   0.3186815
  -0.9508651  -0.3907606  -0.1270210   0.1778015   0.0104816   0.3636527
  -1.6847797   0.8353296   1.1411179  -0.3961412   0.3241560  -0.3465451
   0.1111786   0.0586793  -0.0242799   0.1518987   0.5530030   0.8568461
  -1.1931690   1.0386057   0.8614979  -0.3326879   0.1283981  -0.3163877
  -1.5520279   0.9724341  -1.3248049   0.3046134   1.5473151   0.6861737
  -0.0056189   0.0127372  -0.0331253   0.9070395  -0.7065003   0.8792971
   0.0620427   0.9840033   1.7436906  -0.1912271  -0.3348087   0.2477580
   0.6787565   0.1772570  -1.2430998  -2.7752742  -1.1663017   0.8108354
  -0.0885526   0.1713467  -0.0086568   0.2330142   0.4358162   1.9465140
  -1.1499338   0.8535574   0.6045702  -0.4969496   0.2907915  -0.1496831
  -0.8684016  -0.9175135   0.3292182   1.3601213   0.7678697   0.3234214
   0.0477122   0.0418960   0.1171928  -0.1888430  -0.3303639   1.0682749
   0.5702943  -0.6211823  -0.6334887   0.2073086  -0.2791513  -0.1972116
  -0.0910314  -0.4819214   0.8175582  -1.7556323   1.0729946   1.2624680
   0.1067666   0.0223390   0.0141639   0.8581105  -1.5301528   1.4800163
   0.5371080  -0.4907186   0.0413971  -0.0199006  -0.0498127   0.1674646
   0.7916706  -1.1475475   1.4656709   0.0425872   0.0086396  -0.2603845
   0.2799574   0.2238913   0.0218155   0.2909822  -0.3717759  -1.2300982
   0.4143190  -0.1216224   0.1971107   0.3075199  -0.2020393  -0.1720019
  -0.0152261  -0.6150969   0.9397737  -0.4679353   0.2940628   1.0512442
  -0.2707634  -0.0670808  -0.0946395  -0.7053883  -1.0250317  -1.0730046
  -0.6254721   0.6620173  -1.4325451  -0.2854816   0.1090032   0.1569162
   0.9344505   0.5725194  -0.3120787   0.2535107   0.7052509  -0.2660947
  -0.1843306  -0.0383098   0.1596040   0.1996826  -0.6073647  -0.3130834
  -0.5595752   0.5838308  -1.6122805  -0.0019359   0.2611080  -0.0113269
  -0.7038317   0.5183457  -0.5925736  -1.5530122   0.5865041  -0.2031224
  -0.0807689   0.2683100   0.0146600   0.6355688  -0.1873647   1.9645929
   0.2791755   0.8825728  -0.9129115  -0.0933650  -0.1084899   0.2557682
  -1.3666655   0.5626196  -0.6294216  -0.4354970  -0.1363564  -0.4064627
  -0.1598772   0.0165820  -0.0507003   0.2080789   0.7057510   0.0972949
   0.2170731   0.6826784   0.3579094  -0.3052897  -0.1662046  -0.0669665
  -0.7686455   0.5533725  -1.0285678  -1.1394194  -0.9869461   1.4274835
  -0.0095419   0.0305916  -0.2258075   0.3143633  -2.3990536  -1.2923256
  -0.7779616  -0.7190104   0.2107842   0.1619204  -0.1257938   0.1872176
   1.3226518   0.4614334  -0.1698395  -0.6153730  -1.0110393  -0.3859744
   0.2502345   0.3845369   0.3178630  -1.5521939   0.7307076   0.2964390
  -1.0434596   0.4669351  -0.2799447   0.3168438  -0.0414939  -0.0894223
   0.1416906  -0.0463327   1.2102661  -0.6260360   1.7134914   0.0062611
  -0.2514080  -0.0745742  -0.1881599   1.7333445  -0.2380031   0.4959936
  -0.4961435   1.1574115  -0.7498581  -0.0619448   0.0888090   0.0794384
   0.9629902  -0.0671388   0.2700495  -0.6516369  -0.8385948   0.7503907
  -0.1056531  -0.2358192  -0.0631231  -0.0058871  -1.2779626  -1.4673037
   0.4293949  -0.0057365  -0.6349513   0.1164584   0.2370896   0.0891275
  -0.1256430   0.0060461  -0.9258148   0.1701596  -0.2577126   0.4469341
   0.0481327   0.0163403   0.0246695  -0.5168705  -0.0125454   0.6806127
  -1.1978191   0.1200133  -0.1380812   0.3377191  -0.1210022   0.1171856
   0.0973277   0.6923922   0.5192502  -0.0442898  -1.6137803   0.6692623
   0.2964543   0.0116155  -0.0830464   0.3094154  -1.1256327  -0.6576293
   0.1149330  -0.9126619   0.1115899  -0.1486006   0.2934079  -0.1296454
   1.3514985   0.1980179  -0.7570646  -0.2536759   0.3432433  -0.2283926
  -0.0278093  -0.0769551   0.1247059  -0.0377514  -0.0183391  -1.0214393
   0.9464871   0.8611933   0.1441640   0.1306774  -0.0394378   0.1311204
  -1.1436345   1.3550503  -0.9840720   1.0866808   0.0562673   1.4407655
   0.2089633  -0.1738966  -0.3955453  -0.0687971   0.0422861   0.8658846
   0.4376094   0.3934136   0.2384736  -0.0870679  -0.0471376  -0.1743347
  -0.2265465   0.6709318  -0.7149399   0.1051996   1.2231755  -0.2841655
   0.1100635  -0.3147841  -0.3148491   0.2172784   1.1308602  -0.5090972
  -0.6617551   1.2108455   0.1751458   0.1185274  -0.1735991  -0.0392546
   1.3949519  -0.7074045  -0.8724543   0.1456035  -0.7311502  -0.2888048
  -0.1064746   0.0191859  -0.1418852  -1.2264197   0.3469379  -1.2993774
   1.2283588  -0.5279903   0.3885078   0.0720012   0.0128630   0.3033974
   0.6464898  -0.1392259  -0.2781915  -0.2278877  -1.8993293   1.1701661
  -0.1441500   0.1803093   0.2027998  -0.3947728   0.2380316  -1.5165435
  -0.0528566   0.6132660  -0.8207713  -0.2033474  -0.2469298  -0.1977286
   0.4887852  -1.2492016   0.3085451  -0.1338918   0.5229932  -0.0095100
  -0.2821413   0.1062373   0.0406641   0.4009793   0.5429135  -0.8345817
   2.0994128  -0.8072747  -0.3731339  -0.0943254   0.2353215  -0.3618063
   0.2149898   0.6543490   0.9007912   0.5524692  -0.7340134  -0.8099921
   0.1919954  -0.0295493  -0.4513895   0.5979879  -0.4067298  -0.0218200
  -0.5940499  -0.1059393  -0.1719261  -0.0533939   0.2547071   0.0468396
  -0.4454363  -0.1707227   0.4640610  -1.1165289   0.7343803   0.8423696
  -0.0464666   0.0693588  -0.2423268  -0.7932355  -1.7078690  -1.9516434
  -0.0442018  -0.6438492  -0.2301173  -0.2209199  -0.2699964  -0.0011756
  -1.4401711  -0.1510478  -0.1917424  -0.7192186  -0.3968758   1.3966882
  -0.0839016   0.1437515   0.4598224  -0.3389061  -1.1945793  -0.0602525
  -0.6211783  -2.1402410  -0.3162308  -0.0845030  -0.5494565  -0.3035407
   0.2775637   0.6860113   0.6464401   0.5569870   0.7037699   0.0404150
   0.0607671  -0.1068498  -0.0637494  -0.6826127  -0.5764384  -0.0205358
   0.9632960  -0.6871506   0.2417319   0.2882886   0.2938410  -0.1810203
   0.3982521   0.0745940   0.3210059  -1.0351409   0.5800325   0.1424596
   0.3761277  -0.1042137   0.4168776  -1.3774215   0.2255807   0.0865926
   0.0425540  -0.3508391  -0.9482415  -0.4760978  -0.2706722  -0.3981322
   0.6883567   0.1386610  -0.5651539   0.6144340  -0.4078796  -0.9832303
  -0.1875652   0.1067428  -0.1549454  -1.1168039  -1.0414558  -0.8123004
  -0.0781178   1.2100642  -1.0844497   0.2576589   0.1365172  -0.1063760
   0.1076217  -0.6963205   1.0315200   0.2657567  -0.3958058   0.1484965
  -0.3041476   0.0210825   0.2254929   0.2884801   0.0428030   0.2267956
  -0.1053029  -0.0478996  -0.2159217  -0.0593942   0.2121108   0.1850065
  -0.6074011  -0.8989060  -0.9540227   0.8687735  -0.5108197  -0.1574213
  -0.2514792   0.0433462  -0.0475394   1.4439496   0.0689149  -0.3862146
   1.6008765  -0.4438288  -1.6367501   0.0173878  -0.2927240   0.1443595
   0.3384907   0.2682726   0.0268592   2.1987268   0.0676157   0.0988743
   0.0298391   0.1454691   0.0705547  -1.0386078   0.0186883  -0.5857741
  -0.7825669   0.0798011  -0.6244544  -0.1069869   0.3433055   0.2241771
  -0.7649343   1.1351591  -0.8898925   0.7954754   0.4459641  -0.0608546
   0.0587778   0.0690443   0.1248287  -0.6879009  -1.0814648  -1.6268981
   1.1874358  -0.4855771  -1.1568013  -0.0274560  -0.0130872  -0.2668434
   1.0051658  -0.7222958   0.0554631  -0.1762643  -0.2300521   0.2649774
   0.2340676  -0.0654682  -0.1546294  -0.8996933  -0.4451615  -0.3968609
   0.8757147   0.3074521   0.9784729  -0.2185220  -0.1864136   0.0511958
  -0.2517386   0.5917076  -0.9164752  -0.1204661   1.6519086   0.4444808
   0.2553540   0.0662504   0.0565981  -1.2288993  -0.6469823  -0.4147303
  -1.1621723   0.4353904  -0.1926794  -0.1898689   0.0606866  -0.0066819
  -0.6911062   1.0921861  -0.5040469   1.4367718  -0.0535276   1.0734440
  -0.4499023  -0.0042690  -0.0870488  -1.1030472   1.2091848  -0.0021609
   0.7564171  -0.4697793  -0.4441985   0.0966187  -0.0076208  -0.1936223
  -0.1627643   0.4378453   0.6922671  -0.4160586  -0.1338827   0.9068274
   0.1806761   0.1343708   0.1384293  -0.7592599   0.9249049   0.4513252
  -0.8755034   0.3276338   0.3219470  -0.2231007  -0.1479415  -0.1345447
   1.4243141  -1.5501543   0.6971079  -0.3152547   1.6177704  -0.5172338
  -0.0947503   0.2590109   0.0406150   1.3555629   1.7981308   0.4194854
  -0.7953881  -0.1237070   0.4762652   0.0756329   0.1122171   0.0738219
   1.1415159   0.5401319  -0.0071523  -1.5458562  -0.6438392   1.8443579
   0.0065431  -0.0907141   0.0456537  -0.6432330   0.3773515  -0.5446186
  -0.2449725   1.3766846   0.3031792  -0.3345282  -0.0052979   0.1153893
  -0.4744584   1.2194659  -0.7755430  -0.7598256   1.5431921  -0.2117575
  -0.1377499  -0.3298728   0.1027875  -0.5063034   0.3126671   0.0934553
  -0.0101822  -0.3386324   1.1732784   0.1833300  -0.0913739  -0.1995130
   0.4436005   0.3896741  -0.7845896   1.6648438  -0.0587660  -1.3448667
   0.1631658  -0.0205149   0.0057538  -0.2131946   0.4692759   0.4939735
  -1.4297090  -0.6811719  -1.5063495   0.2188128  -0.2111240   0.1292771
   0.0989146  -1.1640357   1.0044034   0.2573874  -2.7954127  -0.7957631
  -0.1812285   0.1633307  -0.0262054  -0.7532344   0.3967744   1.9921373
  -0.3895968  -0.8223631  -0.1364278   0.1520453   0.0753630  -0.0534826
  -0.3520143  -0.3011713   0.1716564  -0.9131482   0.1979437  -0.4504206
   0.1903986   0.2063189  -0.1359823  -1.0824075  -1.1361720  -0.0591391
  -0.7408786   0.6071455  -0.4025713  -0.2091841   0.3422621  -0.2559161
  -0.0409397   0.4721157  -0.5350185  -0.0631670   0.0220915   0.8040863
   0.3733319   0.0903611  -0.1659537   0.8582888  -0.1485613   0.1744641
   0.4274393   0.4985824   0.5949528  -0.0226845   0.0353118   0.1168139
  -1.3111749   0.0995479  -0.5988394   0.0924317   0.3257183   0.7310475
  -0.3441674  -0.1195897  -0.0589899   0.0979386   0.8835810  -1.5601900
  -0.2002594   1.0248849  -0.0524135  -0.3939638  -0.0164244  -0.2012488
  -0.5925261  -0.7041986  -0.2390070   1.0050479  -0.3807512  -1.2926644
  -0.0381252   0.0832902  -0.0832666  -0.5433498  -0.0100609   0.8876088
   0.3960144  -1.3178067   0.7661932  -0.0121389   0.2427820   0.2563714
   0.2093829   0.1749711  -0.2248222   1.5777259  -0.5631153   0.7748067
   0.0543778  -0.0848563   0.0465483  -0.5819630   3.0203663   0.2628859
   0.4827197  -0.7228930  -1.0089950  -0.2758974   0.0382721   0.5313863
  -1.2759138  -0.2698232   1.2097428  -0.3049182  -0.3097033  -0.0377707
  -0.3327215  -0.2024891   0.1102578   0.2891275  -1.4654843   0.0234379
  -0.6631580   0.8785134  -0.1273505   0.1314375   0.1023706   0.0920581
  -2.1196368   0.6758486  -0.4404660  -0.4214831  -0.0069245  -0.0209964
  -0.2205921   0.2175907   0.0297788  -0.6045584  -1.1738561  -0.7931214
   0.5929183   0.2801391   0.4912545  -0.1395626  -0.1444371   0.0071254
  -0.6760902   0.2104127  -1.5285279   0.5410546  -0.0099007  -1.0909339
  -0.1259487   0.0166648   0.2275623   0.5060460   0.0427841  -0.7817858
  -0.6800165   2.3223623   0.4840012  -0.2119085  -0.0604342   0.0283582
  -1.0108533   0.2867328   0.7479146  -1.0202415  -0.7699982  -0.7201848
  -0.2003690   0.0946202  -0.0640364  -0.0239313   0.5051014  -1.4046261
   0.4309857   0.6664763  -0.7182778   0.1040269  -0.2193236  -0.1830710
   0.5250993  -2.1104936   0.0728690  -1.1044279  -0.6445224   0.3217546
   0.0971001  -0.2484563  -0.2649217  -0.9640419   0.5091065   1.2375962
  -1.6242277  -0.1131357   0.5757967  -0.3299491  -0.2167396   0.1079912
   0.3896696  -0.9034077   1.1400437   0.0316485   0.4442408  -0.0899988
  -0.0384180   0.1839265  -0.0971636  -1.0112953   0.9755519  -0.9450457
   0.2667553   0.7013080   0.6376490  -0.1343140   0.0926900   0.0215056
  -1.1908013   0.2893192  -1.0803419   0.1745924   0.9664810  -0.5955008
   0.0686360   0.0890193  -0.2074811  -1.0585027  -0.7385392   0.5022396
  -1.3462932  -1.2292930   0.1809408  -0.0346494   0.0167223  -0.2846154
   1.0705589  -0.1462675   0.7175289   0.0851234  -0.3791857  -0.2056607
   0.5235846  -0.2940861  -0.0324403   0.0483863  -0.7934284  -0.9325008
  -0.2716386   0.2077174  -1.2550178   0.0685036  -0.2942532   0.0157993
  -1.0948721  -1.3585506  -0.5620266   0.2649990  -1.2725086   0.1424759
   0.0539560  -0.0827632   0.0564404   0.5284738   0.1232839   0.0549912
   0.9701109   0.3711789  -0.1646569   0.1855231  -0.3399727   0.1018248
   0.0116898   0.5797132  -0.5526269   1.1352658  -0.2323658  -0.8866651
  -0.0291115   0.0345628   0.0700946   0.6714319  -2.1519173  -0.3480969
  -0.7391346  -0.5984494  -0.8417943   0.0902649  -0.1019886   0.1310841
   0.6084903   1.5749195   0.2960900  -0.0642154   1.1057439   1.0909603
   0.1745607  -0.0804444  -0.2571757  -0.5660695   0.4105953   0.5234053
   0.0264081  -1.2534117   0.0413286  -0.1211759  -0.0874752  -0.1506595
   1.2719392   0.0478224  -0.5324831  -0.4336586  -1.5448295  -0.0066666
  -0.0106188   0.2279745   0.1960634   0.7707292  -0.7149653   1.7575833
   0.1122277  -0.4183113  -0.9964197   0.1113423  -0.2875907  -0.3544358
  -0.1020423  -0.5334517   0.1321993   0.9799191   1.3445044  -0.3911544
   0.1113629   0.1508842  -0.0235368  -0.6198639   0.3815684   0.9930503
  -0.3891775  -0.7952885   0.9309696  -0.1603290  -0.3863598   0.4178751
   0.6180715   0.1291233   0.0530314   0.3050020   1.8273299  -0.2119735
  -0.1887099  -0.2363944  -0.0266522  -0.4328544  -0.2784586  -0.7042961
   1.3936874   1.2196403  -0.2422544   0.1631856  -0.4669176  -0.2108494
   0.1326692   0.1421814  -0.2188755  -0.6543337   1.6506342  -0.4907241
  -0.2783547  -0.1191739  -0.1892166   1.4934552  -1.7160019   0.0990408
  -0.7173894  -0.3275238  -1.0729814   0.0635263  -0.1533357   0.0018061
   1.0819145   0.3426581  -0.8899940  -0.5801080  -0.6093969   0.3491002
   0.0548717  -0.0520776  -0.0051106   0.3213855  -0.1363233  -0.2189965
   0.1155204   0.2445010  -0.2041372  -0.0120012   0.1141095   0.1293249
   0.2215470  -0.8967591  -0.9546690   0.7343003  -0.5160565  -0.8498815
   0.1138669   0.0241104   0.0009345  -0.0263786  -0.3229608   0.3353864
  -1.8627830   0.6294628   0.5052628   0.0559886   0.0326016  -0.0422683
   0.3243880  -0.2088635   0.0446524   1.1963493   0.2123481  -1.1936058
   0.0521297  -0.0193730   0.3495555   0.5622199   1.3649646   0.0448957
   0.4110312  -0.0279833   1.0830818   0.2087364  -0.1960941   0.1269052
  -0.6934500   1.6036107  -0.6218984  -0.2705730  -0.8635865   1.4177248
  -0.1073967  -0.2337479  -0.1494314  -0.7714478   0.4658687   1.8425111
   0.5224846   2.5892273  -0.0195132  -0.1538479   0.0236279  -0.1281572
   0.7998002  -1.1590921  -0.0551501  -0.6120173   0.2714481   0.3187812
  -0.1018485   0.4389616   0.1577529   0.8667677  -0.1307927   1.3145630
   0.1635392   0.5451404   0.4476765   0.0037988   0.0985197   0.2033424
   1.3567016   0.4811973  -0.5278045   0.5257139  -0.2142788  -0.1340637
  -0.0566309  -0.1394835   0.0239934  -0.1151874  -1.2912929   0.5324490
  -1.2296401  -0.3445033   1.1893014   0.1412249   0.4306606   0.0093173
  -0.5133899  -0.4835453   0.7797229  -1.2060173   0.6776187  -0.8359208
  -0.0105019   0.2028614   0.2559575  -1.2302509  -1.2024829  -0.9108510
  -0.2383019   0.0633308  -1.0907395   0.2190376   0.1040433  -0.1521528
   0.6659751  -0.8835504  -0.9879456   0.0006639   0.6031384  -0.2359332
   0.0932089   0.0816398   0.1543955  -0.3418645   0.3609800   0.6912802
   0.3706917  -0.3780711  -0.8834619   0.1815241   0.1471975  -0.2733208
  -0.6922066   0.2001703   1.2581971  -0.0875071  -0.1466913   0.0772261
  -0.2910165   0.1320900   0.1817060  -1.3165519  -0.3813096  -0.3325673
   0.9293530   0.8518361   0.2978543  -0.0603158   0.0502267   0.0514194
   0.7789087   0.6104475   0.2928831   0.7429813  -1.6677879   0.0780681
   0.0280243  -0.1678037   0.1138505  -0.2181876   1.2590410   1.7576509
   0.8108665  -0.2630905   0.0339231  -0.2503412  -0.0559367  -0.4027006
   0.7702722   0.1953523   0.5940455   0.8506597   0.4436560   1.3478348
  -0.1160086   0.2501634   0.0505014  -0.2173180  -0.3068344   0.8990576
   1.7914537   0.2602761   0.6267222   0.2869950   0.1517848  -0.3618202
  -0.5506038   1.1865479   0.9989642  -0.1121363   0.4752743  -0.1743199
   0.2289861   0.3463677  -0.0505122  -1.1805682  -0.7436892   1.0556592
   0.4704605   1.3859500   1.0955575   0.4887553  -0.3370439   0.0194960
   0.9110494   0.0604042  -0.3402245  -0.3233657   0.5737975  -0.6661584
   0.0494161   0.0420052   0.0501569  -0.4029833   0.5080050   0.4061611
  -0.4789428   0.4767774   1.2825657  -0.0468123   0.0467743   0.1665708
   0.2973513   0.3428769   0.1256597  -0.6242303  -0.1505893   1.0765295
  -0.4392716  -0.0472145   0.2851205  -1.0471649   1.8072888  -0.7434687
   0.0495916  -0.4262803   1.0694347  -0.3401383   0.0030102  -0.0562305
   0.6710585  -1.1556716   0.6119350  -0.4070176   1.1328335  -0.8684985
   0.0295173  -0.0341926  -0.1337566  -1.3445453  -1.5880155  -0.3497016
  -0.8073264  -0.6542945  -0.4625388   0.1202167   0.1950026  -0.1711153
  -0.2356277   0.1968638   0.0860278   0.2181257   0.7156375  -0.3546421
   0.0553597   0.0973492  -0.2176269   0.9367215   1.3768798   0.1519887
  -0.0776940  -0.1606251  -0.1632693   0.0004135  -0.2524869  -0.0856854
   1.3412386  -1.2282983   0.4948210   0.2246208  -0.6417262   1.3070414
   0.1317545   0.0603936  -0.1553966  -0.2621544   0.2535824  -0.2659930
  -0.2822558   0.4876823  -0.3311758   0.3081711  -0.0090767  -0.0452294
  -0.0581799  -0.5020962  -0.0338214   0.1268219   0.9533524   0.2070600
   0.1120634   0.1053270   0.1263670  -1.2334836  -0.0337373  -0.2320686
   0.1594922  -1.3276826  -1.3506870   0.1751417   0.0391376   0.2412323
  -1.1187126   0.0678404   0.3998674   0.0057395   0.0679058   0.0428047
   0.0183848   0.1081980   0.0194381   0.3879617   0.0342182   0.0059039
  -0.8831623   1.2673913  -0.0367095  -0.0919763   0.2818437   0.0367516
   0.1157365  -0.6154098   0.0139942   0.7006116  -0.0150026   0.3995921
  -0.0208326   0.0099561   0.3972333   0.8641765  -0.6355285   0.7643390
   1.7561097  -0.7337212   0.6282397   0.0742315  -0.0237535   0.2154334
   1.0032602  -0.7157985   0.5041175  -0.5907937  -1.2451189   0.9470813
   0.1742051  -0.0403253   0.0502531   1.0260447   0.5171854  -0.3891752
  -0.2963496   0.4713509  -1.5036147   0.3340985  -0.2761409   0.2251493
  -0.4824640  -0.4121788  -0.1812373   2.2892526   0.8981497  -0.2320863
  -0.0628949   0.0435150   0.2185774   0.9565751   0.2117744  -0.7299252
   0.7230520   0.0136598   0.0341302  -0.2544190  -0.1964658   0.3377247
  -0.6866855  -0.7681005  -0.6273690   1.6364813   0.8163659  -0.5467711
   0.0281137  -0.0913486  -0.1142595  -2.4940048  -0.4658335  -0.5573893
  -0.0528293  -0.8827022   0.2455175  -0.0787251   0.0598717  -0.1863477
  -0.1364268  -1.1188727   0.8953349  -0.7481728  -1.2263734  -0.2165707
   0.1455258  -0.1291972  -0.1037264   0.2309611  -0.5662562  -0.1189266
  -0.6724147  -0.8004158  -0.2272652   0.2513212   0.0201684  -0.2204062
  -0.0716744  -1.0917433  -0.6872038   0.1013808   0.1521825  -0.7618386
  -0.4189960   0.1798565   0.2151643   1.1959718   1.0577651   0.4661294
  -0.4671031   1.6906703  -1.1016246   0.0585345   0.0250073  -0.2484262
  -0.2710869   0.8942901  -0.4038777   0.1878741  -0.0814562  -1.3862019
  -0.0305586  -0.0159738   0.0327785   0.2477875  -1.0182510  -0.1877800
  -0.0561849   0.0339003  -0.2517054  -0.1414660  -0.2839198  -0.0630369
  -0.9584332  -1.2202571  -0.3390540   0.7342713  -0.3938639   0.0948979
   0.0849486  -0.1907738   0.2331145   0.5363164  -0.6474780  -0.7455434
  -1.1182441   0.4556185   1.2683798  -0.1229355  -0.2726809  -0.0468613
  -0.8450764   0.0352996   0.2749043   0.2534697   0.3013191   0.7512637
   0.0433220   0.3578424   0.1115319  -0.7364746  -0.4483771   0.8356917
   1.0611203   1.4254603   0.2642040  -0.1729783  -0.0453606   0.0335113
  -0.5331378  -0.1619497  -0.1023250  -1.8621050  -0.0090169  -0.0540597
  -0.0517492  -0.1128004  -0.2667819   0.4940522   0.6058973   0.6281679
   0.6762048  -1.2102806  -0.6057402   0.0546526  -0.1209312   0.1044636
   0.4979128   1.0781965  -0.1836670  -0.3894238   0.5221528  -0.1678106
   0.0377681  -0.0212530   0.0648276  -0.0527686   0.7757088   0.5459827
  -0.1709544   0.3294062   1.8029671  -0.0428463   0.3500867  -0.0789299
  -0.1969456   0.4026327   1.4943650  -0.3141435   2.4951263  -1.0290061
   0.3089114   0.2446441  -0.4970161   0.9529734  -0.4564020   0.4383622
  -1.0201154  -0.3838648  -0.9475855  -0.1449489  -0.0404497   0.0620751
   0.3225700   0.6144804  -0.0656734   0.0211959   0.0783809   0.1067497
   0.4387693   0.3207513  -0.0509735  -1.1788653  -2.4593352  -0.7473414
  -0.2238446  -0.1551141   1.1341100  -0.0592412  -0.2102603  -0.4284017
  -0.5631863  -0.7277108   1.1188214   0.2076816   0.1132248   0.9308841
   0.0195472   0.1267144   0.1591318   0.3097496   1.9441217   0.6000880
  -0.2898365  -0.1845933  -1.0057750  -0.0976313  -0.3575832  -0.3302480
   0.1309781  -0.6308832  -0.0774382   1.7265688  -0.5927281  -0.0591234
  -0.0128321   0.1158195  -0.1868727  -0.0191009   0.2719847   0.1565665
  -0.2846139  -0.0312254  -0.3232611   0.3096910  -0.2462459  -0.3031299
  -1.0977494  -0.6751058  -0.8114189   2.3741388   1.0156669  -0.7838307
   0.0888970   0.1200822  -0.1229071  -1.8068396   0.1080241   0.7599002
   0.0719959   1.3185774  -0.4264451  -0.3108354   0.1828392  -0.0629753
  -0.2170677  -1.2707841  -0.0115792   1.5295837  -0.6538007   0.3790775
  -0.1440301   0.2784683  -0.0144618  -0.1779776  -1.0657566   0.6253390
  -0.2700115   0.7208581   0.3434488  -0.2201806  -0.2963705   0.1205357
   0.8602072  -0.1213694  -0.5477385   0.9087305   1.3969079  -1.0941465
   0.1741314   0.0977363   0.1942485   1.2883791   0.2672569  -0.0490649
  -1.2295806  -0.2860268  -1.1823027  -0.2452947  -0.2512326  -0.3294017
  -2.4051689  -0.5368772   0.4889508   1.2004019   0.0198280   0.2084946
   0.4333323   0.0115357   0.0648323  -0.2780692  -0.9043469  -0.6200455
  -0.1761281   0.0234881  -0.4416833   0.0546733   0.1639925  -0.3352120
  -0.3707491  -0.0542365  -1.5313736  -0.3838657   1.2032782   0.1100454
   0.0727045  -0.2886270   0.3095600   0.1734001   1.3822421   0.0529434
   0.4168925  -0.6041835  -0.9204426  -0.2942351  -0.1890203   0.1218312
  -0.1195388   1.0470799   0.3092896  -1.1310452   0.8034436  -0.4332206
   0.0596798  -0.1815363  -0.3298549  -1.4500397  -0.2519486   0.0025880
  -0.6424036   0.2088715   0.3563083   0.0918363  -0.1114308   0.0373657
  -0.0484090   0.1522566  -1.4216272  -0.5674783  -0.8851508   0.2728555
  -0.1933251   0.2542049  -0.0407532  -0.8015552   0.1816533  -1.1495991
  -0.0108753   0.1256027  -0.1465355  -0.1332965  -0.0858416   0.1004336
   0.5746893  -0.3301288   0.2665021  -0.4073318   0.8594020  -0.5246698
  -0.0176263  -0.1594056   0.3509677   0.4869268  -0.2802982  -0.5082030
   0.4421093   0.2022937   0.1177120  -0.0325154  -0.0122715   0.0658759
  -0.4116262   0.8589695   0.0867404   0.6975776  -1.7796916   0.6755450
  -0.3025356   0.0702530  -0.1202686  -0.4499225  -0.9174680  -1.2031093
  -0.5370710   0.2289362   0.4356225  -0.0579524   0.2562239   0.0695302
   0.5167505   0.0818283  -0.4978654   0.1078641   0.1825653  -1.0977060
  -0.3935804  -0.0127541   0.2759027   0.9607064  -0.0347263  -0.2323736
   0.6512475   0.1912563   0.7665483  -0.0575126  -0.1501192   0.3148645
  -0.7754148  -0.7284469  -0.1454839   0.7993859   1.0312503  -0.5688820
  -0.0863131   0.0691088  -0.4877753  -0.6928835  -0.0477515   0.4191258
  -0.0849053  -0.3089126  -0.1741666  -0.0372707  -0.0556880  -0.1855190
  -1.5246003   0.3734913  -0.2515504  -1.4688953  -1.0250164  -0.3215261
  -0.1098391  -0.2759152   0.2259299   0.8956920  -0.1006634   0.2977597
   0.2751841  -1.1118145  -0.5541779  -0.2647743   0.2173648  -0.1440862
  -0.7637071   0.3603865   0.8398431   0.6600911  -0.0210505   1.5816942
   0.0542815  -0.0675106   0.0175220  -0.8759610  -1.3757938  -0.6821656
  -0.1961675   0.8189200  -0.0240632  -0.2359458   0.0240534  -0.0699809
   0.2939109   0.5173357  -0.9751698  -0.8587322   0.6602061  -0.2095001
  -0.0466149   0.5029571   0.1308437  -0.0699905  -0.6510505  -1.5425553
   0.3852418   0.3615746  -0.7785886  -0.0420041   0.2332714   0.0316718
   1.6007631  -1.4591316   0.5083883  -0.4242043  -0.5668498  -1.1433343
   0.1443970  -0.4027565  -0.0791480  -0.5826002  -0.0846259   1.2638355
   0.6043211  -0.1022668  -1.0323149   0.1664841   0.3556284  -0.2162013
   0.5805890  -0.0314118   0.3271681  -1.4945094   0.8243136   0.4240072
   0.2052643   0.2470643  -0.0281461   0.7490923   0.8712546   1.0973040
   0.1853141  -0.8573234   0.8228103  -0.3035734  -0.0975123  -0.3377459
  -0.2254329   0.5901976   0.0452555  -0.9824703   0.1872105   0.4332508
   0.1753639   0.1312955   0.2491514   0.5874388   0.1452619   0.6637403
   0.6102991   0.1032001  -0.3126136   0.0305850   0.0610536   0.2250471
   0.8586594  -0.1969429  -0.0112573   0.0982021   0.1621061  -0.4260309
   0.1276934   0.2614383   0.1530566  -0.1921610  -0.5316255   0.0478021
  -1.1313137   0.7268950  -1.1231999   0.2658026  -0.1159031   0.1837944
   0.0020064  -0.5468135  -0.4045963  -0.5590159  -0.0359560  -0.0450861
  -0.3012676   0.0420713   0.1808775   0.6453629  -0.8610456  -0.1471418
  -1.2534681  -0.3489306  -0.1294800  -0.1473510  -0.1655014   0.1263160
  -0.8874598   0.2933256  -0.4104574   0.1804099  -0.5734244   1.1546705
  -0.0235856   0.1347481   0.2777524   1.0150494  -0.8590806   1.8447312
  -0.8637353  -0.0640155  -1.0043732  -0.0127441   0.1272529  -0.1705956
  -1.0882945  -0.5935762  -0.6032041  -0.3217115   0.1564279   0.8116464
   0.0647916  -0.1296891  -0.2189929  -0.3236089   1.4285599   0.0685782
   0.2485317   0.6836504   0.5471391  -0.0365893   0.1196319   0.4845399
  -0.8516979  -0.1348660   0.4063770   1.3687735   0.6388980  -0.8367330
  -0.2740919   0.0011545   0.0289204  -0.5215044  -1.9745595  -0.5451061
   0.8699785   0.4860550   0.5028130   0.1369576   0.0176350   0.0230004
  -1.0021845  -0.6485539   1.5099063   0.7671792  -0.2859975  -0.9159209
  -0.1037919   0.0783301  -0.1525410   0.5716947   0.1750855  -0.2258161
  -0.7425983  -0.5634964   0.8434309  -0.1702807  -0.2545673  -0.3491578
  -0.1364172   0.4264157   1.0866616   0.0720227   0.2559755   0.1516651
  -0.0362168  -0.1091812   0.1582564   0.2456730   0.9350787   0.7205641
  -0.0205683  -0.4390075   0.3542170   0.1584770  -0.0120777   0.0531803
   0.2796914   0.0497099   1.3142600  -0.4981099   0.2893984  -0.8868198
   0.0688729   0.1874489   0.1989361   0.4893278  -0.4398156   0.5162116
  -1.9472186  -0.3089828   1.1551806  -0.1847445  -0.0766178   0.0160842
  -0.5251947   0.3622587  -0.5591881   0.5702283   0.3737366   0.2784820
   0.1093792   0.0035975   0.1657154   0.3500343   0.2028799   0.7505448
   0.8273794   0.5442079   0.3519930  -0.2925185   0.0251242   0.0120712
   0.7734624  -0.9313760   0.3836059  -0.3727347  -0.6013142   0.2121422
   0.0922144  -0.1144751  -0.0718008   2.4474734  -0.8188676   0.0768113
  -0.6396641  -0.5557053   1.3958852   0.0320889  -0.2376864  -0.4660764
   1.2497674  -0.2896294   1.2949144   0.6949383  -0.5294105  -0.0718105
   0.4045987  -0.0636610   0.2087451  -0.7738040   0.5470158  -0.0452567
  -0.0432269  -2.0781395  -0.0875786  -0.3213335   0.0413421  -0.2968372
  -0.5612960   0.0963339  -0.8122865   0.0901887   1.6268543  -0.6064845
  -0.1451488  -0.1229506  -0.0221915  -1.0465655  -0.6549765  -0.4652723
  -0.9851880   0.2435686  -0.1936738   0.0096782   0.0939077   0.2185622
   1.9561233   0.1020620   0.3525783   0.4090761  -0.4099717   0.5099307
  -0.1578589   0.0419844   0.2134502   0.3314691   1.2115605  -0.0497959
   0.8680244   0.8005327   0.9286652   0.1613303  -0.0606095  -0.0219169
   1.7329027   1.1132129   0.8946286   0.6972338   1.1657539   0.0284610
  -0.0204409  -0.0198069  -0.4903445   0.4153549  -0.6994865  -0.4325294
   0.3612800  -0.6068902  -1.4037475   0.2163870   0.2936172   0.0736773
   0.0533198  -0.6344959  -0.1782223   0.6749004  -0.2284310  -0.4094656
  -0.2946457   0.1191939  -0.3141512  -0.6039071   0.2925118  -1.3338337
  -0.6570083   0.4569835   1.0432712  -0.3696078  -0.0205351  -0.1464901
   1.7333854  -0.6305656   0.0947777   0.8746132  -0.2508209   1.0124587
   0.2041986   0.3856601   0.0588564   0.4816880   0.7519650   1.4294859
   0.0236064  -0.2362684   0.6309506   0.4093658  -0.2969494   0.2572207
   0.6884526   1.1814584  -0.3082253   0.3020654   1.3070832  -0.1427855
   0.0306027  -0.0166350   0.2443146   0.5443640  -0.2569943   1.3207813
  -0.0916238  -0.7712857   0.4761294   0.0616987  -0.0274348  -0.0152094
  -0.8548405   0.1309597   0.5143710   0.2913114   1.0977141  -0.3662181
   0.4570010   0.2922183  -0.0002690   1.0680166  -0.4658893   0.0025762
  -0.0488640   0.4841766  -0.4885601  -0.4063912  -0.3361555  -0.6165026
   0.2109099   1.3337810  -0.2405924  -0.5975717   0.4043737   1.4010050
   0.1580687   0.0188438  -0.0563791  -0.6523180   0.4234860  -0.4787498
  -0.2475061  -1.7052338   0.3860372   0.2063296   0.0574403  -0.2943276
   0.5407469  -2.3737494  -0.5796362  -0.3797958   1.7367728   0.0319222
   0.2089954  -0.1812733  -0.0758288   1.4020970  -0.1883052  -1.1993673
   1.5716159   0.6652865   0.5237973  -0.1192575  -0.1495035  -0.1000548
  -1.6458597  -1.2689229  -0.2908696  -0.1204148  -0.7264341  -1.0308038
   0.1746678  -0.1304342   0.1927510   0.9806043  -0.3355951   0.6988557
   0.5196203   1.2147455   0.5943819   0.2511660  -0.1056500  -0.0186530
   1.1881483  -0.5818767   0.6426654  -1.8353917   0.4558863   0.9784864
  -0.0188644  -0.0191761   0.1923298  -0.8305097  -1.4109707  -0.5588101
  -0.1892946  -0.3585420   0.5259297  -0.2271711  -0.3582168  -0.0788649
   0.0619412   0.4097854   0.7443566   1.2032816  -0.8038867  -1.2068358
  -0.1061080  -0.0500017  -0.1978785  -0.5818382   1.7170283   1.2441296
  -0.2473959   0.9212430   2.0790756   0.0192085  -0.0652617  -0.1128297
   0.7804968  -0.0104691   0.8006145   0.9604111  -0.6714269   0.7509106
  -0.0027092   0.2118657  -0.1387586   0.1388078  -0.7113062  -0.6285357
   0.0900400   0.5456511  -0.5981663  -0.0497961  -0.1323305   0.4049932
  -1.1990669  -1.2311709   0.0976982  -0.8201021  -0.6064776  -0.1320812
   0.0908716   0.3510138  -0.4570972  -0.2856101   0.4355374  -0.0942753
   0.2082329  -0.5798277   0.4607469  -0.0712218  -0.0268826   0.1793676
  -0.4876222   0.3980537  -0.2756528   0.4700059  -0.6734909   0.4798388
  -0.0988625   0.1497823  -0.0284943   0.6912044   1.3982382  -0.3660596
   0.5239710   0.5571024  -0.9618083  -0.1826463   0.1063787  -0.1420513
  -0.1162456   1.0439247   0.8281907   0.2055175   0.7589840  -0.8741909
  -0.0634389   0.0752118   0.0796967   0.6454193  -1.5035200  -0.3229253
   0.3113874   0.1080007  -0.7931224   0.0158795  -0.4424857  -0.0499503
   0.1384171   0.5227735  -0.9250556   1.2767562  -0.6104632  -0.5580031
  -0.0324866   0.0154697  -0.0941094  -1.2464661   1.0311300  -0.5536185
   0.0098843  -1.1769403  -0.1717962  -0.2755488  -0.0669115  -0.3485579
   0.0941353   0.1081316  -0.7838537   0.0910407  -0.9835899   0.1970740
  -0.1614953  -0.0956549  -0.2884378   0.4316567  -0.3137293  -0.6321955
   0.0067404   0.4445684  -1.0150424   0.0386774  -0.0591471  -0.1707977
   0.7898088   0.2038939  -0.0130649  -0.1595779   0.4444455  -0.6831411
  -0.3044122   0.1259692  -0.0276074   0.2099104   0.7781385   0.2125543
  -0.2224753   0.7265404  -0.7202849   0.0815391   0.1171441  -0.0272201
   0.8432437   0.3028026   0.1451514  -0.0383711  -0.5535086   0.7100649
   0.0948040   0.1561460   0.0658517  -0.9967998   0.3240492   0.4081557
   1.4197497   1.5265253   0.4656770  -0.5545669  -0.1156545   0.0999269
   0.3904234  -1.1413958   0.0760153  -0.0692309   0.9806069   1.7455833
  -0.4092746  -0.1045630  -0.1892446   0.1649081   0.8024825  -0.1330919
  -0.4465784   0.1948579   0.2842050  -0.1630212  -0.3141058  -0.0538447
  -0.1209117  -0.7109619  -0.8797370   2.1433878  -0.6736947  -0.6440286
  -0.0392400  -0.1957656   0.0758400   0.9332923  -1.0031564  -0.0789738
   0.4914886  -0.9742470  -0.1676963  -0.0578841  -0.1899183  -0.0895998
  -0.3849058  -0.2326435  -1.1167415  -1.2718540   0.1215823  -0.3648539
  -0.2893850   0.0863529  -0.0906373   0.3552371   0.5687080   0.9956299
  -0.3576273  -0.2470358   0.4312031   0.0430417  -0.2275640   0.0099736
   0.7968371   1.2789784   0.4980436   0.8396498   1.2217195  -0.8333729
  -0.0381029  -0.1240532   0.2526626  -0.7914817  -0.1174558  -0.7454558
   1.4954245   0.1673772   0.4650523   0.2091765   0.0100497  -0.2594501
  -0.0886501  -0.1342796  -0.0334141   0.6580477   0.7256340  -0.5876042
   0.2781590   0.1652918  -0.2257331  -0.4935495   0.9604042  -0.0988612
   0.2819780  -0.5040695   1.0479025   0.0110354   0.3718455   0.2589122
   0.9717583  -1.2353095  -0.8262315   0.8080425  -0.8319876   0.0351255
   0.2403482   0.0335718   0.4195594  -0.2931399   0.1723149   0.6197102
  -1.5259051  -0.3479587   0.4259632  -0.2558228   0.5217090   0.0344644
   0.1592824  -0.2588042  -1.9295008   0.0194078   1.3052434  -1.0403587
  -0.4222505  -0.3917840  -0.3231825  -0.1183634   0.2780248  -1.7195351
   0.5878573   0.0905972   0.3100632   0.3091120  -0.2039976   0.1826960
  -0.2307304   0.0981358  -0.6825788  -1.5663300  -0.2497578   1.3336731
   0.0643526  -0.1433930   0.1135440  -0.2241909  -0.3000032  -0.2860835
  -0.4020715  -0.3104347  -0.0592359   0.2343635   0.1148023   0.0650238
  -0.7326291  -0.9930866   0.0249219   0.2224624   0.4990730  -0.2298197
  -0.1115548  -0.0678261   0.1481547  -0.5650774  -0.4056313   0.7077127
   0.9577657   0.1166134  -1.4145265   0.0865902   0.0214848   0.1893736
   2.0682167  -0.2892329   0.6607683   0.1801627  -0.5401529  -0.5114017
  -0.0356954   0.1466588   0.0583432  -0.0735542   0.6149321   0.7242500
  -0.2508560  -0.5765223   0.4995380  -0.2265230   0.3204266   0.1737930
   0.7159168  -0.2127841  -0.6626190   0.5384044  -1.0171077  -0.0081269
   0.0837148  -0.0886198  -0.2284886   0.2127238   0.1226358  -0.9665087
   1.3588530   1.2206974   0.3120902  -0.1075366   0.0084251   0.1109332
   0.1800353   0.7902084   0.4477406   1.1688051  -0.1847894  -0.5583197
  -0.1323727   0.1070042  -0.0664282   0.7565310  -0.8374750   0.0883567
   0.9508870  -0.9364927   0.1248064   0.0913825   0.0501099  -0.0318882
  -1.0049136   0.9808190  -0.5611574   0.6635405   0.0796935   0.8513199
  -0.2226115  -0.0329698   0.1556254  -0.1903096   0.3678887  -0.0163732
   0.3415940   0.1627974   0.4845801   0.0646077  -0.3043771   0.1386858
  -0.7394060   1.4527603  -1.5258888  -0.8262537   0.6450571   0.0395537
  -0.0695220  -0.2388799  -0.1908048   0.4846345  -0.6807135  -0.5046827
  -1.5438991   0.6803026   0.7108161  -0.2172350   0.2839090   0.1809451
   0.4583807  -0.3876776   0.2038897  -1.6350448  -0.6666006   0.2072758
  -0.0857438  -0.1059416  -0.1721523  -0.6188089  -0.6605580  -0.8343606
   0.5738091   0.0333143  -0.3333374   0.1690263   0.1761462  -0.1821539
   0.6574511   0.8823067   0.4941800   1.0114520   0.7148008   0.4401926
   0.0495092  -0.0642124  -0.0223969  -0.3728065   0.6723256   0.1410543
   0.3772902  -0.4719530  -0.0497926   0.1431901  -0.3302157   0.2608326
  -0.6094121  -1.7556160  -0.0965795  -0.4393511  -0.4017851  -0.1700750
  -0.2329990  -0.0830534  -0.1072773   0.6877224  -0.1205825   1.2616557
   0.5449686   0.8652376   0.0347169  -0.0505133  -0.1395807   0.0630460
  -0.4993871  -0.0884094   1.3479561  -1.0661763   0.0635804  -1.1233698
   0.0245861   0.3091930  -0.0328524  -0.4830720  -0.1163367  -1.8321695
  -0.3576044  -0.5463221  -0.0605764   0.1892732   0.2064864   0.0452354
  -1.4894301   0.8939688   0.2022445   0.6563072   0.7513435  -0.8897550
  -0.2726642   0.4689146   0.0975958  -0.6810275  -0.0318531   0.5280538
  -0.3288310  -0.3105141  -1.1021357   0.0137995   0.1678896  -0.1552057
   1.3608774   0.6293054  -0.3308408   0.7227567  -0.7320307  -0.3195338
   0.1024568   0.2885219   0.0624538  -0.3458863  -0.0461319  -0.8764920
  -0.3516215  -0.3083012  -0.0831086  -0.1133528   0.0338149  -0.2270704
   0.7088369  -0.4235742  -0.6859009   0.4785616   1.0137336  -0.8732999
  -0.1566643  -0.0729793   0.0746639  -0.1984683   1.1431972   0.0296369
   0.8884219  -0.9505307   0.2991321   0.0560923  -0.3352107  -0.0078216
  -0.2742304   0.9348615  -2.0907259  -0.5627334   0.4566925  -0.1466006
  -0.0146726   0.0944724  -0.2289003  -1.6910286  -0.5839088  -0.7156026
  -0.1456024   0.3956733  -0.0535810   0.0860572   0.0573992   0.2566279
  -0.7037263  -1.7175806   0.0261264   0.4127323   0.8309566  -0.4711110
  -0.3673727   0.0842229   0.0651278   0.2255630  -1.6754074   0.3755871
   0.5444369   0.2642290   1.1206334  -0.0018651  -0.0324524   0.0281346
   0.1516173   0.6882309  -0.4001303   0.9106253  -0.8311216  -0.3185227
   0.0304461  -0.2122569  -0.0079465  -2.1800228  -1.3426825   0.5404378
   2.0248715   0.2827836  -0.0798493  -0.0350860  -0.0046369   0.0047700
  -1.1878046  -0.1968346  -0.7464546   0.2431960  -0.7676606  -1.0344872
  -0.1689946  -0.2668159   0.1588565   0.6506745  -0.4787608  -0.7823241
   0.3745512   0.7342620  -0.8111188   0.2288750  -0.1097351   0.0408941
  -0.7472685   0.2547584   0.0439949  -0.5395252   0.0213155  -1.5158513
   0.2059489   0.2861148   0.0308370  -1.4602663  -0.9050443  -1.2894207
  -0.2443779  -0.2716455  -0.6461566   0.0825631   0.0634262   0.0465483
  -0.1582277   0.2637049   0.0714538   1.2510180  -0.9723786  -0.5288157
  -0.1933843  -0.0920850   0.0011140   0.9082792  -0.0361788   0.0728256
  -0.5879938  -0.4619110  -0.5819365  -0.0980527  -0.4243632   0.2432776
  -0.0558331  -0.2771236   0.9383353   1.2043504   1.8987429   0.9090840
  -0.1071356   0.1068446   0.1057756  -0.3905336  -1.3164811   0.6336550
  -0.9203527   0.2162796   0.0332820   0.1834350   0.1381980  -0.3279119
  -0.8351999   0.1851031  -0.6163634  -1.0029505   0.6302941   1.1900917
  -0.1337737   0.0690819   0.1151301   1.0513088  -1.0232434  -0.9965862
  -0.1713984  -0.1305713  -1.2026710   0.1889468  -0.0904151   0.0300290
   0.6008350  -0.0075723  -0.7588480   0.6319619  -1.5505438  -0.3333033
   0.4274100   0.0169583   0.0362473   0.6361780   0.3689154   0.5295937
   0.9016713  -1.5357317  -0.7990623  -0.2539898   0.1379534  -0.1506197
  -0.7770432  -0.9328421  -1.4110013   0.6480723   0.5307659  -0.4143899
  -0.3524712   0.1176912   0.1938855  -0.2071281   0.5704485   1.1498212
  -1.1009294  -0.4276985   1.4378833   0.0528391  -0.0527548  -0.2554081
  -2.0113779  -0.0751240  -0.1974652   0.4354143  -0.8106834   0.0800754
  -0.0318716   0.1237010  -0.1294741   0.1540950   0.9493668  -1.6018307
  -1.0924635   0.0345982   0.8074380   0.0928069   0.1262167  -0.2958478
  -0.6260477   1.0486130   0.3909045  -0.2257707  -0.1641657   0.7043828
  -0.0790882  -0.2383551  -0.2455082  -0.0231797   0.2368167   0.1877903
   0.5440865  -0.9380967  -0.1932287  -0.1496884  -0.1462484   0.0926424
  -0.0816207  -1.2635367   1.6223761  -0.3602358  -0.2930238   0.5719836
  -0.2870386   0.0021256  -0.0628783  -0.0673138  -1.1115013  -0.0811719
  -0.2509920   0.1756489  -0.5445829   0.3416323  -0.1963912  -0.1469092
   0.1910657   0.9697702  -0.0774088  -0.8057699   0.2653167   1.2395032
  -0.0626515  -0.0783723   0.3305350   0.8089149  -0.6823098   1.1298542
   0.4721101   1.4191924  -0.1217626  -0.2008492   0.0094990   0.1410062
   1.5336200  -1.4150512  -0.0376335  -0.0751538  -0.2277781   1.0658279
  -0.1322897   0.0352959   0.0969341   1.0105699   1.0165301  -1.8653225
   1.4601004   0.7875870  -0.4902216   0.1411307  -0.0851556  -0.1313653
   0.0568140  -0.6571493  -0.2596064  -0.1345741  -0.5072068  -0.6974785
   0.1645859  -0.0702209   0.0361199   0.2798320   0.4147834   0.7444625
   0.0846605   0.9590452   0.0539862  -0.0193079   0.2790784  -0.3467906
   0.3201100   0.9254909   0.4134073  -0.7758569  -0.5079036  -0.3995859
   0.3826538   0.0510763  -0.2049011   0.0230347   0.5358193  -0.2683402
  -0.3421038  -0.5395288  -0.3406413   0.0496025   0.2847453   0.3141601
  -1.6378442  -0.2150344  -0.5428578   1.2336876  -0.3114287   1.3458434
   0.1274335  -0.1131332  -0.0462660   0.1530706  -1.1950904  -0.0209942
   1.7115269   1.1425724  -0.0557031  -0.2300402   0.0347751   0.1974122
  -0.3247159   0.2714184  -1.0943281   0.6308885  -0.7665920   1.2412290
  -0.1403320   0.0758718   0.0763599   0.5777858  -0.6087465  -0.2258614
   0.4816271   0.8900094  -0.9331844  -0.2004713   0.1083353  -0.0769177
  -0.4033471  -0.2368150  -1.0749604   0.4968529   0.9280664   0.1473814
  -0.0026902  -0.0308936  -0.1013729  -0.1403617   0.6962790   0.4951713
  -1.2391719  -0.7716246  -1.4676173   0.1242944   0.2083600  -0.2138981
  -0.3599501  -0.0049288   0.4062711   0.3438685  -0.9444689   1.2552168
   0.0767938   0.1057358  -0.0479474   1.2572220  -0.9097841  -0.7861129
   0.8782328  -0.3826761   0.6847941  -0.3218409   0.1944645   0.1169864
  -0.9764746  -0.2112953  -0.5594014  -0.6645988  -0.0489964  -1.7650706
   0.0100225   0.0961668  -0.2984797   0.4724466   0.6107759  -0.2774637
  -0.0364738  -0.5308392   0.8293952   0.0451108   0.2719089   0.0420240
  -0.5444896   1.1563247  -0.5616003  -0.6534771  -0.0498749  -1.1645606
   0.1534090   0.1727742   0.1274769  -0.6209240  -0.4008291   0.4875440
  -0.0577300   0.2272406  -1.2395559   0.0069668   0.3716203   0.0874168
  -0.7701987   0.8233971  -0.7540021   0.2303999   0.3672350  -0.0226034
  -0.0309221   0.0285637   0.0288113   0.1568611  -0.1538054  -0.3752606
  -0.4979255  -0.5991087  -1.8632843  -0.0449691  -0.2831946   0.0290928
   1.3288025   1.1472949   0.5754486  -0.6368423   0.8558875  -0.9714410
  -0.0298385   0.0391257  -0.2473794  -0.5497080  -0.3370309  -0.4633884
   0.0630094  -0.7744199   0.5830751  -0.1296727  -0.5128264  -0.3277508
   0.8881107   0.1587798   0.2771290   0.2922094   0.3055385   0.7047747
  -0.0595777   0.2434242  -0.0241682  -0.2105514  -1.4685890   0.0731100
   1.7520049  -2.9009038  -0.1775939   0.2273312  -0.1753349  -0.0763929
  -0.1001424   0.4101513  -0.5529056   0.0355515  -1.0978078  -1.2716318
  -0.0527755  -0.0050407   0.3721807  -0.3178994  -1.1264466   1.1973254
   1.7543205   1.4274783  -0.5476974   0.0654530  -0.1700164  -0.0590497
   1.0452708  -0.4363372  -0.4747010  -0.5381122   1.0124367  -0.8750955
  -0.3952926   0.0629955  -0.3178494   1.1128600  -2.4020242   0.4856093
   1.2836600   0.9990418  -0.0535450   0.1463146   0.0545373  -0.4762715
   0.8920030  -0.9072441   0.9937011  -0.2871450  -0.3806621  -0.7777370
   0.0423667   0.3274048  -0.0925200   1.8334913  -1.0888629   0.1174914
  -0.7868735   0.0917232  -1.0784860   0.0292897   0.2380373  -0.3437977
   0.4266108  -0.2145613   0.6730322  -0.7957132   0.7518964  -0.8058911
  -0.1240780  -0.0516633   0.2198090   0.5769684   0.9610746  -0.1911352
  -0.1959898   1.4818660   0.0063278  -0.1506394   0.1438834  -0.1757133
  -0.5987836   0.7475550   0.9430173  -0.7948103  -2.2400566   0.1174485
  -0.2009390   0.0782057   0.1509703  -0.9849373  -0.0695586   0.8438101
  -1.4421379  -0.6553224   1.2774260  -0.2959552   0.1203353  -0.0457917
  -0.2107159  -0.8600929   1.2634259   0.5376395   1.2553669  -0.5847315
   0.1842238   0.1613650   0.0359524  -0.2618216  -0.2974814  -0.3464080
   0.0301985   0.2038661   0.8741997  -0.0384215   0.0456358  -0.3466645
  -0.0956431  -0.4915700  -1.4199547  -1.3856083  -0.1157439  -0.8800388
  -0.1810168  -0.2987150  -0.1183370   0.8414929  -0.8685170  -0.7930840
   0.5305424   0.5178076   0.4503149  -0.0934126   0.0110609  -0.0831247
  -0.7985909  -0.2322581  -1.1347458  -0.8425577   0.2231957  -0.9040625
  -0.2887196  -0.1738816  -0.2482944   0.8572581  -0.7479808   0.7079034
   0.2449437  -0.1189483  -0.1587444   0.0142759   0.0714853  -0.1137469
   1.1448256  -1.2534163  -1.2458397  -0.2137092  -0.5282777   0.1224440
   0.0503857  -0.7410012  -0.2240990   0.8666686   1.2129152   0.1607608
  -0.6047749  -1.0468517  -0.8755474   0.2045217  -0.3154181  -0.0145392
   0.3680866   0.8145567  -0.0966730   0.6406020   0.0200583  -0.4264432
  -0.0520551  -0.2270448  -0.0918955   1.3710509  -0.6625001  -0.9064386
   0.1161473  -1.6536708   0.5850840   0.1690355   0.1892831  -0.0537998
   0.6437735  -0.7729383   0.4684021   0.4052517  -0.5394741   0.8468153
  -0.0325417   0.2038640  -0.0991512  -0.1572036   0.6483719  -0.5311813
  -0.7136212  -0.3319273  -0.4126552   0.2467742   0.2181169  -0.1132186
   0.1091679  -1.5398148   0.2706339   0.2050208  -0.6620562  -1.1021209
   0.0380453   0.0592941  -0.1264143   0.3384638  -0.6015774  -0.6034576
  -0.4921201   0.7335509   0.1962051   0.2375560   0.1779741  -0.0210621
  -0.3262299   0.2157634   0.2232036  -1.0378942   1.2248296   0.5648182
  -0.0989289  -0.2027464   0.1761140  -0.6775420   1.2738656   0.3181550
  -0.3071544   0.1599365  -0.8693741   0.1031697   0.2014597   0.0967781
   0.1034540   0.3659070   0.0221284  -0.2394100  -0.0078470   0.6156265
  -0.0862563   0.1107236  -0.0770772   0.6240295   0.5371687   0.7942489
  -1.3819278  -0.0271987   1.2534931  -0.3482482   0.0399954   0.3277483
  -1.2628887  -0.0511884  -1.4186260   0.8415384  -1.0612402  -0.0719135
  -0.1315239   0.0428302   0.0549643   1.8826048  -0.2707875   0.1879454
  -1.7343876  -0.5539865   0.1683949   0.2716943  -0.0370911  -0.0035566
  -1.7010196  -0.8136267   0.3434037   1.2096967   1.6195959   0.4258658
   0.2847032   0.2530059  -0.4636046   0.5343216   0.6022374  -0.1085967
   0.9177634  -0.8787829  -0.1701134  -0.2603523  -0.0052001   0.1898274
  -0.0406656  -0.4904512  -0.0557939  -1.1771546   1.7195035   1.0244301
  -0.0532103   0.1566940   0.1306274   0.7906165   0.5168689   0.8908318
   0.2853463  -1.1769775  -1.0191039   0.0965159  -0.2883854   0.2621069
   0.5538067  -0.3488792   0.9249153  -0.3898998  -0.1906450   0.5450331
  -0.2643658   0.1141993  -0.0257413  -0.8485212   0.9932594   1.0003218
   1.3034833   0.8081215  -0.3010528   0.0714801   0.1565494   0.3179532
  -0.3390915   0.0248043   1.3417432   1.0216745   0.8723926   0.1242349
  -0.1585001   0.1064843   0.1486255   0.2155768  -0.0722450  -1.0290136
  -0.3563996  -0.1707466   0.1374008  -0.1856658  -0.2515964   0.0468538
   0.2719786   1.6101700   0.3788987  -0.0381996   0.2526482   0.3942089
   0.2049082   0.0823254   0.2788089   1.0484922  -0.2110158   0.2291173
  -1.6725637  -0.3201868   0.5228492  -0.2265641   0.2252516  -0.1912376
   0.1358145  -1.1838226  -1.1309978  -1.3621447  -0.6721469   0.7177363
  -0.1600680  -0.1572676  -0.0272408   0.1741713  -0.5238590  -0.1716833
   1.5834815   1.7758956   0.4876371   0.0119411   0.1811325   0.0947313
   0.3719691   0.2702839   1.7517031  -0.7902050   0.6305934  -0.8759674
  -0.0122204  -0.2456141  -0.1799513   0.6989172   0.1268919  -1.1656234
   0.4987110  -1.1383158  -0.2254817   0.0432477  -0.0205361  -0.3863314
   0.0164929   0.5644928   0.8126078  -0.7390292  -0.4473489   0.6694502
   0.0671923  -0.4120089   0.1059095  -0.7086131  -1.7451217   0.1132892
  -0.6989683  -0.1344176  -1.3650142   0.1011385  -0.1641374  -0.2647870
  -1.6160392  -0.0605174  -0.1489551  -0.3599373  -0.0830070   0.2970645
  -0.2743274   0.4032293  -0.1712625   0.0961975  -1.7192809   1.5810561
  -0.0679832  -0.7515197  -1.0087954   0.1749268  -0.3601677  -0.0973740
   0.8954446   0.7348740  -0.3060315   0.5088086   0.9792937   0.8171846
  -0.3233806   0.1462981   0.2108809   0.2394829   0.2358437  -0.8170462
  -1.5499769   0.5802775   1.0340727  -0.1690055  -0.0680147  -0.1092934
   1.4437552   0.0785659  -0.3834023  -0.2939208  -1.0158272  -0.2034612
  -0.4353424  -0.1805012  -0.4356973  -0.4858612   1.1263898  -0.0129174
  -0.0808231   0.3769355   0.4015512  -0.3244138  -0.0273179   0.1039436
   1.0774149   0.4441750   0.9425222  -1.8071329  -0.5480901   0.3814037
   0.0934885   0.3334276   0.0545518  -0.5921253   0.7182645  -0.5139438
  -1.0275679  -1.1891924  -0.0300547  -0.2161348   0.2737728  -0.2213617
  -0.2225261   1.4520142   0.3729856  -0.9545331   0.5434460  -1.2612419
   0.3371076   0.3441674   0.1112747   0.5422285  -0.5892089   0.2590645
   0.4480291  -0.6274274  -1.0261988   0.0776031  -0.3485334   0.2998754
   1.1701564  -1.2857191  -0.1180301   1.2547061   0.1146570  -0.0879241
  -0.0972391  -0.3140544  -0.0109502   0.2394908   0.5052026   0.7435626
   0.2591576  -0.6422857  -0.2051726   0.3107838   0.4221677   0.1450573
   0.9617183  -0.7605930  -0.6207422   0.1571453   0.2147260   0.5294620
  -0.1757208  -0.1432083   0.2893166  -0.5647120  -0.8626576  -0.1112242
  -1.0149967   0.9737178  -1.1292320   0.1433168   0.0795977   0.0135703
   0.3435578  -0.1579556  -1.1114801  -0.0465864  -0.2981213  -0.4930022
  -0.3755122  -0.1512553  -0.1333759   0.7515582  -0.3466792  -1.0922429
   0.4993969  -1.0037773  -0.4575596  -0.2765887  -0.2905310  -0.1705651
   0.2400146   0.1796482   0.5788918   0.4810270   0.1825442  -0.7772743
   0.3304567  -0.2439403   0.0892920   0.0144453   0.2476856  -1.5043437
  -1.4124508  -0.7123819   1.3165214   0.0225728   0.3878386   0.0879959
   0.5880234  -1.0135702  -0.7476433   0.9234658   0.2465383   1.4745835
   0.2153674  -0.4504066  -0.4526421  -0.2710325  -0.4710448   0.8840787
   0.2917692  -0.1816808  -0.4945031   0.3783732  -0.0439618   0.1053824
  -0.0486967   0.1068328  -0.6205080   0.8812758   0.7179515  -0.4592799
   0.0500472   0.1903982   0.0366039   0.5665709   0.5495001  -0.9387326
   0.3760489   0.2581466  -0.1949597  -0.0751228  -0.0758416  -0.2392945
   0.3989756   0.2403034   0.3253741  -0.7502193   0.8062034  -1.5235094
  -0.0667630  -0.4687817   0.0386621   0.6527538  -0.2433719  -0.7685738
   0.6429942   1.1615568  -0.5978522   0.4727005   0.0165099   0.2442203
  -0.7671759   0.2862836  -0.1441053  -0.1163185  -0.8069838   0.5762038
   0.3193802   0.0379814  -0.1621072   0.6770582  -0.1858443   0.2771382
   0.3285312   1.1551437   0.2113038   0.0186528   0.1154667  -0.0167969
   1.2313414   1.3042079   0.4419879  -0.0911568  -0.1582269   0.4484786
   0.2208552   0.2884553   0.1485813   0.8834835   1.0568385   1.7520203
  -0.3146030   0.6453949   0.2699767   0.0923685  -0.0189684   0.0194188
   0.0544247   0.4004791  -0.4613803   0.2391197  -0.7168610   0.2899321
   0.1973641   0.1288602  -0.0820741   1.0616599   0.3561534  -0.3307697
  -0.3891156  -1.0154956  -0.2205235  -0.0638684  -0.3672111   0.2207278
   0.1924296  -0.5785155   0.1810717   0.5235693  -0.8794903  -0.1462920
   0.3019307   0.2380810  -0.0808821  -0.4936063  -1.3307560   1.6428610
  -0.4256560  -0.1987066   1.1825297   0.1679339  -0.1470947   0.0240446
  -0.5176435  -0.1473623  -0.3607674   0.0025095   0.0476804  -0.3747124
  -0.1239038  -0.2146478   0.0791538   0.5138386  -0.4469347  -1.1946831
   0.7835439   0.9791471  -0.4676209  -0.2590978  -0.2902932  -0.0757841
   0.8058391  -0.6922343  -0.1637451   0.3377539  -1.5981538   0.9120526
  -0.1307649   0.0009082   0.0715449  -0.8864294   0.5925692   0.3898074
   0.4127727   0.4263999  -0.2561689   0.3363882  -0.0551323   0.2600923
  -0.8022581  -0.5300211  -0.6733374  -1.6053923  -0.2138656   0.0559048
   0.3092875  -0.0545588   0.2250413   0.1640726  -0.9236457   1.0221219
   0.4287347  -0.2493593   1.0602066   0.4381192   0.1423989   0.3164269
   0.3933233   0.3367840   0.9841861  -0.8468103   1.1068182  -0.8836932
  -0.2462405  -0.1800258   0.1199588  -0.2399929  -1.1638969   0.3734477
  -0.0875458  -0.0263272   0.6769618  -0.0811474   0.4561707  -0.2183050
  -2.1853508  -0.0296667   0.8460660  -1.0330177   0.9154530  -1.7605229
  -0.0847592  -0.0484419  -0.3288427   0.5221088  -0.5910797  -0.2900535
   0.2429131   0.6265441   0.4721745  -0.2328913   0.0793800   0.1071113
   0.3924034   0.2931587   0.5387842  -1.5734693  -1.4054658  -1.4276647
   0.0262080   0.0774404  -0.1253161  -1.2504595  -0.9309629   0.8711203
  -0.5400415  -0.7486545  -1.2378062   0.1310365  -0.1047929  -0.2189203
   0.7379366  -0.0472614   0.8854038   1.2609090   0.8147383  -0.8666662
  -0.3109719   0.2390855  -0.0155614   0.8776467   0.3237809  -0.1708998
   0.4380899   0.2730792   0.0818805  -0.1011888   0.0344828  -0.3353170
   0.3173311   0.0022485  -0.2797737  -0.0179307  -0.8254228  -0.3414134
  -0.2165846  -0.1385748  -0.0927737  -0.6196668  -0.3276199  -0.6368054
  -1.4763893   2.1122271  -0.3967544  -0.0131959   0.0066578  -0.0383837
   0.8738938   0.8380391   0.1422480  -1.6890607  -0.7692387  -0.9513560
  -0.1999776  -0.0584565  -0.0454270   0.6529186   0.6527835  -0.0135715
   0.3961161   0.6087719  -0.5674723  -0.0422210   0.1261692  -0.0080100
  -1.1401847   0.3934339   0.0636583   0.2530812   0.6476127  -1.0900751
  -0.2058710   0.0764514  -0.2796733   0.0315182   0.0801863   0.2823518
   0.0792061  -0.9774103  -0.5963388  -0.1187124   0.2289350   0.1476061
   0.0581021  -1.8526680   0.3580013  -0.9930988  -0.1547452   0.9401523
   0.3713062   0.1396452   0.0101178  -0.5281202  -1.2925151   2.2983453
   1.5388650   0.2066423  -0.1027232   0.2942689   0.1375292  -0.0882406
   0.8556094  -1.8542677  -0.5471102  -0.9889295  -0.1083432   0.3821730
   0.2629137  -0.0878366  -0.1432834  -0.8670373  -0.6057279   0.9850152
   1.2952871   0.3761226  -1.6658408   0.1601604  -0.2515899   0.2794712
  -1.1203638  -0.4567516   1.0391692   0.7964657   0.5923019   0.1554991
   0.0566640   0.1207404  -0.2922726   0.4006175  -0.2774877   0.4710825
   1.1952923   0.3052642  -0.8824476   0.1909613   0.0126065   0.0418724
   0.5689098  -1.2177131  -0.4729945  -0.0477677   1.5048900   1.4011077
   0.2815621   0.2517462   0.0600969  -0.0727998   0.2777470  -0.2974885
   0.1413993  -1.0469897   0.0169150   0.0306316   0.2438041  -0.1712356
  -1.3501589  -0.4092771  -0.3753191  -0.1852583  -0.3195813  -0.2721494
   0.2487647   0.0440873  -0.0645760   0.5054035  -0.6504557  -0.9871279
   1.2174227   0.1353110  -1.1535341   0.1032242  -0.3223205   0.3953153
  -1.9603741  -0.4051268  -0.5362628   0.4771538   0.0181526  -0.3033455
  -0.0856556  -0.2174511   0.0994572   1.6015778  -0.1246637   0.5233084
  -0.6245604   0.9609583   0.7129732  -0.0989044   0.0263359   0.0927320
  -0.3978792   0.7871641  -0.3245379   0.3065016  -0.8929720   0.9463067
   0.0038287  -0.1793432  -0.0061953   0.4130410   1.1958864  -0.2132408
  -1.0163468  -0.4095209  -0.3006344   0.0007864   0.2652185  -0.1242716
   1.7275255  -0.0842292   0.1269213  -0.2148640  -0.5693771  -0.1855816
   0.2812870  -0.0699013   0.3000907  -1.2035799   0.4403591   0.9050090
  -0.1285176  -0.9956703   0.6559205  -0.0506053  -0.3231994  -0.3073029
  -0.9423195  -0.4874273   0.9949669   0.6121032  -0.1209370   1.4333674
   0.3340157   0.2254480  -0.1132317   0.0884580  -0.3492470  -0.5628780
   0.7846722   0.3728651   0.3592837   0.0647955   0.0983159  -0.1695722
   0.8004740   0.9184451   0.1437704   0.1150708  -1.4256398   0.1266908
   0.2329560  -0.0387412   0.0136326  -0.1425635   0.7079925   1.4532090
  -1.0114356  -0.0833215  -1.0331222   0.3591718  -0.1230092  -0.0194915
  -0.0147158   0.6091241  -0.3589190  -0.5602607   1.5057096   0.6431607
  -0.0205018   0.1454527   0.1035471   1.7927625  -0.3990174  -0.2859361
   0.5016174   0.0495300  -0.3305116  -0.0742574   0.5364620   0.1131734
  -0.6886494   0.6660662   1.1073823  -0.6709438   0.1630027  -1.0345517
  -0.1120400   0.0685972   0.1807333   0.4061484  -0.2464625   0.4363876
  -0.0196388  -0.5683091  -0.6415721  -0.0110298  -0.1409664  -0.0891308
   0.2773127  -0.3267474   1.2405573  -0.6864807  -0.5355975   0.4414683
   0.0829590   0.2538413   0.1834369   1.0558254   0.2615608   0.0751645
   1.2324595  -0.0641357   0.9713385   0.0115261  -0.0111913   0.3557133
   0.6296418   0.1468255   0.7623526   1.6029654  -0.0646968  -0.6865040
  -0.1191743   0.0230401  -0.2227519   0.3176047  -0.1195583   0.4566884
   0.4345652  -0.6546321  -0.2268532   0.0786627  -0.2082143   0.3018960
  -0.4071924   0.3555983  -0.2607520   0.4028475  -0.2561818  -0.4630277
   0.0626926   0.1365258   0.0919862  -0.5492565  -0.2984933   0.5295454
  -0.0813904  -0.1603169   1.3651792   0.3642231   0.0570160   0.1145999
  -0.6166091  -0.0793810  -0.4453233   0.5298834  -0.3584922  -0.3866136
   0.0907774   0.2413434   0.0400448  -0.8307073   1.2403809  -0.3051876
   0.7398424  -0.8574144  -1.4787700  -0.0775315   0.0304179   0.0130114
  -0.4572757  -0.0725669   0.4051399  -1.0253975  -0.3249874   0.5198650
   0.1083915  -0.3016217   0.0943918   0.2786488  -0.3530658  -1.2175043
  -0.4512332  -0.1299473   1.4151383   0.1974412  -0.2606467   0.0998096
  -0.3851896   0.3482951  -0.7319967  -0.5060384  -0.6200188   0.1182833
  -0.0822489  -0.2140384   0.1450170   0.2023677   0.9620595  -0.2491189
   0.0137532   0.2567356  -0.8030372  -0.1836126  -0.0996722  -0.1861664
   0.1365811  -0.6314990  -1.1068059  -0.2940302  -1.1900839   0.7438868
  -0.2190153   0.2538486  -0.4167211  -0.6406733   0.1386903  -0.4704609
  -0.1449398   0.8658621   0.9155068   0.1422748  -0.1305107   0.0049001
  -0.9048518   0.3685710   0.1377009  -1.6582862   1.1388899   0.1769302
   0.0685840   0.1931661   0.3617772  -0.7751499   0.2169531  -0.9010816
   0.0753286   1.5796520  -1.1681864  -0.0735071  -0.1249598   0.0437076
   0.0624392  -1.2749303  -0.0406939  -1.1990262  -0.5211539   0.0707529
   0.2067786  -0.1546251   0.3477017   1.4385281   0.1383727  -0.3172668
  -0.1097346  -1.2278562  -1.2778034  -0.0377691  -0.1173560  -0.0512910
  -0.9618141  -1.3517060  -0.9192676   1.0315933   0.3949454  -0.2894701
   0.1011753   0.1025562   0.3011891   0.2281530   0.1518926   0.6600015
  -0.8128601  -1.0632782  -1.0315670  -0.1186159   0.0169396   0.2569988
  -0.9019395  -1.1760092   1.8896810  -0.3506918   0.1973419   0.0471289
  -0.0588258  -0.1282340   0.0174547   0.5677617  -1.6079266  -0.5743214
  -0.2621531   1.3284737  -0.6690054  -0.1526186  -0.0598166   0.1519404
   0.8622288  -0.6707810   0.5911943  -1.2503359  -0.8231534   0.0627477
  -0.0974806  -0.1215970  -0.2444751   0.8081712  -0.6600725   0.1298848
  -0.2085613   0.3130913  -1.3204231  -0.4068391   0.2011188  -0.2487444
  -0.6610217  -0.2794688   0.6188397   1.7377340   1.0227044   0.4187069
   0.1065036   0.3132331   0.0067641   0.1008398   0.4284059   0.1389313
  -1.0165431   1.0302561   1.0633775  -0.0690089   0.3337261   0.1988514
   0.3770769   1.2862475  -0.9337357  -0.0559478  -1.3407931   0.4044571
   0.0122831   0.1539816  -0.0213697  -0.5115281   0.3423581   1.4412533
   0.0868081   0.0831731  -0.7583944   0.0047912  -0.1291740  -0.0615626
   0.9419015   0.3328350  -0.7864431  -1.5944350  -1.9384276  -0.1722227
   0.0448153   0.1355168   0.0885352  -0.4694949  -0.5957504   0.3496475
  -0.0092066   0.1071861  -0.2387851  -0.0281501   0.0414890   0.0476603
  -0.4856499   0.6353657   0.8719883   0.9297526  -0.3162940  -0.9262559
  -0.2230411  -0.3147116   0.0784273   0.1604100   0.1442168   1.1588769
   1.1046033   0.3267932  -0.6736260  -0.1210718   0.2124106   0.0286423
   0.5643119   1.7170365   0.2872959   0.3742754  -1.2701991  -0.2250044
  -0.0529044   0.1842338   0.0598138   1.1006177   0.2405102   0.5429784
  -0.3698857   0.6342494   0.2582565  -0.0359625  -0.1022002   0.1225767
  -0.0482225  -0.6159951   0.2430589   0.2473504   0.0067814  -0.7537235
   0.0033080  -0.0235732  -0.0482094   0.8120213  -0.0981233   0.4216222
  -1.5333406  -0.0682253  -0.5249576   0.2176527   0.3833074  -0.0958421
   1.2499020   0.3986707   0.6836342   0.3865450  -0.3839507   0.4098659
   0.3941314   0.0846542  -0.1166283   1.1283133   0.6115822  -0.1245009
  -1.1497444   0.3424285   0.2465508  -0.1877256  -0.2001741   0.0487684
   2.2070655   1.6927980  -0.5086201   0.3349470  -0.7721764  -1.1318403
   0.1587772   0.0093197  -0.1340845  -1.2943571   0.9980588  -0.2803482
  -0.0162788  -0.1777681  -0.3008970   0.2982206   0.1901120  -0.2084546
   0.8513123  -0.2147636   0.3770900  -0.1236991  -0.7062843  -1.0958873
  -0.0377322   0.2751067  -0.1722357   0.5944101   0.4164098   0.1289314
  -0.1926964   1.1608924  -0.5905783   0.0445697  -0.0823884  -0.1945084
   0.5492752  -0.0643645  -0.9435186  -0.2483554  -1.4313452   0.1331029
  -0.1349635   0.2493082  -0.1714064  -0.4521405  -2.2888092  -0.6311067
   0.8642318  -1.0618076  -0.7452532  -0.1726272   0.0989047  -0.0370918
  -0.9782925  -0.6668264  -0.7668086   0.0075203   0.4403199   0.9569280
  -0.1495044   0.1992638  -0.0712740  -0.1556676   1.0267025   0.0771632
  -1.4547618  -0.3128760   0.0746086   0.0288347  -0.3047212  -0.1144760
   0.6369011   0.0749941   0.2606633  -0.4357336  -0.0184845   0.1037971
  -0.0731793   0.0954740  -0.0606521   0.1898450   0.2266080  -1.0201116
  -0.0675068   0.4441440   0.3890798  -0.4124047   0.0862531  -0.1087694
  -0.0623045  -1.3889170  -0.4045598   0.3566095   0.3880866  -0.8022807
   0.1498514  -0.1414562   0.2148905  -0.0389518  -0.9288513   0.9162317
   1.7231401  -0.7571869   1.1934383  -0.2874897  -0.2792380  -0.3175261
   0.1555907  -0.0828590  -0.4289403   0.5273692   0.1387045  -0.4052975
  -0.1488507   0.1647788  -0.0342282  -1.8487499   0.9569491   0.3699863
   0.8121016  -0.3136135  -0.3733639  -0.0225206  -0.1605707  -0.1696812
  -0.3196414  -0.8331709  -0.9426607   0.0654302  -0.3235619   0.5644406
  -0.0488824  -0.0508037  -0.2544712   0.0797710  -0.5678838   0.5970435
   0.0262934   0.6522880  -0.5445506  -0.0190676  -0.0575833  -0.0501327
  -1.4701953  -0.0035512  -1.5008683   0.3848051  -0.1622933  -1.4643817
   0.2122989   0.1268449  -0.1360134  -0.7623218  -0.9784510  -0.4354912
   0.9084374  -0.5721213   0.0551396   0.1930357  -0.2330479   0.1307700
  -0.3425288  -0.1177862  -0.2136648   0.6876700   0.6953999  -2.0502669
  -0.1332495  -0.2017175   0.0555108   0.1065736   1.0982645   0.4093766
   2.0398711  -0.4042551  -0.4398437  -0.0109756   0.0961307   0.1042961
  -1.3420804   0.0361204   1.4107952   0.7819705   0.1768279   0.2559191
  -0.0772744  -0.0514896   0.4612336   0.8623460  -0.2388510  -0.3632457
   0.0572014  -1.3875679  -0.3598324   0.2940918   0.0481902   0.2166825
   0.5220296  -0.4040189  -0.0916034  -0.5394369   0.2531116  -0.8244471
   0.1046653   0.0504732  -0.1064991   0.6186071  -1.6392701   0.5190688
   0.9201355  -0.7358899  -1.4398544  -0.2332984  -0.1627787  -0.3377509
   0.1983290   0.7526164   0.1054376   0.7254726  -2.0860825  -0.2568285
  -0.2966528   0.3700715   0.0283546   0.1769368   0.1880807  -0.7054002
  -0.7693580   1.0238770  -0.0318072   0.0177479   0.0433670  -0.0806851
  -0.7924038  -1.0711491   0.7850802  -0.4765959  -0.5241276  -0.3720176
  -0.3790117  -0.2165689   0.1101363  -0.4328298   0.4379566  -0.8509040
   0.0391477   0.2487801   1.2723212  -0.0461613  -0.1150329   0.0260097
  -0.5386311  -0.9312917  -0.0443697  -0.6373519  -0.7589115  -0.3353984
  -0.4399987   0.0476437   0.0410468   0.1926875  -1.1735983   2.1511128
   0.2506286  -0.8839178  -0.3330057   0.2472404   0.1473964   0.1431536
   0.0393875  -1.6317950   0.4245373   0.4382073  -1.3967980   0.0771511
  -0.0504259  -0.2039374  -0.3134752  -0.5859981   0.2690060   0.7668750
  -0.1965814  -0.2190200   0.2772887  -0.1508032   0.1986850  -0.0447523
   0.4069830  -0.2123125  -1.0588330   2.0260866  -0.8925065  -0.9449496
  -0.0716984  -0.2264282  -0.1934480   1.1089140   0.5460371   1.4398167
   1.1640093  -0.2545289   0.0539174   0.2986997   0.0237037   0.0096815
   0.9458062  -1.2316247  -0.5165339   0.4550558  -0.2893628  -0.0147095
   0.0044219   0.1838410  -0.2306052  -0.8049591  -0.2813310  -0.4431572
  -2.6483235  -1.6059210   0.9835399   0.0216092  -0.0955198   0.0746695
   0.3691244  -0.3387165   0.3203105  -0.2823719  -0.3114080   0.7966924
   0.2218895  -0.2764643  -0.3170432  -0.2697658  -0.2976820  -0.0313291
  -0.5873731  -0.2578138   1.7276250  -0.3777202   0.2589861   0.1634791
   0.2673040  -1.7634911   0.1623249   1.1392131  -0.9227275  -0.1654222
  -0.3273608  -0.2155203   0.0882954  -0.1726813  -0.1393147   0.8820557
  -1.0044201   0.3789994  -0.4748958  -0.1561703   0.0230420   0.0397560
   0.4663309   0.5727786  -0.1671537   0.5083311   0.1400169   0.4736560
  -0.0713690  -0.4635889   0.2794282   0.4719970   0.0640475  -0.0101980
   0.5387929   0.7867161  -0.2774813   0.3752167  -0.3123562   0.0846741
  -0.9460741  -0.1702001   1.2407660   0.0783930  -0.2713779  -0.6770569
  -0.1306761   0.0104937  -0.0037245  -0.3021429   0.1440399  -0.4781577
  -0.0223063  -0.8685666   1.4940237   0.4116411  -0.1182430   0.1065651
   0.0451981   0.7899225  -0.2123207   0.8311572   0.4027855  -0.9262672
  -0.3713302  -0.1502287  -0.0917886  -0.2054561  -0.0541472  -0.7148688
  -0.1518179  -0.5735985  -0.6930275   0.0992827  -0.0017398   0.3095463
   0.5685476   0.4770659   0.9154584  -0.7608453   0.5134038  -0.1019109
  -0.2055909  -0.2400382  -0.0033510  -0.5338796   0.5693338  -0.1797289
   0.7452150   1.4151778  -1.1225583   0.3316141  -0.1542053  -0.0535045
  -0.2295811  -0.4884097  -1.4826175  -0.2041011  -1.1956965  -1.1073419
  -0.0536865   0.1581385   0.3019789  -0.8485010   1.0556720   0.1750415
   1.4024315  -0.5756917  -1.0697064   0.4681279   0.0514735   0.1878668
   0.6970684   0.5322304   0.6371931  -0.7195680   1.0220654   0.8096037
  -0.1170362   0.0542220  -0.3630779  -0.3129336   0.3622490  -0.2185104
  -0.4228696   1.6230976   0.3803047  -0.0331958  -0.1942463   0.0139149
  -0.7166906  -0.4792903  -1.0958775   1.3870307  -0.4530873   0.9458183
  -0.1732950  -0.0310845   0.0559682  -0.2094629   0.3999369   0.8354370
  -0.5104722   0.2416589   0.7579858  -0.1929612   0.0633403  -0.0820973
  -1.9158848  -0.6910892  -0.6458336   0.2573821   0.9999272  -0.5859703
   0.1991726  -0.0278291   0.0720887  -1.5216207   0.7141780  -0.6080309
  -0.8810949  -0.5721218  -2.2772230   0.3437241  -0.1512614   0.2021552
  -0.1472712  -0.8438510  -0.7814651  -0.2981594   0.1446480  -0.0307643
  -0.0925055  -0.0705820   0.0628097   0.1244701  -1.1005299   0.0431286
  -0.9672107   0.3541564   0.5255979  -0.4269202   0.1799182  -0.0889191
  -0.3374749   0.9404090  -0.1402655   1.4066420   1.6854683  -0.5603012
  -0.2867480   0.0517498  -0.2519960  -0.5980820  -0.8822364  -1.1355318
  -1.3053604  -2.0437436  -0.3371022  -0.4478174   0.0282009  -0.0102412
   1.1527566   0.1140569  -0.4495817  -0.3532439   1.1246088  -2.2135606
  -0.0180919   0.1767363  -0.6489804  -2.2024830  -0.6165259   0.2556177
   0.0962912  -0.7843832   1.9868579   0.2985136   0.3223146  -0.1427926
  -0.3256634   0.9216181   0.0092269   0.6552674  -0.3373497   0.0971651
   0.2545282  -0.2603215   0.1665700   0.0462880   1.0830456  -0.2776867
   0.8263690   2.0956994  -0.2497728   0.0862905   0.0299081  -0.1398002
   0.8622755  -0.8528053   0.3229872  -1.4041590   1.1978532  -0.4840413
   0.0379064  -0.1298072  -0.0861042   0.1490260  -0.3553526  -1.6259603
   0.2966444   0.4885360   0.1104615  -0.0299345   0.1069133   0.0146555
  -0.5352332   0.8919569  -0.0875408  -0.6759033  -0.2169475   0.3099017
  -0.0477066  -0.3720661  -0.1607292  -0.4298455  -0.0541357   0.3321768
   0.1605651   1.1430906   0.5372025  -0.0480568  -0.0860245  -0.2003790
  -1.3141456  -1.1096261  -0.6151804  -1.2033301  -0.9001725   0.7218779
   0.2522236   0.2457395   0.0583411   0.2770579   0.4027901   0.5562615
  -1.0206604  -0.5137203   0.6959055  -0.2218273   0.1339269   0.1010285
   0.2807353   0.4118287  -0.9825530  -1.0329663   0.0558108   0.8479433
   0.1230592  -0.0192173   0.0950320   1.2793609   0.7742513  -0.2105932
  -0.6386633   0.3758671   0.1418869   0.0418704  -0.3126704  -0.0530808
   0.6326799   0.6573275   0.9055470   0.4928604   0.4390540   0.4479125
   0.1916670  -0.1326358  -0.0066846   0.2908912  -0.3616637  -0.1766889
   0.2847822   0.2432867  -0.3349834  -0.2068351  -0.0081060  -0.0203998
  -1.0068179   0.1831114   0.5637082   1.2292067   1.5087520   0.9092823
   0.0678209   0.0628996   0.0363515   0.7318923  -0.4430126   0.6681516
  -1.0101848   0.9975283  -0.1794704  -0.3246080  -0.0517981  -0.0758298
  -0.2980946  -1.5872942   0.6662299   0.1079350  -0.4773270  -0.0393220
   0.0882327  -0.1864854   0.0077965  -0.7868740  -0.6484828   0.3707914
   0.3601979   0.1078938   0.3826261  -0.3612166  -0.1783939   0.3058199
  -0.0531411  -0.8456770  -0.4603149   0.3614851  -0.4888712   0.3733148
  -0.1799578   0.2456549  -0.0249148   0.4195666  -1.2998797   1.2403479
  -0.2404622   0.8619241   0.4692169   0.2783337   0.2698863  -0.0311491
  -1.5627824   0.2904135  -1.4669586  -0.1669808  -0.4033529   0.3517013
  -0.0360250   0.3297432  -0.0159809  -0.9082366   0.2663230  -1.3328744
   1.0231571  -0.6851765   0.3611993   0.1623368  -0.0744470  -0.0273419
   0.0237187  -0.1907596  -0.0654591  -0.4853204  -0.5642723  -1.5402102
  -0.1767335   0.0332529   0.0803565  -0.6902457   0.8766393  -0.6867144
  -0.1065136  -0.2843024  -0.3039086  -0.0098760  -0.0928023  -0.1736274
  -0.5442046  -0.7483101  -0.5314605  -0.0427578  -0.3819850   1.2440885
  -0.0800754  -0.1280706   0.1130485  -0.7272794   0.8064075   0.1797750
   1.5847303  -1.1435767  -0.0947855   0.2975351  -0.1716773   0.1389610
  -0.0741538   0.3749623  -0.2049179   1.2697049   0.9575475  -1.6607619
   0.0178917   0.0920531  -0.3557534  -0.8838083   0.6707299  -0.6511739
  -0.5143074   0.6059619   0.1950632  -0.1841513   0.1323661  -0.5026960
  -0.6405208   1.0531036   0.3215159   0.4407393   0.6139476   0.7164869
   0.0448704  -0.0114341  -0.0542690  -0.0618250   0.5835129  -0.7892325
   0.6508355  -0.0808995   0.2013571   0.1020533  -0.1330893   0.0196173
   0.9422497  -0.2227964   0.5135592  -0.8473838  -1.0839888  -1.1255456
   0.3349662   0.0569273   0.0973351  -1.0300096  -0.2221115  -0.0404635
  -1.1388682  -0.8316002   0.4059136  -0.0001070   0.0167845  -0.1853075
   0.5008888   0.7482798   1.2653628  -0.6956113   0.1292104  -0.1178266
  -0.1722860   0.1111931  -0.1995973  -0.0616010  -0.8517057   0.0971203
  -0.4299632  -0.0791953  -0.9823569  -0.0644526  -0.1910116   0.0329738
   0.0283032   1.1577102   0.0231801  -0.1094130   1.0002390  -1.4874410
  -0.2039993  -0.1333781   0.5003594   1.3611708   0.9007516  -1.7082504
  -0.1777744  -0.3281200   0.0850456  -0.1036822   0.2116793   0.2199447
   0.2575740  -0.0503435   0.3781185   0.9128714  -0.1946582   0.3162403
  -0.0488170   0.2815863  -0.0523538   0.7445479  -0.6604687  -1.3554888
   0.0080424  -1.6205906  -0.4929653  -0.0057671  -0.0250922  -0.4171041
  -1.5334242   0.9041798   0.0407878   0.6354061  -0.2975276  -0.3208272
   0.0469457   0.0379445   0.3114837   0.0547021  -0.5449344   1.0791666
   0.5578851   0.2605002   1.2065691  -0.2795833   0.0874398   0.0223517
   1.2494817  -0.0336247  -0.1890362  -0.0738294  -2.0251781  -0.6215419
   0.1923178  -0.3873000  -0.0678345  -1.4485133   2.0754144  -0.1437348
   1.4446343  -0.6104353  -0.4132097  -0.0153625  -0.0254402   0.0588382
   0.4740840   1.1604989   1.0196425  -0.1474494  -0.1663385   1.4284194
   0.0105896   0.2609658   0.1754590   0.2135073  -0.9513463   0.2323148
   0.3110619   1.3779394   0.2134037   0.1746910   0.1016124  -0.3201593
  -0.4249742  -0.5500604  -0.1327345  -0.5455057  -1.1675762  -0.0270137
   0.1840389  -0.3353301   0.1062189  -1.6317259   0.0168643  -0.1989330
   1.4134780   0.3114276  -0.6867111  -0.2383706  -0.5417314  -0.1537832
   1.0941325  -1.8971501   0.5952244  -1.2969747  -0.7789222   0.1586634
  -0.2217620   0.3624447  -0.0551645  -0.6579910  -0.9702255   0.0514556
  -0.1408314   0.3036844   0.3410863  -0.0163400  -0.1612357   0.0197024
   0.9016391   0.2480253  -0.2262374   0.6787242   0.1244041   0.2313694
   0.1028192   0.2202691  -0.0467570   0.8786180   0.3839310   1.5273096
   0.7312897  -0.9939105  -0.7819827  -0.0727726   0.2864277  -0.3832864
   1.7210218  -0.1572932  -0.4252951   0.7614857  -0.4351026   0.6346532
   0.0484588  -0.3806021  -0.2405512   0.0874139  -0.9748553   0.2350582
   0.7122913   1.7004849   0.0004436   0.0808518  -0.1595188   0.0289245
   0.0707915  -0.0483495   0.2087472   0.1357256   1.0005622  -1.3420782
   0.0437151  -0.1212675  -0.1969110  -0.0922420   0.2098244   0.7914130
  -1.3343177  -0.6761555  -0.6151257  -0.0026287   0.3619002   0.0847410
  -0.8579415   0.1467445  -1.0280053  -0.1255870   0.0189229   0.4657283
  -0.0572680  -0.0060541  -0.2544145   0.3569386   0.7609520  -1.7018268
   1.0021926   2.4431629   0.9402126   0.3718081   0.1813187   0.0276365
  -0.6697903  -0.8599495  -0.0176807   1.3101990  -0.4661435   0.9369935
   0.3417757  -0.1687274   0.2167694  -1.2917245   0.3244730  -0.3093549
   1.6079414  -1.0134302  -0.3059654  -0.1666341   0.0094171   0.3545222
   1.3764932   0.2982806  -0.2369422  -1.3717375  -1.2534290  -1.3551580
   0.0847376  -0.0135208  -0.0966856  -0.2697292   0.1648695  -0.9734949
   1.7006121   0.1006122   0.1310905  -0.1545139  -0.1026268  -0.0370025
   0.3609525  -0.1189743   0.8661657   1.4142651  -0.4966539  -1.7133596
   0.3671559   0.0105574   0.1445904  -0.3101911  -0.0213785  -0.4600996
   0.2580344  -0.1750476  -0.3411811  -0.0839138   0.0500626   0.0230599
   0.6190207   0.2713848  -0.7902677   0.6743661   1.0466639   0.9625204
  -0.2946130  -0.0918328  -0.1895248  -0.7472000   0.0881533  -0.1645547
   0.6644798  -0.5216048   0.3348773  -0.1590303  -0.0068211  -0.1712253
  -1.0128877   0.2374094  -0.4204229   0.2941885   0.4294941  -0.3919126
  -0.2142155  -0.0117754   0.2089836  -1.4755709   0.0567665   0.1545648
  -0.1111596  -0.4673725   0.2249767  -0.5941844  -0.1185501  -0.2984984
  -0.3618550  -0.7542097  -0.0964891   0.8095131   0.1763137   0.7661114
  -0.0659500  -0.0854412  -0.0891800   1.0224353  -0.6595550  -1.0947117
   0.0468471   0.0967744   0.2879731  -0.5899545  -0.3254367   0.1013885
  -0.4891338   0.1101092  -0.7456851   1.7815705   1.0616195   0.9273123
  -0.1066890  -0.0942053   0.0816776   0.3436777   0.0409961   1.1866043
   1.4382106  -0.3293705   0.4773653  -0.0018591  -0.1047751   0.2202290
  -0.9738321   0.4962437  -1.5875007   2.2749184   0.6174007   0.4044226
  -0.1169168   0.2874476  -0.0961471  -1.1199760   1.5323766   0.3600808
   0.4706120  -0.0182394   0.1658803  -0.0236586  -0.2149884  -0.0871852
   1.6728946  -0.0656403   0.8879228  -0.4909129  -0.9695956  -0.5594616
   0.0863912  -0.2293611   0.1106735   0.6042444  -0.5000330   1.2287202
   0.0300106   0.6071742   1.2047882  -0.0938837   0.2242097  -0.0407006
   0.1848793   0.3578050  -0.1073401   0.6987468   0.1809238  -0.8037357
   0.4561665  -0.0596679  -0.3948931   0.2827817   0.1046787   0.2455374
  -0.6308967   0.9205823  -0.7952167   0.2129023   0.2947145   0.1016749
  -0.0913280  -0.6192230   0.4494810   0.5366109  -0.4843927  -0.0057777
   0.1741418  -0.0590190  -0.2199197   0.0286956   0.1659523  -0.7149194
   0.0190593  -1.1645496   0.1778176  -0.0032188  -0.1507406  -0.0158754
   0.2320555   1.3166334  -0.1392642  -0.0221229  -1.3018548  -1.1248377
   0.0163929  -0.2298536   0.2733570   0.6260266   0.7434413   1.8607858
  -0.3876136   0.3702715   0.4860792   0.2829310   0.0258756   0.3632722
   0.3713130   0.4512335  -1.1429002  -1.6898410  -0.4613086  -0.1154695
   0.0371558  -0.1285357  -0.5365286  -0.3798763   0.8012674  -0.5758713
  -0.2566515   0.9387087   0.1045521  -0.2006664   0.2015733  -0.1872768
  -0.0571365  -0.3393025  -0.7423827  -1.2100290  -0.6220178   0.0578503
   0.0636987  -0.1613152  -0.0368264  -1.2596832   0.8033006  -0.3842668
   2.6052966   0.3884950  -0.7235801   0.0609075  -0.0781215  -0.0997066
   0.4446868   0.6107784   0.9035031   0.4775081  -0.0362818  -1.1654647
   0.2260490   0.1641792   0.1976471   0.4144231  -0.5701237   0.8000820
   0.1953431   1.2057755  -0.4133552  -0.0303609   0.1339560  -0.2365107
   0.1286398   1.7674648   0.8126406   0.5737314   0.2490263   1.7545832
   0.0146315  -0.1108786  -0.1872437   1.7834721   0.1163399  -0.8313932
  -0.8827026   0.5091073   0.4072614   0.0861818  -0.0691346  -0.0541774
   0.3411060  -0.9029661  -0.0978010   0.1309897   0.1232786  -0.3348860
   0.0180128   0.0894803  -0.1115207  -0.5562252  -0.6190666  -1.5039045
  -0.0109217  -1.7418433  -0.2056111  -0.0097430   0.0544025  -0.0292755
   0.1577406  -0.1130829  -1.0459603   0.5058054   0.3806530  -0.3379874
   0.0257244  -0.2509758  -0.3216252   0.7865655  -0.0535588  -0.2241360
   0.9809787  -1.8633104   0.5591266  -0.1492767   0.0277580  -0.1789961
   0.5377638  -0.3210808  -0.2765140   1.0580877  -1.6819110   0.4270659
   0.0046756  -0.2180917   0.0362482   0.1092210  -0.8046364  -0.8290609
  -0.9289502  -0.5130682  -0.5846277  -0.0326373   0.1271259   0.0244531
   0.6191183  -0.2226023  -0.7336198  -0.8358863  -0.5771696  -0.0630612
  -0.0203145   0.2937340   0.3639143  -0.5528996   0.1202661   0.9423047
   0.7689131   1.2057429   0.2124891  -0.3558422   0.3270759   0.2823069
  -0.0155036  -0.9267119   0.2465938  -0.2190198   0.5413477   1.6934441
   0.0212627  -0.0316431   0.0655688  -1.0940219  -0.9801605   0.1933117
   0.3128324   0.5137059   0.5425476  -0.1586672   0.3807066   0.3170214
  -0.2247616  -0.1181759  -0.9251579  -0.2576073   0.1629461   0.1851921
   0.1357666   0.0694639  -0.1111781  -1.2097074  -0.0956465   0.7663693
  -0.3832506  -1.0693268   1.1421227  -0.1109794   0.0404183   0.0769676
  -0.8683670   0.9829098  -0.7791478   0.5172589   0.3275684  -0.4380216
  -0.2173740  -0.5024445   0.0418344  -1.3168781   0.5262692  -1.0384535
  -0.3993601  -0.7438047   0.8894546  -0.0242974   0.3260075  -0.0957986
   0.5633484  -1.0763726  -0.7417239   0.4973314  -0.4264444  -0.5692283
  -0.0462199   0.2216664  -0.3035289   0.9314406   0.6951450   0.0640203
  -0.7744926   0.9196461  -0.0260360   0.1166300  -0.3180849  -0.0479051
  -0.4651270   0.9428449   0.3120342   0.3648600  -0.4963005   0.5423918
   0.1477934   0.0242261  -0.1220271  -0.0219882   0.6324917   0.3278180
  -2.5396058   1.3189939  -0.2155842   0.3049860   0.0303395  -0.1900991
   1.1547493   1.0180555  -0.3379238   0.5056180  -1.7484861   0.1928266
   0.1669376  -0.2070136  -0.2586910  -0.5934108   1.1985604   0.8760570
   0.0204995  -0.9764476  -1.0903950  -0.2915012   0.0038424   0.0617335
  -0.3843223  -0.7487801   2.0858406   0.1336420   0.3262182   1.1171184
   0.2843233   0.1314551   0.2885792  -0.7070290   0.2304458   0.0114650
   0.1615640   0.7722584   1.4157818   0.3097696  -0.1708754   0.0434902
   0.4248005  -0.6086937  -0.8284067  -0.3791626   0.2489470   0.4495824
  -0.0271421  -0.1475647  -0.0042533  -1.2163639   0.1345534  -1.1609147
   0.5271541   0.0572888  -0.6085438   0.0314767  -0.1191971  -0.1267074
  -0.0289661  -0.2511413   0.2688861   0.2359892  -0.6521098   1.1552018
  -0.0977264   0.0339565  -0.2120869  -0.1038951   1.5162996  -0.1700886
  -1.0859777   0.5527657  -0.8200367  -0.0263405   0.0178335   0.2660344
  -1.1413032  -0.4734619   0.0800872   0.3503213   0.9209088  -1.1738316
   0.1771597  -0.0899672  -0.1402481   1.2521454  -0.2506048  -0.6034049
  -0.0454659  -0.4557673  -0.7620917   0.2852276  -0.1708621   0.1317872
   1.0381308   0.2800458  -1.7623196  -0.1535320  -0.8108298  -0.2753799
  -0.1108813  -0.2126146  -0.2201947   0.4597076   0.4772511   0.2125315
   0.1998223   1.2238627  -1.2941044   0.0508543  -0.1766066  -0.1226569
   1.0673425  -1.1937789  -0.3986516   0.8382443   0.7742581  -0.7451350
  -0.1336105  -0.1321105   0.2354226  -0.3857689   0.6313456  -0.5849544
   0.6771708  -1.1126510  -0.8246451  -0.0128362   0.2403877  -0.2033253
  -0.6886918   0.4192271   0.3677999   1.3860159  -0.2784284  -0.2341283
   0.2506130  -0.1071061   0.0277173  -0.6471043  -1.2201852   0.1377224
   1.1636123   0.2496386  -0.7633470   0.0500579  -0.0844366   0.0445482
   1.1926907   1.6068179   0.5871320  -0.8718319  -1.0893351  -1.1930500
  -0.1828494  -0.1279832   0.1629478  -0.6730151  -0.2705809   0.4521991
   0.9927191  -0.1228433  -0.3145502   0.0029910  -0.1907386   0.3188625
   0.0336683  -0.7680291   0.0460099   0.0903027  -0.5504847   0.2445356
  -0.0055709  -0.0350890  -0.1430456   0.2378767  -0.3632625   0.4587208
   0.0010224   0.4014184  -0.4037862  -0.0526453  -0.1010094  -0.1233832
  -0.5543258   1.2133915  -0.5346903  -1.2525596  -0.2345805  -0.8343478
  -0.0733065  -0.1332732   0.0350834   0.5918531   0.3878681   0.6976833
  -0.9711220  -1.1424984  -0.5531040  -0.0002399   0.3455799  -0.0777964
  -0.6374444  -1.1698103  -0.4714706   0.2716874  -1.0161879  -1.3615684
   0.2400792  -0.2359107  -0.0636195  -0.8345952  -0.3960099   0.1403003
  -0.2968087   0.6616357  -0.6425682   0.3277445  -0.1705617   0.2203052
   0.0566589  -0.1955208  -0.8854045  -0.1773410   0.2425522  -0.8327633
   0.1586055  -0.3269847  -0.0232768  -0.1811419  -0.1929559  -0.8052610
   0.2663618  -0.3304082   1.6799442   0.0000975  -0.0267657  -0.2654422
   2.1338863  -0.0007180  -0.5347877  -0.3503902   0.6212662   0.0749828
  -0.0768186   0.0959915   0.0478418  -1.2974887   0.0547550   1.0975721
  -0.3883384  -0.6137922   0.5364513   0.1154792   0.0485963  -0.1242155
  -0.4472794   1.7753479   0.2962971   0.0769697   0.8282638  -0.2349389
   0.0393027   0.0718141   0.0986912  -0.5687658   0.6013066  -0.1734725
   1.4196909   1.5341701  -1.2779267  -0.1567911   0.1414492  -0.0129394
  -0.4500168   0.4288141   0.0528794   1.3834328   1.0488440  -0.7944046
   0.0547500  -0.4220465   0.1402453   1.1022955   0.4032348   0.5735355
   0.2861479   0.7524917   0.1746921  -0.0744316   0.0988788  -0.0378910
   0.5760083  -1.0929236   0.9960673  -0.3561625  -0.2288976   0.0232204
   0.1070542  -0.1952395   0.0652112  -0.9741283   1.4149427  -0.3097030
  -0.4172119   0.6200183  -0.3695410   0.0008538  -0.2568063  -0.3952257
  -1.3539509  -0.0816025   0.1787092  -1.7085564   0.1269424  -0.4757766
   0.1494420   0.1842348  -0.1735343  -0.5895107  -1.5489103  -0.5694278
  -1.5285244   1.1267159   0.0317784   0.1454010   0.0064195   0.2260310
  -0.5109796   0.0652009   1.4203481  -0.2391138  -0.2909957  -0.1696637
  -0.1541085  -0.2000088   0.2481169  -0.5090939   1.9153215  -0.3377695
   0.0563971   0.3201875  -0.0463937   0.1493848  -0.1843347   0.0866972
  -0.6106711   1.3172294   0.6388297  -0.2651320  -0.5052954  -1.1365576
  -0.0810361  -0.5197933   0.1198865   0.6880643  -0.4688760  -0.4931467
  -1.2441991  -0.2544342   0.7702493   0.2692481   0.0944753   0.5242779
   0.6382693   1.1349358   0.4700542  -0.2462516  -0.1408217  -1.7265877
  -0.0520045  -0.3703041   0.0030802   0.5087807   0.4638246   0.0175848
   0.1305508   0.0349133  -0.3775476   0.3102069  -0.1879451   0.2968421
   1.1106921   0.2703927   0.4834801  -0.6785197   0.2941120   0.9214089
   0.0821565   0.2431248   0.3721517   1.2036734   0.1032659   0.0444866
   0.5046005   0.7371915  -0.1170259  -0.1116042   0.0428353  -0.6340763
  -0.6454775   0.9040055   0.1038614  -0.0156765  -0.9058335   0.1999514
   0.3442861   0.2195955   0.1261251  -0.7059585  -0.0061191   1.2461257
   0.6634497  -0.7771690  -1.2893386   0.0360733   0.1513342  -0.2427417
   0.3698647  -0.6109683   1.6662733   0.4879424   0.3392443  -0.8937583
  -0.1979747   0.0511110   0.2667513   0.1049340   0.8287569   0.7130795
  -0.4916837  -0.1973828  -0.2830616   0.0938405   0.0834043   0.1049006
  -0.4961622   0.1905559   0.6125618  -0.3253207  -0.3137119   0.1173192
  -0.0483037  -0.0825945   0.0750495  -0.1393947   1.0481163  -0.6756271
  -0.2948371  -0.8994053   0.9341736   0.1914573  -0.0146820   0.0607045
   0.5156994   0.8128346  -0.0542593   0.0953744   1.2817511  -1.2740790
  -0.0774225  -0.0395323  -0.0990579   0.0673110  -0.4764701   0.6678456
  -0.2861409  -0.5892157  -0.5924391  -0.1290304  -0.1283227   0.0940250
   0.2998606   1.3307772  -0.7992319  -0.8379382  -0.4505425  -0.0269633
   0.0637405  -0.1367035  -0.1101601  -0.2166600   0.9118506   0.3744185
   0.2350103   0.3263532  -1.5534919  -0.4069683  -0.0170108   0.3517080
  -0.6839153   0.9188700   0.4124840   0.7041529   1.2614442  -1.5325436
  -0.1179376   0.2722965  -0.0145865  -0.9127140   0.4078320  -0.1942673
  -1.4481007  -0.4578486  -1.1979186  -0.0934375  -0.1059403   0.0067193
  -0.0921477   0.9959644  -0.8082247  -0.1831182   0.2228428   0.7077961
   0.0661229   0.0093929  -0.1135226  -0.0470469   0.0943448   0.0253311
  -1.3945540   0.4525719  -0.0176599  -0.0047112   0.0252388   0.3801495
  -0.8835868   0.2648428  -1.2099727   0.6248280   0.2334113  -0.2153138
  -0.2790380   0.0096205  -0.2034983  -0.3216687  -0.2271982   1.4959565
  -0.2471334  -0.0364471   0.6825590   0.2391750  -0.0005547  -0.0969460
  -1.7285362   1.1709187   0.4344266   0.2368146   1.6214020  -0.0438976
   0.2105858  -0.0215403   0.0017745   1.0848708  -0.9760294  -0.5478051
  -1.4801226   0.7877327   0.3126332   0.0651120   0.0715030  -0.0448978
  -0.3049506  -0.6884181   1.3296641   0.0103957   0.3546681  -0.1142503
  -0.0195057  -0.2188352  -0.1360226  -1.0016582  -0.6811511  -0.7117046
  -1.5788481  -0.7457771  -0.3717013   0.2325993  -0.0889545  -0.0967110
  -0.6798667   0.3814919  -0.0537555  -0.2000971  -1.5757836  -0.5903077
   0.0177840  -0.0233122   0.0341616  -0.7301315   0.8501206   0.3570031
   0.1836946   0.3458562  -0.4456032  -0.1225380   0.0925200  -0.4247134
  -0.5818149  -0.2345302   1.1827805  -0.8377763   1.1478437   1.1235739
   0.0568463  -0.1426943  -0.3644892  -0.2767425   0.7922928   0.0785039
  -0.7894418  -0.3449521   0.9050045  -0.1342737   0.2072736  -0.1393635
   0.9178375   0.5290240  -0.1952969   0.4151764   0.4822296   0.7449239
   0.3848880   0.0154921  -0.0845658  -1.1186405   0.3232192  -0.5680924
  -0.0791609  -1.1528204   0.1423985   0.0496976   0.0898336  -0.0071883
   0.0601975  -0.3780200   0.2657421   0.2110335   0.2825245  -0.2813950
  -0.0166839  -0.1683474   0.1078717   0.6191225   0.1039098  -1.7128023
  -0.4464594  -1.1024159   0.2023214   0.1433331   0.1249945   0.0246302
   0.2470390   0.7647387  -0.2210218  -0.8392094   0.8167146   0.2808355
  -0.3054812   0.2305301   0.2790102   0.8420397  -0.7305079  -0.6109462
   1.0372049   1.6972304   0.5570058  -0.1396622   0.0986871  -0.1282001
  -1.0123037  -0.0458899  -0.4857470  -0.3331618   1.5271073   0.7499850
  -0.0010382  -0.0715018   0.0882036  -0.0085409   1.5913991   0.4590114
  -0.7241581   1.4876952   0.0338950  -0.0846859  -0.4247506   0.0455599
   0.9727453  -0.0718737   0.0279795  -0.5540044   0.7575167  -1.6407370
   0.1794080   0.1161311  -0.1743512  -1.1543421  -0.2633656   1.2540617
  -0.9444889   0.5244822  -0.3425133  -0.1471013  -0.1490816   0.0938875
   0.3794035  -0.3294603  -0.0749127   1.2045198  -0.7271358  -0.8097048
   0.1680684   0.0571249   0.1648505  -1.3668602  -0.6321961  -0.0638389
   0.1685941   0.0379399  -0.4587108   0.2276062  -0.2430867  -0.0079146
  -1.0006578  -0.0958494  -1.4081749   0.1966024   1.0488210   0.6028601
   0.0246666  -0.0974896  -0.0578102  -0.2580882   1.0444458  -0.8497690
  -0.2117417   0.4366679   0.0567566   0.3008753  -0.0211220  -0.2050239
   0.3595068   0.8484667   0.6216924   0.4148028   0.5960414   0.4587053
   0.3950733  -0.2664934  -0.2040318  -0.0078803   1.2874732  -0.1123800
   0.1781961  -0.2672194   0.4190588  -0.3413971  -0.2263524   0.0041464
  -0.0637030   0.8064160   0.2077323  -0.3894027  -0.5912719  -0.3780266
  -0.0898501  -0.1361049  -0.1324808  -0.8782511  -2.2522836  -0.1767170
  -0.5729876  -0.8008849  -1.2623393   0.3829244  -0.1403642   0.1702475
  -0.5589162  -1.2138804   0.7695243  -0.3935565   0.3200728  -0.3180860
  -0.2844798   0.2493514  -0.1668866  -0.8955682  -0.4573724   0.7791506
   0.9472561  -0.7358003  -0.9388961  -0.1662870   0.1687697  -0.1300943
  -1.2014949  -0.4071795   0.2567179   0.8755607  -0.8737983   0.0420251
  -0.0920917   0.0867862  -0.0252941   0.8728007   0.4495258   0.3059321
   0.5915204  -0.1286174   0.5306124   0.0388992   0.2759822   0.1580216
  -0.5090782   1.1736742  -0.4363837   1.0752803   0.2260849   0.7098631
   0.1044863   0.1361994  -0.0888565  -0.4582772   1.0534874   0.1844160
  -1.3160067   0.2917850   0.4702116  -0.1169654  -0.0591611  -0.2606755
  -0.6628980   0.1903114   0.3659383  -0.5857040  -0.1177591  -0.9674451
   0.1076488  -0.3044971  -0.1833982   0.3093954   0.6765453  -0.8620101
   0.3447357  -1.0943530  -0.5643334  -0.2502129  -0.0306283  -0.0044723
  -0.2287949   0.5401229  -0.2495622   1.4423155  -0.6467838   0.9623509
   0.0248941  -0.0636728   0.0573118  -0.1710210   0.4169876   0.6688317
   1.5267303   0.0982948   0.3334165  -0.0715708  -0.1470502   0.1879783
  -0.0250273   0.6255129   0.0434743   0.8131513  -0.6557188   0.4240857
  -0.2306986   0.1076268   0.0244640   0.2508123   1.2578038   0.4332235
  -0.2280456   1.3819992   1.3710585  -0.0184710  -0.1164497   0.1890395
   0.2959229   0.5841234   0.3899600   0.2089935  -0.1950664  -0.5194950
   0.0920596  -0.3164490  -0.2072458   0.4086445  -0.2917380   0.9362096
  -0.8444060   0.9648416  -0.5505223   0.3472785   0.0119313   0.2940629
  -0.6505003  -0.8059412  -0.7689570   0.8816480  -0.3393727  -0.7455586
  -0.0180203  -0.0714002  -0.1602123  -1.0932257  -1.1962461   0.2245190
   0.0344253   0.4769981   1.1324823   0.0554252   0.0494111  -0.0954930
   0.5781038   0.8734474   1.1289796  -0.6505776   0.1745655   0.7978559
   0.0184497   0.1271032  -0.2802460  -1.7773029  -0.4338093  -0.8529861
   0.1238979  -0.0299183  -0.3430927   0.0104878   0.1315429   0.2537128
  -0.8096890  -0.6899511  -0.9776005   0.7631864   0.7818336  -1.8188904
  -0.0984942  -0.1470715   0.3161468   0.3764282  -0.5609290  -1.3752352
  -0.4757402   1.2357302  -0.2220313   0.2075576  -0.0543077   0.2167068
  -0.7265366  -0.2838510  -0.7337959  -0.4881332   0.6867126  -1.0786740
   0.1230510   0.2038020  -0.2635240  -0.9925122   0.4603663  -0.6198293
  -1.5326138  -0.4540658  -0.8173356   0.0259610  -0.0037064   0.3894809
  -0.6374939   0.1190616  -0.0818440   0.0977998   0.5836710  -1.0604002
  -0.3655132  -0.0059795  -0.0526909  -0.2205207   0.3869766  -0.6474309
  -0.8128730  -1.2111305   0.0833022   0.1805265  -0.0135440  -0.1957431
  -0.6124332  -1.1473240   1.1422695  -0.2138522  -0.7076150   0.2595437
  -0.1092705   0.3499948   0.1447972   0.6040815  -0.7453831   1.0234494
  -1.2189735  -0.8370299   1.0723339   0.3920235   0.1253624   0.1803576
   0.7789075   1.0554261  -0.9734713   0.0931324   0.8899289  -0.4597053
  -0.0738238  -0.0028661   0.0661407   1.0179331  -0.2592941  -0.4122466
   0.4837990   0.6349543   0.0884926  -0.2489077  -0.0406095  -0.0542707
   0.0778369   0.1998530  -0.2386786  -0.4370595  -0.7363323  -0.7724476
  -0.0154504  -0.2544292  -0.1237195  -0.1777118  -0.2660818   1.9950521
   0.0537973   0.1075918  -0.1370217   0.2033832  -0.0850409   0.1839109
  -1.0698278  -1.1338747  -0.7476340  -0.5691531  -0.0144717   1.0910655
  -0.0184614   0.0551683   0.0250005   1.1785724   0.7068038  -0.4391956
   0.4543178   0.0635959  -1.4178170   0.2066375   0.1472163  -0.1681421
  -0.3482627   0.3851345   0.5285825  -0.5240525  -0.3015135   1.1244355
   0.2857052   0.0072778   0.1341791   1.2723608   0.8845571   0.1842355
  -0.5107343  -0.0366495   0.6565590  -0.1104222  -0.2779914   0.0880670
   0.2640598  -0.2712730  -0.0762967  -1.8440030  -0.4884103  -0.2102350
   0.0654243  -0.0921968  -0.0254731  -0.0317798   0.4208305  -1.2249720
   0.5506650   0.1076597   0.2358865  -0.1495735   0.0856465  -0.1070273
  -0.2487364   0.9401062  -0.4754643   1.4239475   0.1066459   0.3859372
   0.1319641   0.2030300   0.2104033   1.0159172   0.4222944   0.4662450
   0.3497948  -0.4982187  -0.1219921  -0.1631237   0.1791629   0.0653180
  -0.5660607   1.7385204  -0.5673569   1.1203830  -0.1783603  -0.1618515
   0.0586967   0.1235452  -0.1389979  -1.6433214   0.2993663  -1.0046090
  -0.6401783  -0.7688641   0.1825226   0.2750502   0.0569736   0.2825261
   0.8397013   0.1245556  -0.3040681   1.1853938   0.6831715   0.6562014
   0.1452392  -0.0835309  -0.2742144  -0.7737534   1.2736510  -0.0453058
  -0.7975863  -0.2005853  -0.5093521   0.0196618  -0.2735686   0.1226033
  -1.2479742  -0.0337462   0.5687774   0.6070783   1.1744179  -0.2267965
   0.0749503   0.2566056  -0.0461747   0.6454779   0.2006702  -0.6033470
  -0.0702098   0.5495373   0.2835319  -0.1146861  -0.1107020   0.3173773
   1.5368749   0.0480240   1.5521713  -0.0374537  -0.5384082   0.3616359
   0.1945773  -0.0916817   0.1423114   0.4177294  -0.4066485  -0.3202849
   0.7153267  -0.2669954  -0.0905691  -0.0317443  -0.1554759   0.1266452
  -0.6450841  -0.0315725   0.5558578  -0.1091976  -1.8376974  -1.0962487
   0.0572361   0.1178786   0.2487630   1.1732544  -0.0457836  -0.0444555
   0.3049618   0.4702163  -1.3256147   0.0046059  -0.1075458   0.1625724
  -0.6954178   0.3623790   0.7057777   1.0796043   0.1859009   0.9799995
   0.0745879   0.1258996   0.1548546  -0.9418054   0.4399673  -0.3449063
   1.1106817   0.9703491   0.9207820   0.0856178  -0.0628942   0.0224603
  -0.8772254  -1.0831443  -0.6912808   0.9147927   0.7905839  -0.9458770
  -0.1503879   0.3415001   0.1358178  -0.3232831   0.1223972  -0.6147970
  -0.5755559  -0.8150872  -0.0794920   0.0199152   0.0693728   0.1089095
   0.8642996  -1.2694545  -0.0603031  -0.1811300   0.9033748   0.1651944
  -0.1622169  -0.2549271  -0.4283529  -1.1251430   1.0113429   0.4935545
   0.8097858   0.1349295  -0.0791921   0.1466497  -0.2250634   0.2193206
  -1.0761069  -0.5724268  -0.5581211   0.5402382  -0.0433070   0.0866077
   0.0182788   0.0982044   0.0558949   1.0457672   0.5846556   0.7966715
  -0.3937627   0.0035030  -0.3164037   0.4736535   0.1343824   0.3517968
   0.9140696  -0.8656327   0.3045484  -0.6377299   1.1068657  -0.1556859
   0.0493069  -0.1026891   0.0682470  -0.3680025  -0.1296811  -0.6393811
   0.9256349  -0.9647037  -0.6177458  -0.0066165  -0.1927860   0.2167841
   0.2894873  -0.1178630   0.1966060   0.1373609   1.1816559   0.7525868
  -0.0030381  -0.1698297   0.4401025   0.4210399  -0.3252178  -0.6118924
  -0.3198760   0.4940463  -0.1553268  -0.3015564   0.2242522   0.0007279
  -0.6326121  -0.1757416  -0.8609031  -0.4491871   1.0075015  -0.6076417
  -0.1782772  -0.1614574  -0.0142563   0.4220844   0.1950567   0.4486697
   0.7156857   0.9419151  -1.3024403   0.1692689   0.0630902   0.2499680
  -0.8759276   1.5749185   0.2650864   0.8002664   0.6760534   1.2455910
   0.2013571  -0.2409978   0.0832866  -0.2841648   0.7810735   0.8576245
  -0.1077922  -0.7562359  -1.8110192   0.1691230   0.2548492   0.2064491
   0.5741253   1.6807550  -1.2964993   0.0280912  -0.6361959   0.3740968
   0.0706386   0.2151436   0.1180868   0.3940088   0.1530289  -0.2632096
  -0.6979272   0.9936688   0.7197640  -0.1380911  -0.0624307  -0.2221024
  -0.2365239   0.6113318   0.2255317   0.1979196  -0.1218663   0.5375232
  -0.0291470   0.2688155   0.2888828   0.8901044   1.3731546   1.1275470
   0.5179451  -0.1705321   0.0326363   0.0809890  -0.1494191   0.0987332
   0.4722993  -1.4392508  -0.2050909   0.1050003   0.5675186   0.6024182
   0.1343040  -0.0977776  -0.0121164  -0.3274062   0.6116774  -0.1393365
   0.8172363  -0.9493573  -0.0105680  -0.4845240  -0.3566122  -0.2267022
  -0.4318765   0.6851370   0.6561083  -1.4190673   0.3609824   1.4450727
   0.1654110   0.2051014  -0.1609278  -1.1473006  -0.8813516  -0.2486884
  -0.0115593   0.5968017   0.0634109  -0.2039001   0.0509750  -0.2679449
  -1.1158008   0.0595709   0.2112120   0.9757400  -0.6322620  -0.5289440
  -0.1165197  -0.0236054   0.4342795  -0.5655726  -0.3244082   0.9169421
  -1.4037419   0.3235870   1.4064289  -0.1188778  -0.2011389   0.1334493
  -0.6289095  -0.7106568  -0.4153875  -1.3186711   1.0982234   0.3185504
   0.1385119   0.1567185  -0.0232477  -0.6004037  -1.0194458   0.2336436
   0.0906348  -0.8986908   0.6630414   0.1225907   0.1642031   0.1125415
   0.0019052  -1.8264647   0.5715142  -0.2926577  -0.0386791  -1.0354366
  -0.2363058   0.1116316  -0.2365799   0.1258512   0.8437584   0.1981861
  -0.8043707   0.0646856  -0.7631214   0.2194013   0.3335403   0.1122325
  -0.6825974   0.2820269   0.6929777  -0.6671935  -0.2160877   0.6587412
  -0.1248583  -0.2525860  -0.5010898  -0.2436468  -0.6028460   0.1764557
  -0.1229857   0.5900232  -0.8175308   0.2440584   0.0922173  -0.0281403
   1.6170813  -0.8972989   0.0091582   0.8653344   0.2512711   1.3294457
   0.0627708   0.0878540  -0.0707427  -1.6160038  -0.6283633   0.8270915
  -0.2494803   0.5872824  -0.2388455   0.2268596  -0.1041082   0.3730064
   0.8139557   1.1484318   0.9568070   1.0479227  -0.2833056   0.4732393
   0.1664065   0.1935957   0.1267638   0.0446022  -0.0865362  -0.6205997
  -0.7416989  -0.4678930  -0.6630879  -0.0096904   0.3039890   0.0041120
  -0.8574646   0.9755347  -0.7214449  -0.9750517   1.5139783  -1.2467982
   0.1579118  -0.0150072   0.1164053   0.3234077  -0.3535550  -0.2499295
  -0.0011692   0.0275016  -0.3647300   0.0472906  -0.1196761   0.1186433
   0.3880220   0.1480636   1.7080441   0.5858752   0.1791990  -0.4324844
  -0.3136151  -0.0881267  -0.1797477  -0.8359843   0.6411393  -0.0502992
   1.0340090  -1.4237538  -0.5777721   0.4891324  -0.0972933   0.1669019
   0.5433125  -0.3354948  -0.0422602  -0.5432255  -2.2446407   1.3810031
   0.2293749   0.1009468   0.0010813   0.1879886  -0.0479084   1.4117736
  -1.4600030  -1.1350977   0.8339225   0.1131968  -0.4167836  -0.1590390
   1.1247231  -1.6112103  -0.9823349   0.1732529   1.2541897   0.3085002
   0.1102759  -0.1713380   0.2034138   0.9270178  -0.1604487   0.0483663
  -0.8580673   0.8425671   1.6480332   0.0794851  -0.2226808   0.2412980
   0.0298940   0.6253212   0.4425918   0.2593517  -1.1315625  -0.0076088
   0.0966314  -0.0193770   0.0175762   0.1958822   0.1124812  -0.4311629
  -0.4487702   1.1788998  -0.7718397   0.1784773   0.0031603  -0.0135106
  -0.5275195   1.3793910  -0.0460665   0.3090250  -0.1264011   0.6132800
   0.4667909   0.0896122   0.0356217  -1.0668031  -0.3154209  -1.8171722
   0.6594013   0.7293983   0.1415220   0.1355133  -0.1669463   0.1007019
  -0.0473711   0.2706040  -0.1665868   1.9125397  -0.9448765  -0.4270422
  -0.4483992  -0.0717119   0.0049308  -0.2185521   1.5746925   0.1403558
  -0.7002239   0.0735650  -0.0700874  -0.0403526   0.5294274  -0.0235953
   0.1750065  -0.6044997   0.4574052   1.0174131   0.7129490   0.7389297
  -0.2858535   0.2100816   0.1002950  -1.3305353  -1.1350280   1.4073042
   0.0879827  -0.4961569   0.0141633   0.5018761   0.0166192  -0.0432018
   0.8081075  -0.4670698   1.0066125  -0.9242591  -0.2879936   0.3544469
   0.3329186   0.2629198   0.1127128  -0.4044633   0.3949265   0.9153508
   0.2696045   0.1588669  -0.8690053   0.1072734  -0.2577391   0.1611483
  -0.3229014   0.4848872  -0.8893046  -1.7034073  -1.7056059   1.5448812
   0.0786095   0.0303052  -0.1284625   0.3395731   0.1343714   0.1802618
  -0.0407295   0.5788689  -0.0931356  -0.1197200  -0.4059141  -0.0880444
   0.9112640   0.4198149  -0.6836211  -0.1687225  -0.1640728   1.0348898
   0.2261847  -0.1415892  -0.0680292   0.6718865  -0.7129482   0.6361616
   0.3698980  -0.1797866  -0.0001045   0.1468853  -0.3232022   0.0953484
   0.1005788  -0.9945967  -0.4151880  -0.0409213  -1.2666428   1.3328334
  -0.0448647   0.4485343   0.0520580   1.3770990  -0.8464550   0.2306387
   1.1451782  -0.6684484  -0.5861069   0.0272208   0.0456950   0.0147326
   0.6820401   0.3866000  -1.8463792   0.4111267   0.1733163   0.3433130
   0.0005581  -0.2238799  -0.0584622   0.5485799  -0.7386733   0.6223467
  -1.3809543  -0.4810882  -0.4014677  -0.3462115   0.4212212   0.0543071
   0.8136255   0.1756064   0.9109119   0.9835189   0.8119301  -2.4782661
  -0.0198046   0.1229331  -0.0509443  -1.2131394  -0.4796267  -0.0524233
   1.5850872   1.6919531  -0.3876047  -0.5600952   0.0512413  -0.3075907
  -1.4424368   0.1227429  -0.0227505  -1.5019634   1.1635617   0.1478691
   0.0470396   0.1066194  -0.0178951   1.4670198   0.7260393   0.5101049
  -1.3108288   0.1335564  -0.2153667  -0.0220394  -0.2210922  -0.2270990
  -0.7378121  -0.0853091  -0.2792323   1.4635511  -0.7476556  -1.9706226
  -0.0049633  -0.2923680   0.1730172  -0.0056319   1.8813423   0.4157622
  -0.2844591   1.2145964   0.6208826  -0.0579657   0.2769677  -0.0676321
  -0.0621611  -0.5357120  -1.4190408   0.4855997  -0.3900056  -0.9099457
   0.1362402  -0.0868169   0.2264513  -0.2989420   0.2490797  -1.3266128
  -0.9619077   1.0708865   0.3720055   0.3277030   0.1947092   0.2660378
   0.1695636   0.6989098   0.4561810   0.5361269  -0.6126567  -0.5933047
   0.0411516   0.1624099   0.2762234  -0.0563119   0.6107798   0.9620992
  -0.1521195  -0.7289040  -0.5048682  -0.1051221  -0.2276561   0.0325260
  -0.6172484   1.5990323  -0.7182630  -1.4547254  -1.1510355   0.7918796
   0.2271534   0.1785991  -0.4284652   0.9141677  -1.2361783  -0.6787419
   0.1102724   0.6914320   0.1113643  -0.0009611   0.2088117   0.0166219
  -0.1511457  -1.0239801   0.0871350  -0.2041365   0.0192348   0.5815056
   0.2627984   0.0761845   0.0147024   1.0552888  -0.3974058   0.3913302
   0.6489864   0.6819883   0.3604286  -0.1155201  -0.1125364   0.1589686
   0.0658252  -0.0180790   0.3621942   0.2203713   0.7829608   0.2214998
   0.0093013   0.1072717   0.1306963   0.5998567   0.2516510   0.1000474
   0.1178335  -0.9617071   0.6219221   0.1423522  -0.0640671  -0.0112838
  -0.3030652   0.6375184  -0.4097828   1.8403000   0.4557494   0.6127029
   0.2513242  -0.1170759   0.2687586   1.2173596  -0.1253212   0.4077264
   0.0373025   0.0022525  -1.1123802   0.0816838  -0.1618741  -0.0284104
   0.6435921  -1.2741697   0.0856225   0.1538145  -1.2720101  -0.4154490
   0.1395663  -0.2166069  -0.2490807   1.7057974   0.3380099   0.1454158
   0.0342759  -0.0527150  -0.4035673   0.0437101   0.5835778  -0.1805466
   1.6222306   0.5577335  -0.1441674   0.3500743  -0.6254925  -0.6143819
  -0.1122836  -0.0868702  -0.0819251   0.0465683  -0.5655834   0.1359605
  -0.1983608   0.6538654   0.5868630   0.0980177  -0.0036027  -0.1540950
  -0.5093892   0.1230703   0.7131081   0.9979111   0.1086765   0.6549108
  -0.1857291   0.2469365  -0.1415052   1.5014838  -0.9047432   1.8116967
   1.5315666   0.3661149  -0.6648856  -0.2323738   0.1311088  -0.1147393
   0.0342381  -0.3296977  -0.5899833  -0.1861150   1.0005115  -0.3257030
   0.1498718  -0.2283032   0.0197333  -0.0831724   0.0218495  -0.2317280
  -0.9005946  -0.0521939  -0.0654284  -0.0676171   0.1527662  -0.1005761
  -1.5246721   0.2835679   0.4860356   0.9800429  -0.1139491  -0.3678397
   0.0201981   0.1492419   0.0720325  -0.4617547  -0.0753760  -0.7413868
   0.5346520  -0.3737212  -0.6788419   0.0257134   0.1240313   0.4402884
   0.2372713   0.3817185  -1.0830354   0.4566957   1.3400040   0.5244992
  -0.2579967   0.0996975   0.1946146   0.1989459  -0.0093627   0.4545420
  -0.0213603   1.1033740   1.0469496   0.0245877   0.1154778   0.2468678
  -0.6446989   0.2126219  -0.3640499  -0.4420654  -0.4773393  -0.8560906
  -0.1766096  -0.3112424   0.4536676   0.0219636   0.2069046   1.3048775
  -0.4307661  -0.4987493  -1.0440786  -0.2877810   0.0683125   0.3094382
  -0.4983930  -0.0610850  -1.1309786   0.6272501   0.4063378   0.9509653
   0.0645454   0.0064952  -0.1633629  -0.3490111  -1.4741545   0.3676080
   0.7992230   0.3171505  -0.0305449  -0.1133668   0.0998714  -0.1796810
   0.2081893   0.7608045  -0.5542534   0.6153413   0.8046454  -0.0381928
  -0.3856755   0.0537801   0.1283104  -0.2635042   0.6953945   0.0399753
  -0.3720575  -0.4171550  -0.9591552  -0.2892572  -0.2891443   0.4416275
  -0.0846471  -0.1859847  -0.5705859   0.3725146  -0.2274750  -0.2901504
   0.1042896   0.0640218  -0.0516096   1.4122723  -0.0505431  -0.2114448
   0.7142633  -0.3132497   1.2888544   0.4465249   0.0611210  -0.1695255
   0.9047849  -1.4153729  -0.0621593  -0.8746094  -0.4941257   1.0726457
  -0.0953605  -0.0509794   0.1598938  -0.6684863  -0.0018720   1.3369611
   0.5087651   0.5246003   0.2062205   0.3661971   0.3019522   0.5233371
   0.0777531   0.8727419  -0.1330004   0.8157965  -0.5709740  -0.5599639
  -0.3831580   0.1383439  -0.1040164  -2.0615259  -0.2774457  -1.1236929
  -0.5114116   0.0462691   0.1679432  -0.0063103  -0.4012104  -0.1193014
  -1.8272608   1.2805424  -0.6912103   0.0383746  -0.0181328   0.0065173
  -0.2395716   0.2359702  -0.2766912   0.4555954   0.7458837  -0.3628559
  -0.3604614   0.2292193   0.9588718   0.1481627   0.3391029  -0.0417619
  -0.3468673   0.2375546   1.1563586  -0.3672992   2.2638672   1.0473169
   0.2497168  -0.1293276  -0.1049592   0.8349225   1.4504533  -1.5371026
  -1.3557236  -0.5311134   0.6865417  -0.1324716  -0.1414250  -0.1771679
   1.8578086  -0.4341963   0.6327466   1.0958225  -1.8055327   0.3095995
  -0.1982971  -0.3441312   0.1168078   0.6712064  -1.4699358  -0.8981372
  -0.2968524  -1.0352135   0.2843417  -0.0326122   0.2109478  -0.3751203
   0.1324857  -0.9015066   0.7244948   0.3921236  -0.0512442   0.8436081
  -0.1220618  -0.1712548  -0.0304722   0.3421647  -1.7931894  -0.9807538
  -0.5616682  -0.0820740  -0.5442982   0.1060249  -0.0448037  -0.1326158
   0.4762293   0.1096484   0.0762131   0.6582889   1.1546596   0.2403796
   0.2756135   0.0766124   0.4860285   0.8708179  -0.8812797   0.2376955
   0.0003746   1.2874961  -0.3289916  -0.1795568  -0.2117826   0.0162616
   1.0894202   0.1747168   0.1251861  -0.0514415  -0.7327541   0.2146268
  -0.0015298  -0.1440429   0.0932623  -1.2148381  -0.5174102   0.5902453
  -1.1110910   0.6602211  -0.1087794  -0.0010338   0.0047673   0.0547785
   0.4679368   0.3026568   1.1990180   0.3013053  -0.7953373   0.0461576
   0.2091598  -0.3286170   0.0089956  -0.3398519  -0.1261621   0.3296319
   0.9367086   0.4035380   0.1086296  -0.0936405   0.0610656   0.1179984
  -1.1789944  -0.3586307  -1.5586966  -0.7159698   1.0254962   0.7680999
   0.2146268  -0.1994683  -0.0435420   1.4174893   0.5388580  -2.3704884
  -0.1432892   1.2551387  -0.7999644  -0.0623612  -0.1542406  -0.3580101
  -0.6306585  -0.5228135  -1.2777939  -0.7650069  -0.4830584  -0.3026467
  -0.1285626  -0.0381192   0.0461300  -0.3512801   0.4812946   0.7039418
   0.7496888  -0.7264729  -0.0777902   0.1314869   0.4063233  -0.1711599
  -0.9720363  -0.9473458   0.0057963   1.2589381  -0.7133448   0.9542251
   0.0085497  -0.0591779  -0.1646904  -0.9873145  -0.8043775   1.1612938
  -0.5246454  -0.0710956   0.2271392  -0.0598185   0.0361946   0.5018230
  -1.0138672   1.0333464   0.1222132  -0.2841337   0.7080832  -0.3477659
   0.0365628   0.2588212  -0.0471428  -1.6171024   0.2118788   0.0651599
   0.4330843  -0.5642314  -1.2048979   0.4496985  -0.1281443  -0.2634801
  -0.0518505   0.4799477   0.3107814   0.5029559   0.6263540   1.0735985
   0.2573160   0.2364310  -0.2546454   1.2675858   1.1832788   0.8409286
   0.3644969  -1.0170426   1.0032812   0.1659127  -0.0511854  -0.0083908
  -0.5612412   1.1502906   0.5079982  -0.2905201  -0.3623020  -1.6308861
  -0.2088879   0.0848466   0.0875003   0.2516061  -0.6888008  -0.5491663
  -0.3527545   0.1810005   0.4885232  -0.2211079   0.0278906  -0.1555948
  -0.4593128   0.1959721  -0.8726050  -1.0140243  -0.2709426  -0.5447502
  -0.0377747  -0.0285402  -0.0185477  -0.6613660  -0.1273720   0.2565913
   0.0930268  -0.1422595  -0.2015796   0.0265902  -0.4521888  -0.2816204
   0.2018739   0.1094888  -0.2266583  -0.1229920  -0.7015098   0.0642971
   0.1506966   0.1849961  -0.1203487   0.3681646   0.7430226   0.7952380
  -1.0298219  -0.6646416  -0.3239421   0.0900486  -0.1458057   0.0809180
  -0.7960259  -0.6314994  -0.2424650  -0.2640074  -0.0023893   0.5373959
  -0.1437089  -0.1795661   0.0491319  -0.7461314   0.0553426  -0.1493529
   0.1368751  -0.5220289  -0.8292984   0.2019773  -0.0994757   0.1296237
  -0.8079345  -0.4470458  -0.5640488  -0.1638113  -0.0713500   0.1528810
  -0.0450390   0.0510561   0.1968165  -0.1067862   0.3246551  -0.0753243
   1.2353893   0.4703940   0.3016833  -0.0529617   0.0853932  -0.0917050
  -0.4873873  -1.0095054   0.3081775  -0.0897663  -0.8363268   1.4751961
  -0.0358973  -0.2674468  -0.4946284  -0.2585949  -0.3650475   0.1111177
  -0.9420716   0.1438151  -1.2912706  -0.0772129  -0.1293069  -0.0925660
   0.5982905   0.7959134  -0.0589278  -0.1296801   0.2184559  -0.6761562
  -0.2695551  -0.3325474  -0.0092063  -1.2096000   0.4451872   0.3887855
   0.6414884  -0.1879386   0.0230618   0.0271689  -0.4727212   0.2202459
  -0.0578726  -0.1710127   1.4694020   2.1848111   0.4748807   0.6453378
  -0.2104634  -0.1671803  -0.0249266   0.8269054   0.2576975   0.5900250
  -0.3639199  -0.0131040  -0.3037159   0.0666245  -0.0757508  -0.1900970
  -0.2556002  -0.7992972   0.5637075  -0.3525654   0.4464073   0.7170446
  -0.0726037   0.0168067   0.3524185   1.1828479   0.2364138   0.5205603
  -0.0288059   0.0024576   0.9979597  -0.1397253  -0.2858989  -0.0714183
  -0.9312450  -1.2422369   0.6584313   0.0948891  -1.2389130  -0.2706935
   0.0441924  -0.1687360   0.0944431  -0.6266172  -0.8388608  -1.1867619
  -0.0178822   0.6270862   0.1901294  -0.1259010   0.0347392   0.2520967
  -0.0375066  -0.7087664  -0.3265950  -0.5084476   0.5419913   1.5197750
   0.0596292   0.1629514   0.1844238   0.3012896  -0.5425498   0.2548772
  -1.2489682   0.4987225   1.0742717   0.4580606  -0.0618882  -0.0767384
  -0.1768448  -0.1191825   0.4364082  -0.8617928  -0.1070944   0.1172887
  -0.0616096  -0.0141735   0.0398896   0.3442660   0.7824228   0.3713449
  -1.8783582   1.1925222   0.3231494   0.2167953  -0.0947847   0.6299603
   1.1218956   0.2052017   0.0448458  -0.0566914  -0.2606032  -0.6593284
  -0.2631304  -0.1770560   0.1540564  -0.1957496   0.8990480   0.2058102
  -2.7567743  -1.5493489  -0.0502097   0.0063947  -0.1258638  -0.0366967
   0.5157109  -0.9265794  -0.4671623  -0.1194225  -0.7754765  -0.1890673
  -0.2920664   0.1217683  -0.0396098  -0.2740319  -0.3830484   0.3232659
   0.1286712   0.2675231   0.5279998   0.1908622   0.0831546   0.2949050
  -0.5980030  -0.4315043   0.8180967   0.5780246  -0.9311170   0.9763040
   0.1186271  -0.0703851  -0.0912604   0.1426592  -1.3487903  -1.1402299
  -0.5158289   0.7850920   0.5663703   0.0561352   0.1538926   0.0522445
   0.0933865   0.0335117   0.0705146   0.2755582   0.9371011   1.0943920
   0.0830979  -0.2342086  -0.0260772  -0.2351736   0.7039602  -1.6282293
  -0.2365685  -0.7780135   0.0108512  -0.1682554  -0.0686882   0.2284810
  -0.5662481  -0.4016670  -0.6155195  -0.7708488  -0.7331614  -0.0961544
  -0.0726655   0.0251971   0.1701168   1.6443110  -1.1019987   0.0566854
  -0.1039736   1.0934262   0.2700190  -0.2206452   0.3306768  -0.1089262
  -1.5744731   1.2503498   0.9085799  -0.3724020  -0.3810882   0.9771479
  -0.0922030  -0.2344450   0.0514991   0.6451132  -1.4828586   0.5638025
   0.1672239  -0.3861929   0.7875321  -0.1507503  -0.3129591  -0.1260155
   1.2229951   0.3798216  -1.2255838   0.1230632  -1.0895955  -1.0639873
  -0.2293906  -0.3443315  -0.2331306   0.5717385   0.6767338  -0.4807738
   0.3973034   0.0023533   0.5111255  -0.1655057   0.0258912   0.1883323
  -0.6177047   0.8226022  -0.3159764  -0.9316735  -0.2873225   0.5642361
   0.1280943  -0.2968838  -0.0588426   1.1243832   0.6191119  -0.0866524
  -0.1080950  -1.3808018   1.4225038  -0.0274190   0.0846443  -0.1754818
  -0.7551083   0.7107632  -1.3504813  -0.3630350   0.1713673  -1.4771532
  -0.2640929  -0.3347974  -0.0111736  -1.5121248   1.0516794  -0.0859970
  -0.9572384   0.4205831   0.9462614  -0.2416641  -0.1594454   0.1019653
  -0.7019707   0.6412109  -0.7546097  -1.4118418  -1.1384180   0.8486204
   0.1629067   0.2268781  -0.1161624  -0.5264138  -0.2260655  -1.6002250
   1.7694749  -0.5280393  -0.1342761   0.2406385  -0.2335312   0.0850662
  -0.6389396   0.1251280  -0.2105687  -0.4137943   0.8803272   1.4495228
  -0.1628137  -0.0729818   0.3943314  -0.3081413   0.5601679   0.2865425
  -0.6649108  -0.3195942   0.4495910  -0.1885035   0.2246895   0.0516524
  -0.0247870  -0.1246658   0.5078086   0.0276470   1.2683366  -1.2470364
  -0.2080989  -0.1894033  -0.3212070  -1.0960678   2.1188530  -0.2874335
  -1.4315296   0.9506536   0.1662699  -0.0657066   0.1617232   0.0434678
   0.1727950   0.0086638  -0.0246786   0.5376321  -0.0125074  -0.0534397
  -0.0647460   0.1700676   0.3726706   0.5628690  -0.1193017  -1.2449035
  -1.8735634   1.2029837   0.3667221  -0.1409345  -0.0551928  -0.0109675
  -0.4922325  -0.2392997  -0.8817704  -0.7669024  -1.2804269   0.1220092
   0.0204751   0.3041205   0.2198972  -0.8982740  -0.0704319  -0.6074014
  -1.7077203  -0.4561706   1.2046746  -0.0397333  -0.0199320   0.4018897
   0.7355351   0.8945725   0.9852665   0.3498466  -0.2021478  -0.1182146
  -0.3607335  -0.0025436  -0.0265337   0.6798754   0.3324597   0.2284732
   0.1470642   0.7922513  -0.6665829   0.2428723   0.0119389   0.0848117
   0.5141442   1.2053962   1.6168498  -0.5984100  -0.3116348   0.2214983
  -0.0603183   0.0157309  -0.0718066  -0.2376285   0.4800781   0.2489801
  -0.5483056  -2.0439451   0.1980304   0.0791954  -0.1365258   0.0398782
  -0.5048650   0.3244686  -0.2075010  -0.5066983   0.1770317  -0.4397532
  -0.1111730   0.0939987  -0.0246294   0.2223396   0.0668008  -0.1564112
  -0.9161905   0.7838922   1.6150505   0.0384114   0.1664391   0.0032562
  -0.9721853   0.4079830   0.0006410  -0.2516441   0.2211358   0.6172844
   0.4630568   0.0499761   0.3779706  -1.3506974   0.3855272   0.6478784
   0.3346470  -0.3630263   0.1139084   0.1902806   0.0679431   0.2636521
  -0.1484731  -0.0023143  -1.0309148  -0.6889938  -0.0114155   0.9018839
  -0.1696366  -0.2291635   0.3615891   1.3470482   1.1642443   0.1926619
   0.7426919  -0.5433550   0.5682546   0.2751081  -0.1114647  -0.2419623
   2.0258211   1.2745691   0.7323594  -1.1755974  -0.8149454   0.0161816
   0.2567201  -0.1215530  -0.2829139   0.6131183   0.8937192  -1.7174545
   0.1329776  -0.5155483  -0.1612405  -0.0379946  -0.1592374  -0.2161764
   0.7798850  -0.4878451  -0.3467765  -0.1319298   0.6379625  -0.0700001
   0.1803199  -0.2655375   0.2804373  -0.7779353   0.8263843  -0.5524225
  -0.1583018  -0.6496383   0.0034951   0.0864883   0.2491309   0.0197196
   1.2660397  -0.4449684   0.2641173  -0.2893666  -1.5676201   0.8372626
   0.0348489   0.2460889  -0.0593587   0.7972474   0.2080931  -0.9510815
   0.0616871  -1.1255001   0.7236185  -0.1871617  -0.4003510   0.0562173
  -0.1559835  -0.4594050   0.6582435   0.2558822   0.6056941  -0.2907744
   0.0373892   0.3330267  -0.0914752   1.1349209  -0.4518188   1.0821076
   0.2989707  -0.7220521  -0.2682050   0.1153925  -0.0541760  -0.0427564
  -1.6962997  -0.3232372  -1.3067021  -0.6033571   0.2991741  -0.3701971
   0.0413796  -0.0234186   0.1719501   0.2315469  -0.2134763  -0.1076619
   0.2578978  -0.3120289   0.0538598   0.2061802   0.2482323  -0.0436689
  -0.9506605  -0.6506425   0.0459760   0.2114541  -1.5479403   0.0123007
   0.0684225  -0.2758724   0.2424647   0.0856025   0.0074188  -0.7474346
   0.8377281  -0.2244577   1.3141932   0.2690792   0.2888635  -0.0062324
  -0.6246613   0.2692064  -0.2547553   0.1637519   0.4673607   1.3339960
  -0.1985391   0.0843454   0.1765518   0.8330443   0.1975900   0.4815532
  -0.1381605   0.5495205   0.1508120   0.1900967  -0.2057869   0.4207931
  -0.5441266  -0.2464723  -0.5972948   0.0331852   1.2441161  -0.1800418
  -0.1705069  -0.0712137  -0.0058063  -0.1758048   0.4264962   0.4437292
  -0.7600307  -0.6764728   0.6741760  -0.0129432  -0.1554126   0.0175677
  -0.1075167  -0.2832923  -0.4444397  -0.7176137  -0.9955784  -0.6069939
  -0.0674744  -0.1407526  -0.2448462   0.7084375   0.6082730   0.0371797
  -0.1849061  -0.2163887   0.0283206  -0.0713167   0.1339485   0.1929180
  -0.5270959   0.0131810   0.3410870  -1.2629254  -1.4006146   0.2238224
   0.0658294   0.0108576  -0.0967523   0.6778761   0.1716762  -0.7497278
   0.0914918   0.1612827   0.2529049   0.0542548   0.0401623   0.2241828
  -1.0742969   0.5771331   0.2832117   0.4583170   0.7713850  -0.3142162
   0.0144387  -0.0900839   0.0728314  -0.0294518  -0.4936238   1.7111569
  -0.3986240   0.2664559   0.1088210  -0.1585589  -0.0075642   0.1028099
  -0.8097992   0.1712125  -0.1129845   0.5488702  -0.4899828   0.3989517
  -0.0623666   0.3779710   0.0229948  -0.7889221   0.1546451   0.4726525
   0.4373928   0.3632357   0.0292465  -0.3016883  -0.1308659   0.0906318
  -0.0980685  -0.0603308  -1.5629634   0.3143009  -0.3031331   1.4829186
  -0.0999354   0.2797371  -0.3224415  -0.4341759   1.3097205  -0.4705240
   0.1690463  -0.3795427   0.6744472  -0.0625050  -0.1712515   0.1286412
   2.3281697  -1.5788770  -0.0292662   0.8859517   0.5415591   0.6066985
  -0.3062781  -0.0333527  -0.1724125  -0.9674121   0.2216227   0.5619993
   0.3464672  -0.8814280   0.3682679  -0.4448927   0.0710155  -0.1088598
   0.3130328   0.5740333   0.6372123  -1.3183246  -0.6503614  -1.8317405
   0.0879544  -0.0552263  -0.5947452  -0.7292279   0.9526331   0.8014428
   0.2574538   0.4257074  -0.7083676  -0.0453069  -0.0824049  -0.0391251
  -0.3316838  -1.2113322  -0.0979622  -0.3697864   1.0369199  -0.6434812
  -0.0483750   0.2806940  -0.0385842   0.9343275   0.6747882  -0.4314232
   0.0866204   1.1206251   0.4360768   0.1237340  -0.1122650  -0.1863856
   1.1413493  -0.8354761   0.5032821  -1.3811533  -0.3989673  -0.0133951
  -0.3687358  -0.1141348  -0.0659886  -0.0056729   0.7493657  -1.2379706
  -0.2454268   0.6921689   0.3861414  -0.0483073   0.1467574  -0.0184768
   0.9369805  -0.1116625  -0.7944603  -0.4376909  -0.0581179   1.1886634
  -0.1898348  -0.1597620   0.1668955  -0.5317473   0.1238631  -0.6333513
  -0.1953665   0.3205170  -2.0416051  -0.1294991   0.2720547  -0.1333956
  -0.7428152  -0.0185264  -0.3907320   0.6052793  -0.4554457   0.6052790
  -0.1593415  -0.1932893  -0.0370704   0.7837929   1.3123036  -0.4415863
  -0.7677164   0.2579216  -0.5306064   0.0918089   0.1887687   0.1212172
   0.6419508  -0.1969967   0.5051492   0.2402545  -0.2880514   0.8039601
   0.0898015   0.2645267  -0.0264841  -0.7084134  -1.8249923  -0.4748413
  -1.0036438   0.0738168   0.8727177   0.2218745   0.1659775   0.0452514
   1.7262977  -0.7433667  -0.5460329   0.5515298   0.2970523  -0.0549157
  -0.2014922  -0.0227346  -0.1311595  -0.1163583   0.5463660  -0.5059866
   0.8112520  -0.2323786   1.1918127  -0.0539331  -0.1115702   0.0858863
  -0.6031089   0.9507985   0.1393277  -0.0776533  -0.5792466   0.9001385
   0.1836475   0.2033975   0.0943680   0.4997294   0.1573242  -1.1223046
  -0.1146522  -0.4411400   0.4330892   0.1719403  -0.0843873  -0.0794794
   1.0495315   0.9543628   0.3348295  -1.9666380   1.2471315   0.7911193
  -0.0438526   0.4676105  -0.0958145   0.7738976  -0.4279541   0.2361379
  -1.7495888   0.8205785  -0.0692294   0.0152689   0.4063791  -0.1603495
  -0.0952599   0.2915093   0.3949578   0.2780062  -0.6793190  -2.3078156
  -0.0042687  -0.4180924  -0.2079924  -0.1564451   0.0355348  -0.9116564
  -0.0377851  -0.3140019   1.8701192  -0.0304008   0.0187209   0.4232482
   0.1333210   0.4028962   0.2216465   1.0776038  -1.2838544   0.3582572
   0.2908150   0.1379211  -0.1033065   0.7973578  -0.6118699  -0.9470509
  -0.1776753  -0.7337841  -0.1413189  -0.1611661   0.5329430   0.0741077
  -0.9986543   0.5927051  -0.4596059  -0.2392180  -1.0102720   1.2221247
   0.1280050  -0.0876268  -0.1110598  -0.9282182   0.1821133  -0.2264022
   0.4152607   0.6489099  -0.3485822  -0.0937138   0.3775912  -0.0169439
  -0.4880995   0.1082209   0.7911357  -1.5019027   0.2989984  -0.4354351
  -0.0237683   0.1902503   0.0558764   0.1137409   0.5080664   0.7990905
  -0.3553162   0.3033710   0.8948109   0.1594293   0.0271593  -0.2034702
   0.9428493  -0.2133291  -0.6833204   0.4841177   0.6595657   1.0717271
   0.1190574  -0.3507570   0.2720369   0.7360842   1.0087504   0.1253290
  -1.6972442   0.0506140   0.7193138  -0.1043722   0.1791462   0.0022711
  -0.6694180   1.0411937   0.5881964   0.9645439  -1.2499622   0.7062259
  -0.3154957   0.2495389  -0.4181600   1.0715924   0.1565272  -0.2446106
   0.2921306   1.3357285   0.9592294  -0.0562823   0.1281629  -0.0532631
  -0.1928949  -0.0915679   0.2223017   0.6368761  -0.4111430   0.6151628
   0.0135866  -0.1036597  -0.0605127  -0.1742944  -1.0558525   0.0760499
  -1.2048650  -0.6826570   0.9699657   0.0584668   0.0358745  -0.2553771
  -0.4783396  -0.0063807  -0.4094003   0.0921710   1.3653736   0.3017909
  -0.1209851   0.0224013  -0.0748046   0.2323769  -0.4748023   1.1120236
  -0.4445326   0.6495777  -1.1855637   0.1673056   0.1007895  -0.0534342
  -0.3521402  -0.7699815   0.4966621  -1.6556909  -0.5695886   0.0811162
  -0.1102271   0.1706886   0.0480000  -0.1001840  -0.0998928   0.8206061
  -1.0582478   0.2651024   0.8659759  -0.3077767  -0.0425179   0.2095587
   0.7060981  -0.2030961   0.5019365   0.2338344   0.9218224   1.2483765
  -0.1110813  -0.0144108   0.1984152  -1.1690149  -0.2516220  -0.4785934
  -1.4174449  -0.0849968   1.1656698   0.0758827   0.1892803  -0.1752551
  -0.0659142   0.1019455   0.3869218   0.8250419   0.7883392   0.5697883
   0.2851825   0.1008238  -0.2836143  -0.5391509  -0.2707694   0.0435497
   0.0317088   0.4889422   1.0147944  -0.3827079  -0.3405801   0.3264187
   0.2672431  -0.3916062   0.9731577   0.9681072  -0.0881987  -0.7026870
  -0.0558244   0.0788205   0.2347442   1.2728848   0.2910584   0.1402455
   0.6479454   0.1100307  -0.4760190   0.4291260  -0.1061775   0.2446521
   0.2478432  -0.7882501   0.7757631  -0.1133014   1.2555116   0.6514146
   0.5125301  -0.0007764  -0.4137305   0.7401528  -0.0879483   0.9875483
  -0.4945489   0.7617950   1.3465867   0.0262567  -0.1761773   0.0364822
  -0.2988917  -1.0720300   0.7963415  -0.9732043  -0.3516836  -0.3209804
   0.1530464   0.0083989  -0.1620032   0.8298142  -1.5260219   0.3813183
   0.1649317   1.0552182  -0.1193068  -0.2226523  -0.1393822  -0.1057308
   1.0003113   0.3637456   0.3873788  -0.4995701   0.2445925  -0.7410299
  -0.2342108  -0.5055539   0.0288808   0.2615233   0.4062807  -1.0318014
  -0.8530827   0.5291477  -0.6072890   0.1398565  -0.3296583  -0.2540397
   0.3461945   1.3475721   0.0242710  -0.1023491   1.2012875  -1.2373974
   0.0634096   0.0510365   0.0369091   1.3489229   0.7823748   0.2230153
  -0.2597680  -0.1265041  -0.6359756  -0.1910449   0.0090065   0.0313070
  -0.6277749   0.2181030  -0.0377605   0.3998485  -0.8397674   0.8984925
   0.1178581   0.1661594  -0.1718421   0.1220197   1.4799612  -1.1118738
  -1.0624563   0.3023585  -2.3096611  -0.3276257   0.1152960   0.2129745
   1.9100729   0.7372681   0.6991985   0.9274537  -0.1840201   0.5393677
  -0.1694834   0.3421681  -0.2423876   0.4546123  -0.3850383   0.5928492
   1.0972055  -0.7850057  -0.6324939   0.1178013   0.0139533   0.0946537
   0.7029934  -1.2791011  -0.0807368   1.4625916  -0.5321119   0.1559017
  -0.0422273  -0.2288243  -0.3391133   0.7179509   0.7482566   0.3898386
   0.0987234   0.5303392   1.3908394   0.0020001   0.0258896  -0.1549676
   0.5056725  -1.0056903   0.1223248   0.3361496  -0.2171239  -0.5000948
   0.0154690  -0.1895261   0.1874881  -0.6247293   0.4125990  -0.6411092
   0.5006644  -1.2193149   0.1904978   0.3268869   0.1771095   0.1233447
  -1.2602838   1.0275209   0.8677226   0.4798874  -1.8586798  -0.9620977
   0.1491824   0.2635980   0.2332208  -0.6582904  -0.1234270   2.1287800
  -0.0224829  -0.7539300  -0.0018695  -0.0883884  -0.0329950  -0.0140050
  -0.9015852  -0.2950488   0.4596982   0.6249354  -0.1069880  -0.1088292
  -0.4022261   0.1257461   0.4608562  -1.1890284  -1.2432324  -0.7838010
   0.2172961   0.8665354   0.5128026   0.0206492  -0.0949005   0.2026780
   0.1026162   0.5039306   0.2172327  -1.0109398   0.8254217   0.5102814
   0.1363138  -0.1029462   0.0646360   1.0881290   0.2567385  -0.7605437
  -0.3907683   0.6978779  -1.4542260  -0.1218746   0.0055511  -0.1114785
   0.6359591   0.5728835   0.4011145  -0.2570599  -0.6534901  -1.4746039
   0.0362527  -0.2993452   0.1149675   1.3974724   0.7379471   0.2478311
  -0.9145912  -0.8214845   0.2287226  -0.1301980  -0.1145397  -0.1191857
   0.9336246  -0.6618669  -0.6490400   0.6742031  -0.3935278   0.3920835
  -0.1068798   0.1064738  -0.2014654  -0.9203560  -0.7161457   1.1987853
  -0.2129683  -0.0979549   0.7180690  -0.2166767  -0.1183035   0.0888968
  -0.5459095  -0.6753455  -0.2736711   0.5057801   0.7632705  -0.9574076
   0.2332124   0.0862189   0.2793008   1.3223836   0.2938747  -0.1472966
  -0.8574322  -0.4108484  -0.3888962  -0.0845679  -0.3194119  -0.4356750
   0.4886200  -1.1589455   1.9250737   0.0082650   0.7309978   0.0687384
  -0.0553034  -0.1727655  -0.0282821  -0.5868142  -0.1701212   0.1300275
  -1.3533026  -0.0467403  -1.0502566  -0.0024683  -0.0404606  -0.1636302
  -0.5989705   0.2022809   0.0039350   0.0776154  -0.5521449  -0.0868710
  -0.1236600  -0.4813106  -0.1141313   0.1111312  -1.1696333  -0.2364923
   0.6672994   0.6312269  -0.2639400  -0.0673681   0.0131065  -0.0664994
  -0.2660321   0.0039911   1.1580632  -0.3173753  -0.1820382  -0.5997470
  -0.2884868  -0.1777528  -0.0841842   0.3629888   0.2156056  -0.0012618
  -0.4145630   0.5563298   0.9974418   0.0092241  -0.1385115  -0.2267764
   0.1679498  -0.2954156   0.8119574  -1.4027618   0.1033872  -0.7322988
  -0.0266827  -0.1231871   0.2153740   0.0280013   0.8205068  -0.6072918
   0.0376552   0.3340720  -0.1009183   0.0387782   0.3633883  -0.0395090
   0.4463801   0.2871225   0.6440768   0.4107592  -0.5488512   1.5589881
  -0.1439768   0.0649289  -0.2047952   0.9120599  -0.2165940  -0.4665678
   0.6354930  -1.1583235   0.6914932  -0.0060500   0.1042715   0.1369829
   0.5469872   0.4426551  -1.0675467   0.8659148   0.0980722   0.6088193
   0.2353625  -0.0338400   0.1041033   0.2635463  -0.0634230   0.5700999
   0.5650435   1.1385484   0.6376033   0.4145607   0.0730652  -0.1922267
  -0.1092888   0.1254057   1.9146379   0.2756243   0.3759431   0.8913040
  -0.5017347  -0.2241481  -0.1464826  -0.7656677   2.1631153   1.0976789
  -0.8404640   1.0400277  -0.1103087  -0.0979739  -0.3683613   0.0938419
  -0.1521258  -1.9934637   1.1920160  -1.1100057   0.4637904  -0.1310872
  -0.1444780   0.0516159  -0.0124491   0.3632124  -0.7876945   0.2356374
   0.9284623   0.6633622  -0.3931044   0.0111341   0.1384233   0.3333665
   0.6271186  -0.1534931  -0.0642000  -0.1424535  -1.2084250  -0.9469800
  -0.1889986  -0.2501038  -0.1153010   0.6104374  -0.4643629   0.3277409
   0.6018682  -0.4132631  -0.0617777  -0.1209968   0.3633815   0.3947015
   0.4638561  -1.3852572   0.8461600  -0.4769200  -1.0411850   0.6331124
  -0.1407005   0.3336699  -0.3237853   2.7283400  -0.0046202  -0.7347815
  -0.3788878  -0.0713572   0.0258516   0.2049765   0.0720002   0.1983160
   0.4342489   1.4948769   0.2691693  -1.2378178  -0.2942138  -0.9843370
   0.1716490  -0.0170477   0.2743226   1.2343715   0.8300054   0.4915832
   1.3772078   0.0277435   1.8941922   0.1118772  -0.0030081  -0.1323656
   0.7512446   0.9979947   0.5482255  -0.2830935  -0.4356769  -1.9627828
  -0.1579547  -0.1576227  -0.1303341   0.2806776   0.2657648  -0.0189869
   0.6941226   0.5003192  -0.6780158   0.0660211  -0.2875887   0.0482904
  -0.3445081  -0.2516859   0.7160930  -1.5661366  -0.1784025  -1.5906475
   0.1791189  -0.0622051  -0.1198440  -0.0706113   0.9862632  -0.0965259
  -1.2173119  -1.2789565  -0.9822913  -0.2266929   0.2548615  -0.0576901
  -0.1304211  -0.1570272   1.1395382   0.1709377   0.6837087   0.7712972
   0.0241226  -0.0080327   0.0129237   0.4141574  -0.0978787  -0.5119883
  -0.1514675  -0.6076694   0.8390274   0.1798676   0.0485235   0.0222634
  -0.1422297  -0.3929739   0.0217036   0.2067944   0.0637713  -0.0730384
   0.3098046  -0.0659551   0.2769312  -0.3536044   1.2715678   0.7539670
   0.3324978  -0.7335241  -0.0985751  -0.1334635   0.2124430  -0.1815262
  -1.1516101   0.5714284  -0.8097979   0.3494914  -0.4279984  -0.7388723
   0.3854949   0.3492004  -0.1784702  -1.0121809   0.4525365   0.7815139
   0.5210843   0.1783644   1.1930210  -0.3264885   0.0479330   0.0766366
   0.4396778  -0.2843118  -0.2575884   1.1422166  -1.5749618   0.2703131
  -0.0177689  -0.2424988  -0.0409295   0.2131644  -0.3980505   0.1978904
   1.6469561  -0.3546135   0.0998061  -0.0033745  -0.1028783   0.1723959
  -1.1201850  -0.2109999  -0.1685075  -0.3363941   0.7622709  -0.5039294
   0.3476141  -0.3234234  -0.0285790   0.3117711  -1.0235925   0.3968651
   1.2041076  -0.3715179  -0.0998404   0.2288547   0.3248834  -0.1487781
  -1.2997814  -0.0357090  -0.1754340   0.7959547  -1.2465142   0.8438909
  -0.1571288  -0.0940641   0.1478046   0.3034247  -1.4870719   0.2937353
   0.2638800   0.3270649  -0.7840665   0.2565982  -0.0086988  -0.1093546
   1.0111924  -1.1809257   0.2591620  -0.6954323   0.6879046   1.9069061
   0.2828718  -0.0772428   0.5363508   0.7446561   1.0789594  -1.1759847
  -1.2828999  -0.1164170   0.7793319   0.5451419  -0.1810348   0.3366623
   0.3299520  -0.4162404  -0.4067352  -0.5745687  -0.0015469   0.0183704
   0.2923891   0.1257688   0.2059509   0.9445620   0.5326151   0.5180761
   0.3168713   0.5045987   0.6498167  -0.2335131  -0.3174663  -0.1649778
  -0.9311038  -0.3396515  -0.1709411   0.9362374   0.5593713   1.7424752
   0.2009460   0.1465334   0.0728606   1.1572996  -0.9600022   0.5857295
   0.3875118   0.5970422   0.0791217   0.1278023  -0.0327995  -0.1186451
   0.9722183   2.1691770  -1.5161365   0.0471226   0.3297899   0.9862934
   0.2462256  -0.1766480   0.3215672  -0.7596975   0.7760903  -1.2754858
  -0.8565886   0.5175296  -0.9802384   0.0588522  -0.0152467   0.0563422
   0.4467355   0.3026897  -0.2738158  -0.4033075   0.1200502   0.3429224
   0.3140845   0.0107075  -0.1320504   2.1539090  -0.0466545   0.5662243
   0.5590386  -0.2336466   0.6652641   0.0948244   0.2777571  -0.3768422
   0.6290649  -1.4828864   0.2024969  -1.1436328   0.1755250   0.3926315
  -0.0375405  -0.2711476  -0.1211275   0.4971477   0.5105150   1.0560424
   1.1468186  -1.2138774  -0.7135066  -0.0067984   0.3090597   0.0075370
  -0.6420948   0.0793448  -0.8868679  -0.3654248  -0.7885422  -1.3882725
   0.1011640   0.1528164   0.0993295  -1.0201194  -0.0192063   0.5964868
   0.5788660   1.1340944  -0.5158979  -0.2087016  -0.0507487  -0.3579098
   1.0496646   0.3615010   0.4601997   0.2387824   2.1175536  -0.5529533
   0.1383251   0.0835323  -0.1417945   0.4108526  -0.7686932  -0.0319344
  -0.2203647   0.2479823  -0.1815596  -0.2704114  -0.0578821  -0.0949213
  -1.1564632   0.0472823   0.6777847   0.4501149   0.2861393  -0.0902268
   0.0336134  -0.1708267   0.4251384   0.8790316   0.4577365   0.3587543
  -0.3905107  -0.2226758  -0.5250237  -0.0636543   0.0387169   0.0895620
  -1.9771020  -0.4045268   0.2552788   1.3944058   0.4058591  -0.4781435
   0.0472030  -0.1016087  -0.0206382  -1.0831817   1.0423877   0.5383698
  -0.2105371  -0.7171339   0.1664522  -0.0387468   0.0531106   0.1086746
  -1.2130234  -1.7483631   0.9198674  -0.4647229  -0.4816922   0.8857343
  -0.1556836  -0.0076896  -0.1710248   1.2476123  -0.6575945   0.8177075
  -0.2514679  -0.1274951   0.1958429  -0.2980029  -0.1768011   0.1426066
  -0.3171637   0.6806894   0.6138936   0.6476278  -0.0762854  -0.1280278
  -0.0582377  -0.2389881   0.4948794   0.6390219   0.8096794   1.6400843
   0.7174088   0.3026215   0.0104308   0.0359764   0.4678524   0.1621471
   0.8248762   1.0774540   0.3768797  -0.1591490   1.0267312  -0.1141378
   0.0591993  -0.1596401   0.0743369   0.6221302  -0.1662770   0.7137078
   0.1342669  -0.9524628  -0.1280877   0.1912512   0.2855756  -0.1166406
  -1.4130351   0.6959837  -0.7927864  -0.8084111   0.0681866  -1.6095940
   0.1632509  -0.4080881   0.2035782  -0.1517911   0.6952520   0.0282397
   0.4626627  -0.5662740  -0.0038038  -0.0010091   0.2798143   0.1476611
  -0.0435537   1.9573638   0.6634745  -0.7557938  -0.8547255   0.9174215
  -0.0379510  -0.1148325   0.3615905  -0.0962185   0.4974015  -0.9816793
  -0.5577423   0.5837032   0.3696552   0.2080582   0.1696871   0.0232069
   0.1693504  -1.5107417   0.8749566   1.5983056   0.3422965  -0.7105990
   0.1351640  -0.1422000  -0.4103611  -0.3833309  -0.1303365   0.4414007
   0.2039966   0.6998556  -0.2438307  -0.1552267  -0.2556858  -0.2371028
  -1.3521477   0.1430605   0.0730674  -0.6769723  -1.0546614   2.3559001
  -0.0159532  -0.1100341   0.0627942  -0.4603642   0.1297665   0.9074804
  -1.3350924   0.2657302  -0.1993189   0.2071483   0.2491663   0.1922176
  -0.3096211  -0.9312246   0.2872907  -0.7613068   1.1999133   0.8380936
  -0.2552047  -0.2192948  -0.2528040   0.9377540  -0.0313934  -0.2150579
   0.5785374   0.9614081   0.8220085   0.3081350   0.0932043  -0.0053663
   0.4666911  -1.0274025  -0.8989895  -0.9186607   0.1629232  -0.4157635
   0.3654732   0.2247560   0.3115787   1.3598122  -1.8527331   0.9127014
   0.6058680  -0.7998471   0.4235822  -0.0844621  -0.2117059  -0.2234849
  -0.5579732  -0.5195008   0.1880886   0.9491038  -0.2444336   0.7218355
   0.1710090   0.1000107  -0.4112107  -0.5480539  -0.2995653   0.2215519
  -0.3517512   1.0250764  -0.0496456  -0.0361294   0.1044728  -0.2140312
   1.0542100   0.0219655   0.3618305  -0.4268405  -0.6447128  -0.4829583
  -0.0431333   0.0153234  -0.0189510  -0.1781323   0.1396245   0.3915517
  -0.0788983  -0.7837024  -0.8008473  -0.0873326  -0.2423862  -0.1765489
  -0.9013335   0.7371692   0.7972548   0.4120575  -0.2328151  -0.7903496
   0.0897047  -0.0531147   0.3958652  -0.1234869   0.8511106   0.5275924
  -0.7753655   0.5630351  -0.6437917   0.0214037  -0.0782531   0.0909236
  -0.3581833   1.4510656   0.5335413  -0.1342917   0.1162898  -0.0824649
  -0.0613210   0.0711129  -0.2789402  -0.2807424  -0.7822992   1.3034934
  -0.3685596  -0.4864245  -0.6103584   0.3206034   0.1089213  -0.1848349
  -0.2202684   0.2183576  -0.4761158  -0.7368474   1.1206343   0.8417145
   0.0205821  -0.0766888   0.0104297   0.1239108   0.0354281  -1.5621346
  -0.7277246   0.0912589  -0.8580935   0.2937816  -0.0627992  -0.0396448
   0.6738299  -1.5358518  -0.5443928   0.0924318   1.1110812   2.0141945
   0.0884483  -0.1667421   0.2958611  -0.5891072   0.4223022  -0.0202808
   0.0993376   0.9950201   1.2204165   0.1781949  -0.2939988   0.2351320
  -0.7722313   0.1253705   0.1840733  -0.6450306   1.6152299  -0.2998098
  -0.0004243   0.0781159   0.1541440  -0.5453362   0.2663043  -0.1052634
  -0.1494766   0.1637969   0.2147476   0.2433344   0.0167755   0.3894717
   0.6528618   0.7664507  -0.3508718  -0.6697225   0.6048713   0.3470521
   0.0518695  -0.1321020   0.3031521  -0.4192061   1.8596445  -1.4349621
   0.1517175   1.0887588   0.5062712   0.2496691  -0.2239181   0.2415760
   0.1937583   0.0964741   0.1584872   0.9130059   0.1612524  -0.1531551
  -0.4100820   0.3878026  -0.1379187   1.9604003  -0.6194519   0.4052967
   1.0039543   0.0304565   0.0666542  -0.1957491   0.1833298  -0.1351510
  -2.0872860  -0.6856958   1.1706483   1.1705539  -0.1919629   0.0602480
   0.1167507  -0.2306861   0.2712257  -0.6347237  -0.4188641   0.6076526
  -0.9963645  -0.3982109   1.2961087   0.4042967  -0.1490431   0.0536148
  -0.5109176   0.7269577  -0.1347250  -0.2089496  -1.1120424  -1.3915923
  -0.1458912   0.0465929   0.0938842  -1.4599328  -0.7666626  -0.3035806
   0.8054039  -0.7973101  -0.8956110   0.0791544   0.0923738  -0.0992326
   0.5744613  -0.8878746   0.2405863  -0.4966678   0.0995605  -0.7697919
   0.0226340  -0.3854394  -0.0937147  -1.0819087   1.0615020  -1.2916601
   1.3966662  -0.8636215   0.8353755   0.1555995  -0.0649410   0.3970676
   1.2635747   0.5673206   0.4586612   0.0959326   1.2305136   0.3681632
  -0.0086881   0.3028577   0.1399424  -0.3109715   0.6346255   0.0590244
   0.7015196   0.0294495  -0.1989844   0.1481188   0.4665642   0.0079192
  -0.5190393   0.1150904  -0.6820414  -0.7384811   0.7036558   0.6894279
  -0.2951874  -0.2837614   0.0821481   0.5136454   0.6020561  -0.7089854
  -0.3116933  -0.1566283  -1.0306774   0.1743410   0.0350889   0.0354671
  -0.4591533  -0.9725618  -0.1140113  -0.6227175   1.2788823   0.0389976
   0.0223278   0.0036362   0.3951881  -1.2087325  -0.9976783   0.1349272
   0.7705364   0.5978967   0.2749416  -0.0308174   0.0000881  -0.1623509
   0.3290186  -0.2344692  -0.8849149  -1.0826257  -1.1662344   0.3443487
  -0.3394740  -0.0768930   0.0466088  -1.1310665   0.1955679  -1.3556318
  -0.4727712  -0.5042354  -0.1846142   0.2056999   0.0905348  -0.1243009
  -1.1263079   0.1655591  -0.2839375  -0.5712316   0.6553332  -0.6876668
   0.2229142   0.1218477   0.2756968  -0.4094244  -0.1237507   0.0767254
  -0.7330433  -1.2871029  -1.0832704  -0.0298032   0.0245865  -0.1461734
   0.2970386  -0.4249156  -0.8609465   0.6041172  -0.3430574  -0.1172365
   0.1828103  -0.0923300  -0.4883776   0.1659592  -0.4166201  -0.4040487
   1.0877058   0.1480629  -0.1627393  -0.2265460   0.1741750   0.1893794
  -0.0350749   1.3009425   0.2399539   0.5653971   0.1634611  -1.4353720
   0.0513504  -0.0553245  -0.1921730   0.0206889   0.2524136  -1.1681227
   0.7305336   0.1491658  -1.3671257  -0.1028085   0.1892045  -0.0844776
  -0.0323516  -0.2962156  -0.3617875  -0.2475725  -0.3385299  -0.4482121
   0.6056989  -0.3892138   0.0807054   0.6019596  -0.0813690   0.9753865
   0.2257284   1.1224200  -0.7876440   0.0467507  -0.1993596   0.2499030
  -0.8383898  -0.5513561   0.6767714  -0.4856295  -0.8784575   1.5009687
  -0.0345991  -0.2367985   0.2120004   0.0200156  -0.3835422   0.0364559
   1.1040896  -0.1497265   0.5034029  -0.0339313   0.1385416  -0.0826915
   0.2516199   1.8582720   1.1134202  -0.0077753   0.3386592  -0.6130485
   0.3235321  -0.0843210   0.2739121   0.6194366  -0.3449732   0.1433778
   0.6330984   1.7452897  -0.9740832   0.0414418  -0.3263822   0.0353549
   0.4006096  -0.5771003  -0.1850946  -0.6060052  -0.9492930  -0.1380015
   0.2105813  -0.0375899   0.0335941  -0.6839394   0.1361131   0.6624318
  -0.1883341  -0.8091567   0.5428394  -0.3325424  -0.0985060  -0.0367018
   0.0570420  -1.0467431   0.4954779   0.3497060   0.4544073   2.0720667
   0.1022376   0.2872727   0.1043092  -0.0962839  -0.0554554  -1.0788993
   0.1679265  -0.6181192  -0.1929253  -0.3579338  -0.0124041  -0.0295815
   0.5572507   1.0795155   1.4901056   1.5221059  -0.2310600   0.0277344
  -0.1839089   0.0263689   0.2670425  -0.4697390  -0.4520012  -0.6378741
   1.4490650   0.0172283   1.5326606  -0.3012582   0.0228474  -0.0310666
   0.5091918   0.2471145  -0.6249339  -0.2600446  -0.7860147  -0.5661679
   0.2584671   0.1706166   0.1984802   0.7578394   0.6657388  -0.2392626
   0.2707170   0.3274424  -0.0096824   0.0958964  -0.1060170  -0.0476071
   0.7627932  -0.5990222  -0.1092463   0.7437140  -0.0767045   0.3741148
   0.0390028   0.1691958   0.2166771   0.4722764  -0.4817810   0.9086276
  -2.5964360   0.8560543   0.7096898   0.0773789   0.1497749   0.3477806
   0.8075524  -0.8080866   0.7203360   1.5648270  -0.6287143   0.0558764
  -0.0451264   0.0755848   0.1456350  -0.3645673  -0.3068649  -0.1168291
   0.0974747   0.5028130   1.5835647   0.0411260  -0.2923318  -0.0276832
   0.8499474  -0.5759098   0.9499748  -0.6709562   0.0414369   1.1552415
  -0.1643475  -0.0584669  -0.1866516  -1.3283780  -1.8129139  -0.0855763
  -0.2908462   0.2249601  -1.0293395   0.3093987  -0.0443573   0.1933098
   0.6738572   0.9942380  -0.2090042  -1.1018423  -1.0682189  -1.4296938
  -0.0349120  -0.0932419   0.2706582   0.2011648  -0.7731594   0.7902519
  -1.4106704  -0.5621644   0.7517902  -0.1290961  -0.0128372  -0.0946307
   1.0807663  -0.6936936  -0.6357258   0.4624638  -0.5700062  -0.5777238
   0.4330757  -0.0420123  -0.3593018   1.1705158  -1.0608940   0.5759672
   0.2171349   0.0172872   0.3567382   0.2447300   0.0886007  -0.0553113
   1.0478169   0.6582731   1.7083522   0.6473644  -0.2939041  -0.8022514
  -0.2739153   0.1856716  -0.0416519   1.1274750   1.0318693   1.5688352
  -0.9575993  -1.4451619   0.0280115  -0.0348353   0.3256804  -0.1995209
   0.3295520  -1.1547683  -0.9087372   0.2491850   0.0718046   0.4230025
  -0.0117838  -0.3699976  -0.1084273  -0.2311001   0.4819775  -0.3606365
   0.1454095  -0.1643122  -0.1954741  -0.0089272  -0.2367121   0.1661481
  -0.4220095   0.2021331  -0.6950429  -0.1165798   1.2379964   0.9180369
  -0.5262343  -0.1516845   0.0649822   0.9166517   0.6408390  -0.8484365
   0.8016286  -1.0159500   0.2586337  -0.0230306  -0.1376227   0.0481547
   0.2407188   0.3095259  -0.9355809   0.4425641   0.1672221   0.3435877
   0.3974878   0.0828552  -0.1048838  -0.3942785  -0.3754880  -0.0894816
  -0.4497373   0.5213957  -1.1096584   0.0525076  -0.0936422  -0.0896686
  -0.2316861   0.0761285  -0.5398326  -0.7386093   0.4709043   0.1238926
  -0.0909743   0.0531461  -0.1033299  -1.1234814  -2.3939466  -0.5054694
  -0.1925934  -0.3150960  -1.2037862   0.0996578  -0.0562491  -0.0627484
  -1.8923952   0.0656622  -0.3299736  -0.1259138  -0.1877546   0.1549339
  -0.1331488  -0.2347425  -0.1204699  -0.2005980  -0.6444165   0.8067561
   1.1538667  -0.3409295  -1.1718251   0.5188008  -0.1488209   0.0875882
   0.2588694   0.0679042   0.2173950   0.2216972   0.5154937   0.5018508
   0.1281462  -0.1860242   0.0541303  -0.1596754   1.5958412  -0.2810108
  -1.0742491  -0.5562783   0.1520832   0.2509251  -0.1184027  -0.1649948
   0.3092078   0.0218436  -0.2039083  -0.3306252   1.2186385   0.5123750
   0.2745192  -0.3271887  -0.1060135  -0.0371279   1.6931823   0.1460476
  -0.4296567  -1.6537636  -0.2672574   0.2365583  -0.0322570  -0.1475036
   0.2027811  -1.0393060   0.0413064   0.3135471   0.1782770   0.2512856
  -0.1650334  -0.2184119   0.0814062   0.5857737  -0.0005716  -0.9429109
  -0.2923472  -1.2957643   0.5690654  -0.1637402   0.0938010  -0.1793509
  -0.0569341   1.5399522   0.7234082  -0.5007147   0.5803986  -0.5816737
  -0.0088430  -0.0753516   0.1202963   1.5495044  -0.5443707   0.5823701
   0.1698065   0.1971217  -1.4768914  -0.1599892   0.0266170  -0.1063186
   0.9093486  -0.1355394   0.2603169   0.8470016  -0.1495501  -0.7425299
  -0.0776285   0.0506954   0.0885357  -0.5892775  -1.5963017  -0.3874151
  -0.2522564   1.5367848   0.5466320  -0.1535295  -0.1071655  -0.1044365
  -0.4259755  -0.2058511  -0.0140351  -0.7631622  -0.1617465  -0.8409723
   0.0538312   0.0578454  -0.1390872  -1.6415750   0.2655336   0.6733818
   0.3895891  -0.5642064  -0.8622126  -0.1294352   0.0235900  -0.0895939
  -0.9376247  -0.6612739   0.7777176  -0.4319361   0.2680383   1.3277069
   0.0382458  -0.1023201   0.0046629   0.1474985  -0.7821750   0.0117796
   0.2580223  -0.0629363  -0.6325456  -0.0460566   0.1598563  -0.0197602
   0.2996932  -0.2944949  -0.6491279   0.2805474  -0.6910828  -0.8412786
   0.2996053  -0.0742340  -0.0088991  -0.2028234   0.1405564  -0.8185251
   0.8854740  -0.0165274  -0.0351206  -0.1011406  -0.0619356  -0.1226963
   0.1039882  -1.5209202  -0.0545097  -0.0255640   1.2130671   0.6468729
   0.0755832  -0.2444311  -0.0494994   0.4430687  -0.0930302   0.3954571
  -0.8124732   0.5300629  -0.1261324   0.2644772   0.1530985  -0.0230232
  -0.3081253   0.6743370  -0.9783828  -0.1299273  -0.4265761  -0.4369933
   0.2823078   0.0352644  -0.2747659   0.9505099   0.4345865   0.2986836
  -0.2915443   0.2646001  -0.3521124  -0.1580102  -0.1680868   0.0198912
  -0.5366400   0.1434655   0.0259201  -0.6446194  -1.0961188   0.2795438
  -0.3496336  -0.1469518  -0.2673330  -0.2598691  -0.2326209  -0.5586992
  -0.3448058   0.2591311  -1.9369702   0.1662235  -0.1604790  -0.0647838
  -0.5704098   0.4662302   1.0115375   0.7967960  -0.3768967  -0.5734919
   0.1178235  -0.0627316  -0.0289000   0.4964691   1.7534881  -0.6754963
   0.3774365  -0.4802386   0.9843017  -0.2218995  -0.0801298   0.1871452
  -0.8090401   0.7256696  -1.3914937   0.1241820   0.0180184  -1.3562685
   0.1154107  -0.1580513  -0.0897719  -0.7840371  -0.4620383  -0.3893477
  -0.4307279  -1.4003668   0.0733306   0.0684238  -0.1496538   0.3164966
   0.3564936  -0.8060181  -0.0654376  -0.1524142  -0.4156902  -0.5035378
   0.0212486  -0.2370647  -0.2047489  -1.4929621  -0.4644672  -0.1659203
  -0.1500009   0.6300261   0.1512824  -0.0888628  -0.0642009  -0.2167475
   0.1875053   0.2595741   0.5285681  -0.3050735   0.6873680   0.2253523
   0.0325739   0.1255468   0.0702761  -0.0935458   0.1984677   0.4323351
   0.7501913  -1.0787640   0.7708556  -0.0134337  -0.3149644   0.1834480
   0.9476565  -0.4429347   0.9148869  -0.6353886  -0.5767632  -0.2618735
   0.4455582  -0.0293735   0.0250861  -1.4036383   1.1936976  -1.3692894
   0.7869139  -0.0145850  -1.0665819   0.0792585   0.0119821  -0.2279676
  -0.1929343  -0.3690442  -0.5418325   0.2615650   0.0908728  -0.6091381
   0.0672066  -0.0429052  -0.3368331   0.2440122   0.3880674  -0.7727465
  -0.5676188   0.6766697  -0.3233995   0.0224662  -0.1383274   0.2365064
   0.1360882  -0.1414365  -0.1119750   0.0953768  -1.1932023   1.0229761
  -0.3762954  -0.0480142   0.3312397  -0.5375488  -0.6678883   0.0165925
   0.2885244   0.2122773   0.9740628   0.0925514   0.2533115   0.2512464
  -0.7580627   0.4994059  -0.8857636  -0.1965624   0.2448214   0.7684283
   0.2109073   0.0277722  -0.1039960   0.0733179   1.0210697   1.7210174
  -0.2455381  -0.4432306   0.5324803  -0.1315360   0.3561994  -0.0196466
   0.6252998   0.5708146  -0.1851406  -0.3834111   0.6436418   0.6279283
   0.0711459   0.1480319  -0.1928620  -0.4953264  -0.3508272   0.7662889
   0.0033820   0.9731732  -0.7685790   0.4056379   0.3689939  -0.2878466
  -0.1419373  -1.2304119   0.3803796  -0.7207920  -1.1270645   0.2855981
   0.2336133   0.3558198   0.3679793  -1.6442682  -0.0443405   0.6521386
   0.3214936  -0.6790377   0.3079045  -0.1679281  -0.0089814  -0.2978405
   1.4338957  -0.5061528  -0.6876852   0.9241742  -0.4331113   0.2279496
  -0.1270402   0.0835883  -0.0604329  -0.2627249   0.1724844  -1.0301605
   1.4162295   0.4932895  -0.8286979  -0.2457699   0.1707416   0.3283011
   0.8618737  -0.2600705   0.3610787  -0.4190594   0.0070854  -0.5898342
  -0.3061257  -0.1263341   0.0898675  -0.4644339  -1.3913219  -0.7080941
   0.6637891   0.6410160   0.9776894  -0.0581293   0.0303276  -0.0168532
   0.6427394   0.8903959   0.7734563  -0.3009327  -0.8989645  -0.5689664
  -0.2140924  -0.1039390  -0.1388180  -0.3803520  -0.7677817   1.0172583
   0.4187628   1.5510326  -0.3779538   0.0677019   0.1200789   0.4889247
   0.3686100  -0.1911619   0.2314780   0.4122244  -0.4838528  -1.2421797
  -0.0593989  -0.0610172   0.0343549   0.0172434   0.9980326  -0.5651445
   0.9266528   0.5353632  -0.2116859  -0.0159601   0.1320728   0.0931881
   0.2373544   0.2258330   0.0436854   0.7852415   1.0272318   0.8263324
   0.0554178  -0.0370493   0.0764302   0.5922885   1.4973995   0.7375683
  -0.9469810   1.2135546  -0.7724453  -0.1530550   0.1842398   0.5620168
   0.1032486   0.4496179  -0.4591545   0.7134590   1.1822433   0.3395414
  -0.0063141   0.0542814  -0.0285204  -0.3525460   0.6618170  -0.5463828
  -0.0183072  -0.1263294   0.7222945   0.0202792   0.2290163   0.1633891
  -1.1617168  -1.0068657  -0.5106006  -0.0156765  -0.7222701   0.0769393
  -0.2310883   0.1423690   0.1727777  -0.3158757  -0.6836515  -1.5440336
  -1.1112113   0.2176429  -1.9675285  -0.0358095  -0.1681513   0.0891896
  -0.7481078  -0.3392471  -0.0766151  -0.8098531   1.7691414  -1.0394670
   0.0462135   0.1244228   0.0645343   0.0924206  -0.2214640   0.7295493
  -0.1670750  -0.7309286  -0.1485118  -0.0110883  -0.0132084   0.1129169
  -1.0000306  -1.5939161   0.5419276   0.2415254  -2.2532146  -0.1473390
  -0.0341408  -0.0961189  -0.0863271  -0.4020549  -0.0413386  -0.2034261
   0.3635453   1.3562693   1.0289845  -0.0585518  -0.0037894  -0.0458409
   0.0608393   0.8580626   1.1821569  -0.7632818   0.1220039  -1.1016668
  -0.3016010   0.2076616  -0.5582048  -0.6944166  -1.5532714  -0.7902204
   1.1568318   0.4351825  -1.5413172   0.1244464   0.1569012   0.0242152
   0.7697038   0.9287154   1.0755674   0.6477316   0.9903274   0.9865929
   0.2260900  -0.0969253  -0.1630396  -0.8541245  -0.5689740   0.5910123
   0.2970303   1.1550901   0.7684661   0.1858305   0.1123293   0.2281209
  -0.6381931   0.1813864   0.4493007  -0.9637356   0.1076805  -0.0707926
  -0.2172913   0.0345740  -0.0835419   0.2716763   0.4617709  -0.4010874
  -0.0489586   0.2757334   0.9179401  -0.0388329   0.1000548  -0.1099646
  -0.1179938  -0.1262595   1.0876744  -0.0684959   0.4116857  -0.4257671
  -0.0270426   0.0252558   0.0943254  -0.7559390   0.9340811  -0.5271076
   0.0060733  -0.9977616   1.0625854   0.7130240   0.0219124   0.0059584
  -0.1138281   0.7994792  -0.0190149  -0.8532969  -0.2552915   0.4537798
  -0.2302491  -0.0783795   0.0058838  -0.7514282   0.5357183  -0.5496753
   0.1993380  -1.1726564   0.0940579  -0.0241328  -0.0056855   0.0451289
   0.0764961  -2.7353855  -0.1721812  -0.8443555  -0.1256699  -0.6610164
  -0.1701396   0.1305881  -0.0296615  -1.1781355   1.5837453   0.5057236
   0.8693251   0.7745494   0.8882949  -0.1921364  -0.1517940   0.0714001
   1.1755776  -1.1902159   0.1458967  -0.0878244   0.1524620   0.0816036
   0.4321046  -0.1148528  -0.1471257  -0.9403593  -0.3036080  -0.8298223
  -0.4448646  -0.8894258  -0.9246610   0.1173400  -0.0949728   0.0898109
   0.1086209  -0.6398412  -0.1642212  -0.5729382   0.2467882   1.2489323
  -0.2343536   0.1685590  -0.1304401   0.7415399   0.6731666  -0.1000945
  -0.3424358  -1.1146677  -0.8753800  -0.1005870  -0.1403063  -0.0074131
  -0.4054320   1.0833883  -0.1392683  -0.1706114   0.3089087   0.0566858
  -0.2891879   0.1525697  -0.3451004   0.7107242   0.3610994  -0.2828139
  -0.3640547   0.6319747   0.3412461  -0.1791058  -0.2568716   0.1742780
  -0.6737999   0.5973819   0.5675772   0.3901392   0.0230157   0.4975044
   0.0522267   0.1949310   0.1154799  -0.0503420  -1.1709888   1.1305676
   1.5333731  -0.2364110   1.0864262   0.1756773  -0.3206104   0.2118128
  -0.5782546   1.0794759   0.1790730   0.9044321   0.4833409   0.4068317
   0.0043230   0.0602468  -0.1201120   0.4803172   0.2702197  -0.7127361
  -1.3058779  -1.2873157   0.3834254   0.3257441   0.3747429   0.1035569
  -0.4463923   0.2416437  -1.4304969  -0.2802994  -0.6488944  -0.5867772
   0.1512344   0.1701988   0.1060898   0.0455902  -1.0685374  -0.1031135
  -0.5409193   0.5938031   0.2337524  -0.3041119   0.0218923  -0.0790989
   0.2559047   0.7089975  -0.9970434  -0.1241970   0.7454269   0.2678275
  -0.0307113   0.0209749   0.0655194  -0.8682872  -0.5304659  -0.2659277
  -0.1148205   1.0051697  -1.4803120  -0.1589249  -0.1561054   0.2420998
   1.2132968   1.0356650  -0.8025275   0.7752686   0.8344177   0.8883256
   0.0398877   0.0540966   0.1854640  -0.7068949   0.8003663   0.3712850
   0.7103128   0.9577170  -0.9919876  -0.3034453  -0.2157885  -0.2093537
  -0.6660349   0.1322336   0.4776465  -0.6122515   0.0867968   0.5410998
  -0.1035400   0.1149704   0.1791539  -1.6281898  -0.1868393   0.6316348
   0.8849136  -0.5451333   0.4851996   0.2506970  -0.5686778   0.0976067
  -0.0316552  -0.0149800  -0.3406949   0.6463719  -1.1528913  -0.5345856
  -0.0255413  -0.1291610  -0.1941610   0.7133732  -0.4055467   0.5048047
  -1.2024669  -0.1820834   1.2328940  -0.0575472  -0.0153409   0.1609406
  -1.1891179  -0.6003787  -1.4348320   0.3612975  -0.1283011   0.1480272
  -0.0305506   0.1187219  -0.0114414   0.0848461   0.1056592  -0.5334474
  -0.4808903   0.5622311  -0.5671597  -0.0223286   0.1680955   0.0871146
   1.2561474   0.2025039   0.2779247  -0.1231092   1.1663905  -0.0628799
   0.0472425   0.1038951  -0.0162216  -0.1846947  -0.2522451  -1.0833856
  -0.3854248   0.1082603  -1.0642262  -0.0900834  -0.3815186  -0.2091039
   0.2454681   1.0218032  -0.3989953   0.0821521   1.1244265  -1.6231881
  -0.0402117  -0.0841023  -0.1049144   0.1979837  -0.2787960   0.5230595
   0.9679215   0.1801311   0.1764671  -0.1832297  -0.1974824   0.0851297
  -2.2067146   0.0662307   0.4605929   0.5784362   0.1643814   0.7735374
   0.0360844  -0.0280929  -0.1818273   0.1940223  -0.1098588  -0.2590997
  -0.9497384   0.4808852  -0.7874476   0.1871633  -0.0971424   0.1128953
  -0.2131417  -0.2214864   0.3039853   0.7028157  -1.4414348   1.1100573
  -0.1632989  -0.2316268  -0.0292154  -0.7804942   0.1211986  -0.6322489
   0.4927732  -0.1512364  -1.2570262   0.1010902   0.2025856   0.0387268
  -1.3291161  -1.1791516   0.2731419   0.4139825  -0.4372929  -0.4491394
  -0.0529644   0.1829355   0.2210472   0.8555126   0.6005950  -0.9317276
  -0.0420414   0.7595082   0.3163848  -0.0415944  -0.0102635  -0.0356132
  -0.4896311  -0.4707096   1.1228827  -0.5969006   0.9073636  -1.3116965
   0.0671401  -0.1620190  -0.0038525   1.7090480  -0.4169401  -0.9562229
   0.0025178  -0.0435122   1.2388296   0.1970637   0.0328420  -0.2528908
  -0.4327683   0.0463342  -0.1662074  -0.1667863  -0.2444530   0.1869411
   0.0244096  -0.1710156  -0.0083212   0.4323063   0.9471493  -0.6658151
  -1.2388220  -0.9819503   2.1366122   0.1834161  -0.0423242   0.0605843
   0.1458376  -1.6787111   2.0934626   0.5571517  -0.2183634  -0.8276504
  -0.2150637  -0.2369174   0.2605128  -0.0380214   0.7252551  -0.0541329
  -0.7797787  -1.2532055  -0.1301423   0.1755757  -0.1598471   0.0029324
   0.1422800  -0.4432134   0.2975438   0.7967123  -0.2926104  -0.3304613
  -0.0355382  -0.1002006  -0.2883276  -0.4766089  -2.3246000  -0.7415529
  -0.3565735   1.1064373  -0.8788853   0.0824350  -0.0239464  -0.1403730
   0.1146045   0.0963478   0.2556962  -0.1399091  -0.2798359   1.0427313
   0.0407688   0.2651148  -0.0960917  -0.0261594   0.1042414  -0.2097385
   0.2166809   1.0041439  -0.5804298   0.2848379   0.2342518   0.1015716
   1.5653501  -0.4912372   0.7145694  -0.7325951   0.8241266  -1.2488756
  -0.0704740   0.1875833  -0.1342760  -1.2071453   0.6861297   1.2049770
   0.3644215  -1.1476594  -0.9099853   0.5906181   0.1823099  -0.0917568
   1.2038169   0.2375343   0.4034282   0.6080912   0.2786882   0.4164727
   0.1190798  -0.0459469  -0.1285792   0.3396481  -0.1665165  -0.6837721
  -1.6654453   0.0357014   1.2500416   0.0729313  -0.0607920   0.2190707
  -0.4899870  -1.6544349  -0.7770522   1.3528467   0.6920163   0.3072451
  -0.1414259  -0.2796460   0.0544881   0.1251238  -0.3320636  -0.7176287
  -1.1288532  -0.0796709  -0.4432132  -0.0411406  -0.3475951   0.0484097
   0.2315884   0.9693307  -0.5425367   0.4520305   1.0008328   1.5947893
  -0.1060446   0.3638169  -0.3333166  -0.3810385  -0.6357596  -0.0702211
   0.4533970  -0.3207129  -0.4566302  -0.1585722   0.0773681   0.1875798
   0.5379011  -0.5032900   0.2064263  -0.2684073   0.3805565  -0.6836208
   0.0219495   0.1581196   0.1954462  -0.3471389   0.0631154   1.0836378
   1.0843521  -0.1268595  -0.2575157  -0.1132393  -0.2142746  -0.0913890
   1.4512780   0.9383692   0.5789449   0.8870582  -0.4021001  -0.7101980
  -0.0982099  -0.0142119  -0.1274469  -0.8710649   0.5468066  -0.5994554
   0.2719406   1.2809350   0.5506782   0.1267099   0.0639881  -0.0106861
  -1.5014463  -0.0551951   0.2089955   0.0245593  -2.2779559  -0.4909725
  -0.0152108   0.0940184  -0.3893415  -2.0386072  -0.9674434   0.3163796
   0.9484509  -0.2746095   0.6941067  -0.1815588   0.0091719   0.1680089
   0.6062929  -0.0849869  -0.2302824  -0.3196072   1.2897678   0.2365295
  -0.0229716   0.0380908  -0.1807835   1.8793137  -0.4470034   0.3566979
   0.4886401  -0.2368094   1.2266850  -0.0947597  -0.1968911  -0.0069861
   0.5290497  -0.5780220   1.2846069  -0.4302928  -1.1085541   0.4669277
  -0.4146063   0.1804967  -0.0872167   0.1475997   0.2878854  -1.5893657
   0.4723302   0.2619428  -0.2625908   0.3402615   0.3062146   0.1169695
  -0.0122535   1.6702354  -0.8960569  -0.4945984  -0.5972501  -2.2002466
   0.0638360  -0.0319136   0.0951095   1.0927589  -0.3076729  -0.9355606
   0.3097889   0.4787192   1.7501990  -0.1820588   0.1615564   0.1862413
  -1.2609971   0.0363249  -0.6848442   1.1302001  -0.4930699  -0.0767775
  -0.2403357   0.1621940   0.2492577   0.7037530  -0.2343910   0.0375314
   1.1028347   0.9162644  -0.3201057  -0.0028282   0.1261160   0.0189216
  -0.7072811   0.4172625  -1.5023154  -0.4662139  -0.2359861   0.1744799
   0.1903187  -0.0175289  -0.1781908  -1.0676944   0.5393285   0.0211311
  -0.1984123  -1.1906163   0.8838181  -0.3183722  -0.2798827   0.3423327
  -1.1302457   0.3896986   0.6712888   0.2189617  -0.2410593   0.6272227
  -0.0700024  -0.2383981  -0.3518099   0.9849573   0.3660230   0.2029118
  -0.3033836   0.5119423   0.5121543   0.3432974   0.2230542  -0.2546964
   0.9619691  -0.5459984  -0.0620243  -1.5351598   0.3983450  -0.8911674
  -0.0791736  -0.1021778   0.1059017  -0.2930089   1.2227746   1.3726555
  -1.4854721  -0.8836060   0.5366078   0.0713691  -0.0671417   0.2231202
   0.4828748  -0.5850368  -1.3359031  -0.0917429  -1.8950520   0.0728776
   0.1920504  -0.1061364   0.1827463   0.3680463  -1.3234852  -0.8620487
   0.3177813  -0.9630893   1.4382442   0.3704590  -0.0558187  -0.0148617
  -0.8995876  -0.4460839   1.6122048   0.7125200   0.3586683   0.5514167
   0.1337682  -0.0254904  -0.0086561   0.1706689  -0.8640930   0.5672373
   0.5054733  -0.1234974  -0.0863697   0.1507095   0.2857168  -0.4118815
  -0.2830166   1.2788177  -0.2162506  -0.5497070   0.4533081  -0.3769496
  -0.2833912   0.0585042   0.2670858  -0.1708820   0.9514661  -0.0553662
   0.8940418   0.0458788  -0.2883858  -0.2254114   0.0763220  -0.1687291
  -0.9719225  -0.4920087  -0.0021415   1.3458906   1.4170848   0.2011952
   0.1299028  -0.2771166   0.0170991  -0.9180404   0.8023714  -0.5985067
   0.0747186  -0.2249184   1.6439574   0.3724865   0.0624098  -0.2801703
   1.6872145   0.1491953   0.4069388  -1.6816810  -1.4963971  -0.2933373
   0.0133668  -0.4083810  -0.0198493  -0.4573108   0.8411759   0.5180743
  -0.6091359  -0.3120915   0.2574025   0.2249515   0.0009695  -0.0307797
   0.2427996   0.7505696  -0.3377774  -0.8077206   0.2539878  -0.4897914
   0.0907007  -0.0285524  -0.0610676  -0.0526763  -0.5549962  -0.4677223
   0.3799115   0.5332168   0.5220679   0.1700780   0.2178406  -0.1598091
   0.2848172  -0.7178357   0.7036090   0.0057163   0.6215998   0.5573737
  -0.0322953   0.1661185  -0.1265219  -0.3058867  -1.1852965  -0.3419814
   0.1541589   0.0762674  -1.0769148   0.2172107  -0.1936374   0.0798148
   0.7470142   0.2543295  -0.3188931  -1.0397248   0.1824988  -0.3397619
  -0.0755962   0.0382286   0.2887408   0.9570154  -0.2158969  -0.6261406
  -1.1047982   0.9808336   0.7576179  -0.0606472   0.2934370  -0.0653954
   1.0462718  -0.5096969   0.6752424   1.4183149   0.0584366   1.2929804
   0.2806799   0.0448297   0.0594099   0.3192817  -1.1671126  -0.2417408
   0.8709598  -0.0024870   0.2364689   0.0145237  -0.3055667   0.0909473
   0.7598512   0.0693595   1.3881381   0.2632178   1.0814548   1.2834738
  -0.3235237  -0.0230541  -0.0143618  -1.0059601   0.0727430   0.2617221
  -0.5664913   0.1782311   0.4104346  -0.0200587   0.0029497   0.2087132
   0.1032973  -0.4017116   0.4484323   0.0258051   0.3496038   0.8943769
  -0.0656993   0.1362603   0.0666627   0.7620240  -1.3154420  -0.8879854
   0.7526135  -0.1198650  -0.6764080   0.1245622   0.2305099  -0.1883369
  -0.3969630   0.0667597  -0.9938081  -0.5087742   0.9862624  -0.0767733
  -0.2578125   0.0353496   0.0570843   0.5097529   0.1151188   1.4100488
  -0.9351603   0.2046054   1.0494819  -0.1420916  -0.2740589   0.0587960
  -0.0675916  -0.9493548  -0.8973561  -0.2146911  -0.3307006  -0.6017583
  -0.3248726  -0.1936703   0.1767977  -0.6941317   0.1122737  -0.7640495
  -0.8389129   0.5149501   0.9801593   0.2557619   0.2138300  -0.0168109
   0.3222888   1.4253706  -0.2145421  -0.7211303  -0.8307053   0.5391809
   0.1071001  -0.1023435  -0.0096956  -1.0270349   0.9634071  -0.4368487
  -0.6790554   0.0882968  -0.2796965  -0.1021470   0.0538344   0.1087164
   0.2795983  -0.4004520   0.8542629  -0.5894096   0.7678633   0.3169893
  -0.0426420   0.3740055  -0.0997875   0.5324052   2.0155391  -0.2376594
  -0.8890708   0.0990240  -0.0135387  -0.2391274   0.1762357   0.3429072
  -0.5860862  -0.6478183  -0.2364499  -0.6962894  -1.4602523  -0.6042503
   0.1715938  -0.0047120   0.2654092   0.9897553   0.7850022   0.7771261
   0.6974787  -1.1972303  -0.9969533  -0.0946245   0.1602665  -0.5071326
   0.5770670   0.4719207  -0.8493259  -0.9941908   0.4891401  -1.2971109
  -0.0688108  -0.2902235  -0.0023314   1.6287166   1.2720114  -0.4544174
  -0.4259072   0.6219157  -1.1930150  -0.2263872  -0.0134865  -0.0045398
  -0.0530086  -0.8686663   0.2676505   0.9687086  -0.0902121  -1.5733614
   0.0681335  -0.0406370  -0.1543956   0.8517122   0.5719115   0.7150310
   0.8999784  -1.3894673   0.9139509  -0.2937187   0.3952451  -0.0870128
  -0.9936655   0.2335719  -0.5270142  -0.2308416   0.0295779  -0.3383773
  -0.0037592  -0.2192880   0.3430034  -0.4762493   0.1972776  -0.5328566
   1.1394625  -0.0278655   0.5247025  -0.2193486   0.0918552   0.1012969
   0.3994645  -0.4708637  -0.3907369   0.8760666   0.6967125   1.5435225
  -0.2316556   0.2844371  -0.1751331  -0.7378492   0.3194561   1.5205116
   1.1836800  -0.0335463  -0.4386787   0.3498156  -0.0148531  -0.1105094
   0.1115616   0.2622263  -1.5479081   0.1164342   0.3517752   0.1360103
   0.1978334  -0.2976071   0.0101269  -0.0676254   1.3800777  -0.9142538
   0.9462833   0.5878738  -0.9287497   0.1884991  -0.0039244  -0.2220749
  -0.4744291  -1.2140595   2.1313739  -0.1553696  -1.3186672  -0.6162113
  -0.0628197   0.0465754  -0.2173293  -0.8328042   0.7151496   0.3934649
  -1.2267710  -0.8439976   0.5768162   0.0596991  -0.1617828   0.3955972
  -0.8301007   0.0837956  -0.9222296   0.0841296  -0.2692619  -0.8020913
  -0.0631623   0.1090455   0.0978014   0.0066716   0.2058460  -0.4978986
   0.2605934   0.2075370   0.0578414   0.1511902   0.2438762   0.0469316
   0.6722221  -0.7904580   0.0790576  -1.1679204  -0.1572038  -0.5170343
   0.2999286  -0.0938378   0.2274541   0.6201472  -0.2337072  -1.1400442
  -0.6989559   1.0640953  -0.1885854  -0.3379530  -0.1078995  -0.3338521
   0.1641671  -0.6536525  -0.9674043   0.5456742  -0.1093182   1.6083002
  -0.2132418  -0.0658648  -0.0815778   0.5582652   1.5968009   0.1141369
  -1.0170587   0.9859252   0.1678487  -0.2716611  -0.3390422   0.0755792
  -1.1320827  -0.2465710  -0.9930283  -0.3605468  -0.2344793  -1.3592337
   0.0058599  -0.0622904   0.0731824   0.5252065  -1.1047889   1.2063113
  -0.3228675  -1.3196515  -0.5229510  -0.0354517  -0.0839228   0.1218141
   0.2517701   0.2346226   0.1363747   0.1487491  -0.4815656   0.0475827
  -0.1269210   0.0323998   0.0349661   0.6439886  -0.2011692  -0.4119455
   0.5768392   1.1384013   0.3036604   0.0010589   0.1724625   0.2754843
  -0.9901293  -0.0981767  -0.8484642  -0.4224749  -0.5453185   0.3757663
   0.0529193  -0.0018229   0.0593450  -0.5930549   0.2524231  -0.3410098
   0.1784720  -0.3718381  -0.2826822   0.0562982   0.1793236  -0.0349303
   0.1875655   0.4842024   0.3647838  -0.1027591  -0.0130394   0.5024293
   0.0941554   0.0485390   0.3264373   0.7952953  -1.0095121  -0.0201473
  -0.0690023   0.6592040  -0.4750847   0.3550345   0.1775367  -0.3017423
  -0.9495192   0.6860085   0.3832369  -0.5806270  -1.4310595  -0.2035114
  -0.0274911   0.1195727   0.2679357  -0.8051035   0.6098149  -0.1603471
  -0.3339523  -0.0591108   0.7769622   0.1117429   0.2178685   0.0138235
   2.4208032  -0.1983344   0.2905737  -0.0799352  -1.5381826   0.6494420
  -0.1993309   0.0908518   0.2283549  -0.1589257  -0.9226226  -0.3999011
   1.9332588  -0.0197845  -0.4808943  -0.0108393  -0.0065151   0.4044652
  -0.7312223  -0.4479932  -1.4062781  -1.7853528   0.0295215   0.8540697
   0.0800194  -0.1063211  -0.1214580   0.3058421   0.2573219   0.4544979
   0.9314206   0.9169267   1.0823277  -0.0269213   0.0240151   0.1578244
   0.2244218   0.3364764   2.0288055   0.1635413  -0.8861189  -0.0505473
   0.0326407   0.0737590   0.0594367  -0.5712593  -0.8966169   0.3937939
  -1.7243144  -0.9354613  -0.6826141  -0.0018448  -0.2871704  -0.0804542
   0.3496832   0.1706390  -0.6295903   0.0772388   0.4314503   0.5480647
   0.0439493  -0.1415629   0.0484056   0.1149605  -0.2062137   0.2981367
   0.1859698   0.0084791   0.0350170   0.1306625  -0.1106526  -0.2681102
  -0.4701747  -0.7457857  -0.3124606  -0.0009584   0.4979166  -0.5017263
  -0.0930147   0.0054359   0.0645422  -0.6116513   0.3775535  -0.5792714
  -1.0389622  -0.1098963   0.2821488   0.0663565  -0.0851051  -0.1496978
  -0.5415377  -0.4806858   0.9432724  -0.8234646  -0.3227767   0.2752125
  -0.2571254  -0.2018276   0.0600845  -1.0305514  -0.4912977   0.8327767
  -0.2401572  -0.1281840   0.5860847   0.1621208  -0.3502748   0.1627047
  -0.7757341   0.2113472  -1.5449211   0.2285893   1.0422790   0.2601999
  -0.1582237   0.0319542  -0.0159784   1.1046050   0.1769301  -0.8835653
   0.0716869   0.5844909  -0.0095003   0.2083621   0.2821822  -0.0333985
  -0.5542183  -0.3857238  -0.1884938  -0.4634860   0.3325814   0.1976024
  -0.2062792   0.1678056   0.0262082   1.5487801  -0.5301756   0.1810991
   0.3601836   0.3580331   0.0581228   0.1235150   0.0484115  -0.0615668
  -0.2647672   1.1067700   0.5234514  -0.6851611   0.3930986   1.0582353
  -0.2911494  -0.1044074   0.3158752  -0.3267193  -0.8031517   1.5243036
   0.6065680  -0.2477132  -1.4057522  -0.0276211  -0.0476075   0.0169470
  -0.5372727  -0.6910061  -0.1502198  -0.1191618   1.7986090  -0.4548561
   0.0372519   0.0941615  -0.0037481   0.2504813  -0.2881328   0.5482899
   0.2589117  -0.7366132   0.4317665   0.0854761  -0.0718017   0.0666702
  -1.4021952   0.5982084  -0.8583000  -0.0164512   0.7975636  -0.2255438
   0.0548784   0.1177138  -0.3123613   0.7126978  -0.4916548   0.0555099
  -0.0366746   1.0017256  -1.3918664  -0.0258973   0.1193996  -0.2722287
  -1.2225165  -0.4390006   0.0698777  -1.0013357   0.9724247  -1.4211184
   0.2099443  -0.0332751   0.0410547  -0.0393910   1.7292172  -0.1326277
  -0.2020592   0.9136527  -0.6057397   0.0564153   0.0421614  -0.0948918
  -1.7292209  -1.7295009   0.6723407  -0.0298225   0.1687881   0.1885446
   0.2931089  -0.1658243  -0.2986513  -0.5599812   1.1057876   0.1697087
   0.2525026  -0.1410991  -1.0807138   0.0852439   0.0842931  -0.0704971
  -0.2232965   0.1243963  -0.1380321   0.2412585  -1.2921544  -0.7461020
  -0.2662467  -0.4853615   0.4180698   0.3276768   0.3460511  -0.0403664
  -0.2600578   0.9304135  -0.4193160   0.2059123   0.0343089  -0.0335122
   0.2575270  -0.2713484  -0.0306757  -0.0915273  -0.3423310  -0.6701102
   0.0183795   0.3668172   0.0327645   0.3892670  -0.4845714   0.0634907
   0.3877986  -0.4490969   0.9877816  -0.1384279   0.0243529   0.2334993
  -0.4346230   0.6061480  -0.8741237  -0.9944255   0.4409839  -0.2252350
  -0.1069286  -0.0247721   0.1615483   0.0353418   0.0820558   0.9869982
  -1.0537414   0.6987218  -2.0222576  -0.0382625  -0.2800826  -0.2978283
   1.3489441   1.2863496  -0.2904263   0.8521037  -0.7240640   0.3815248
  -0.1631915   0.0978786   0.0728099  -0.2197490  -1.8019185  -0.5502284
  -0.1735072   1.4763843  -0.5786274   0.0001013   0.0936216   0.2969539
   0.6785203  -1.8824990  -0.9921296  -1.4481194   1.3580502   0.6113453
   0.0583868   0.0492256   0.0000731  -0.2284037   0.2567934  -0.0059033
  -0.8558443  -0.1558780  -0.1045083   0.2828638  -0.0084043   0.0217120
   0.9373984  -0.0116414  -0.3013563  -0.0305652   0.4737415  -1.6531394
   0.0287504  -0.1330041   0.0271649   0.0536198   0.0128426  -0.0738177
   0.6838125  -0.0808135   0.6460960  -0.2529516   0.0123436   0.1525442
   1.6522415   2.2404117   0.1697687  -1.1170458  -0.4026116  -0.2170088
   0.0200195   0.0201276  -0.4759608   0.1909080   0.2049517  -0.2820923
   0.6393467  -0.3690397   0.4724389  -0.2306432   0.1200918   0.1612127
   0.3683413   0.1992219  -0.2082982  -0.2672566  -1.1126365  -1.2513127
   0.2159010  -0.3000337  -0.1880447  -1.0062936  -1.0772126   0.1746666
   0.2108473   0.6512652  -0.1828030  -0.2193988  -0.0454477   0.2241323
  -0.0239168  -0.2410172  -1.7706710   1.0422081  -0.7090860   0.5381879
   0.1570909   0.5136001  -0.1397826   0.0511821   0.0063172   0.0058815
   0.7585184   1.1144244  -0.4624149   0.0084870  -0.0479869  -0.1363970
   1.6443384  -1.1256445  -0.2675960  -0.5432155  -0.1613552   1.3191924
  -0.0740302   0.2708854  -0.3579092  -1.0189455   0.2181343   0.3632770
   0.7450490  -0.1291240   0.2537211   0.2435273   0.0663356  -0.2029987
  -0.1574659   0.7615277  -0.4898823   0.6211962   0.6383649  -0.1328186
   0.3879789   0.3411037  -0.2796169   0.2786244   0.3296644  -0.1096499
   0.9168488   0.0335118  -1.2586641  -0.1043867  -0.2328898  -0.1210316
  -0.3422913  -0.1619421  -2.0890891  -0.1171762   0.9581088   0.4132172
   0.0789686   0.4212944  -0.1298833   0.2171827  -0.5473166  -0.1634668
  -0.9000437   0.3608052   1.3766047   0.1326212   0.1358339   0.2800688
  -1.4940207  -0.5050311   0.1471595   2.2375868  -0.2774529  -0.4940514
   0.1571573   0.1709031  -0.2272508  -0.0862971  -1.0465039   0.6231764
  -0.2041699   0.3571858  -0.5562634  -0.1807634   0.1948943  -0.0043202
  -0.0971399  -0.6205789  -0.2158198  -0.1483644  -1.1074890  -0.2411157
  -0.2955412   0.2159621  -0.3514325  -0.4644831  -0.5853998   0.3290571
   0.4905100   0.1487010  -0.3931115  -0.0062956  -0.0165649  -0.1226452
  -0.3121470  -0.0807787   0.5543042   0.3464130   0.0199448   0.2742179
  -0.2090649   0.0276912   0.2207734  -0.8038643  -0.5701046  -0.7725406
   0.0427653   1.0291492  -0.2088297   0.1868689  -0.1129048   0.2207737
  -0.5227922  -0.6161803  -0.6962743  -1.1860368  -0.0459214  -0.3664287
  -0.1398654  -0.0195343  -0.3389635  -0.0412129  -0.2788291  -0.2619399
   0.1732140   0.3463067  -1.0083635   0.2887753   0.0813913   0.0570592
   1.2320712   0.9559624  -0.4394012   0.4315089   0.2616761   0.5667906
  -0.1705235   0.1407533   0.0973735  -0.3971226  -0.5290254   0.1284331
   0.2380735  -0.9411371  -0.4709749   0.0988388  -0.0817544  -0.4240897
   1.0758035   0.9882982  -0.7095537  -0.4827765  -0.3986577  -0.1218853
   0.4414659   0.3216257  -0.2360517   1.7399255   0.5585148  -1.8078739
  -1.5272024  -0.6965442   0.6302625   0.1705003  -0.0692472  -0.0882778
  -0.5812698   1.3888554   0.4300846   0.1844622  -0.5583558   0.5387834
  -0.1331845  -0.1744680  -0.2543929  -0.5311155   0.6409665  -0.2927912
   0.9404426  -0.6077425  -0.2716536  -0.0138887  -0.1149392   0.0697351
  -0.0016663  -1.5733903   0.2114784   1.4837851   0.4731316   0.6376048
  -0.1090196  -0.2700323  -0.0656878  -0.7963399  -0.7142895   0.0881376
  -0.2354625   1.1831103   0.6720033  -0.1558323   0.0018062   0.4122117
  -1.2879199   0.0946086  -0.4213239  -0.0669616  -0.1378366   0.4206540
   0.0975203   0.1850647   0.0267466  -0.1363561   0.7426589   2.0549838
  -0.8380706  -0.3830195  -0.4723436  -0.0875253  -0.0652027  -0.0509038
  -0.3536982  -0.4374829  -0.8099839  -2.0799399  -0.7685525   0.2883539
   0.0651163  -0.4009327  -0.2252809   0.8951011  -0.3817724   0.1315886
  -0.1510499  -1.9385076  -0.8624469   0.2302003  -0.1377387  -0.1993779
  -1.1490326  -0.2548147  -0.5362723  -0.2706345  -1.3987520  -0.9245671
   0.0640850  -0.1268916   0.1418881   1.0625275  -0.5561760  -0.4243072
   0.2021525   0.4758061  -0.3872775   0.0620632  -0.0113068   0.1870218
  -0.6346757   0.2815740  -0.4000452   0.0125659   0.4070648   0.8381941
  -0.0156271  -0.3810732  -0.1372892   0.2049130  -0.0939256  -0.5205682
   0.2952237  -0.7543100   0.7729921   0.0311234  -0.1098088   0.2447898
  -0.4840669   1.2348963  -0.5945225   0.6003723   0.9298697   0.3994273
  -0.0029686  -0.0233074   0.2084015   0.8813058   0.3527493  -0.0322131
   1.1957014  -0.9169013   1.3066149  -0.3133438  -0.1972895  -0.1974102
  -0.8173721   0.4295678  -0.5647367  -0.5504664   1.2292261  -0.1542672
   0.2561786   0.0823625  -0.1533673  -1.5343493   0.2532087   0.9146580
   0.0726462  -0.4284067  -0.2812479  -0.0380526   0.1396683  -0.1829653
   0.2396770   0.0885446  -0.1485251   0.7248318   0.9851753   0.4378202
  -0.1358893  -0.2313328  -0.0505062  -0.1569181  -0.9079586  -1.0919794
   0.3825868  -1.1610739   0.0474389  -0.0607264   0.3132833  -0.1366593
   0.0181604  -0.9477313   0.1090703  -0.1797078  -0.2889893  -0.6979287
   0.0268050  -0.2160850  -0.0877513  -0.3734106  -1.0532594   0.3360284
   0.3603784   1.9010767   0.3526622  -0.2562653   0.1337569  -0.1217860
   1.2650543   0.3335533  -0.1935777   0.4588807  -0.7635366  -0.4041527
   0.1731617  -0.0427308   0.2064201   1.5277473  -0.3123572   0.2098102
  -0.4289397   0.8690457   0.2955599   0.0560530  -0.2296631   0.0807248
   0.9260299  -0.1040248   0.5854731  -0.9451533  -0.4440878   1.0808324
   0.2849445  -0.0186701  -0.0676910   1.3625363  -0.3626098  -1.7770664
  -0.2723252   0.3906615  -0.4596499   0.1953239   0.0268904   0.1236832
   0.0390101   0.8424832   0.5528132  -0.2022232   0.0471496  -0.5101115
  -0.1098740  -0.1603542  -0.0228939   0.8514053   1.1800607   0.1512842
  -0.1854094   0.6119276  -1.1660174   0.0273426   0.1875778  -0.0625887
   0.1925472  -1.2953090   0.4968025  -0.4754820  -1.0910199  -0.0949708
   0.1083428   0.1900802   0.0806500   0.6823338  -0.0518429  -0.8687100
  -1.0830313  -0.7896746   0.0972787   0.4193340   0.1905717   0.1109766
   0.5884992   1.9140955  -0.4682565   1.4051210   0.9632679   0.6663028
   0.0711795   0.2259087   0.1952570   0.4318750  -1.5640504  -0.1834120
  -0.1467469  -0.9892435  -0.0289528   0.0278873   0.0358487   0.1152726
   0.0369575  -0.6472613  -0.8317973  -0.8096185  -0.8571602  -0.4570817
  -0.0890454   0.1608138  -0.3536252  -0.5860697  -1.3842876  -0.3428715
  -1.0219333  -0.1697845  -0.7800005   0.0825965   0.2091031  -0.1178322
   0.5419865  -0.3159140  -0.4621918   1.4447339   0.7061595  -0.1110548
   0.0230790  -0.2017837  -0.1448232  -0.5901288   0.4961858  -0.4774314
  -0.5734924   0.6187987   1.1513848  -0.0360154  -0.2173998  -0.1302741
   1.4819821   0.6502130   0.2552573  -0.6420630   0.3516556   1.5429631
   0.0271538  -0.0517033   0.0379802  -0.0708008  -0.6483706  -0.3216285
   0.2967517  -0.5821021  -0.1791502   0.1281595  -0.1561371  -0.1490021
   0.2527559   0.3345647  -0.8766750  -0.0329003  -1.0366034   0.6496102
   0.0454703   0.1448561  -0.2854690  -0.1313697   1.4331682   0.2064798
  -0.4343800   0.1564930   2.0097178   0.1661654   0.0093315  -0.0089667
  -0.6988844   0.3189395   1.6626441   1.2622920   2.3749901   1.5100126
   0.0688061  -0.1959925   0.2644019   0.2777504  -0.0127378  -0.2125839
  -0.3462401   0.5743059  -0.3953827   0.0254652  -0.1179622  -0.1551687
  -1.8848731  -0.0323150  -1.2902620   0.4051345  -0.1675106  -0.1721705
  -0.1169432  -0.2057979   0.0662161  -0.2912354   0.3895935  -0.1088901
   0.5417798   0.4328044  -0.9743815   0.0756722  -0.2788688  -0.3037399
   0.8120245   0.2823544  -0.8365378   0.3693159   0.7334942  -1.1623498
  -0.1857984   0.0421793  -0.1385164  -0.3323084   0.1907761  -1.9275699
   0.8003403  -0.0074432  -0.0716507  -0.2193263  -0.3902482  -0.3990719
  -0.8085018   0.3381635   0.7505872  -0.1426129  -0.6671829   0.8058159
  -0.0981068  -0.2596497  -0.0325726   0.5174556  -0.0997616   0.0364613
   0.5769518   0.6484250  -0.4568786  -0.3430849   0.0014559  -0.5318434
  -0.0365293  -0.4852593   0.6377044  -0.0185383  -0.1360285  -0.2645182
  -0.0148973   0.2858838   0.0542551  -0.1443729  -0.8828872  -1.6232408
  -0.5930019   0.3591365   0.2462944  -0.0473800   0.2292700   0.1326383
  -0.5314630   0.9286425  -0.1966866   0.9798210  -1.5760845   0.0517330
  -0.2488705   0.1138948   0.2456922   0.7223075   0.1882247  -0.0987618
   0.4302780   1.5384830   0.9946964  -0.1212049  -0.1492155   0.3554894
  -0.8808517   0.0596416   0.5457017   0.4919365  -0.1074193   0.7011245
   0.1446148  -0.0583807  -0.0315500   1.2080890  -0.5195238   1.0220751
  -0.5071909   1.7059528  -0.0724397  -0.0044966  -0.0816448   0.2159243
  -0.2322103  -1.4777409   0.1244435   0.3216074  -0.6192531  -0.7072814
   0.0911567  -0.1284327   0.0811396  -0.2033978  -0.1141238   0.0744446
   0.1480380   0.7567582   0.0749371  -0.0177210   0.1946673   0.1560972
   0.2021687   0.2311596  -1.8494857   1.3714852  -0.0551036  -1.3631647
  -0.4697872  -0.0045981   0.0883474  -0.0862484   0.5637688  -1.4304830
   0.1365689   0.1604307   1.0351085  -0.1999642   0.2453642  -0.1429547
   1.0666463  -0.9426633  -0.9244460  -0.0007129  -0.2531052   0.9831806
  -0.0919855  -0.0596515  -0.2766776  -0.3374782  -0.1339873  -0.2449665
  -0.4673377  -0.3820846   0.3564474  -0.0302770  -0.1868441   0.0243266
  -0.7912559   0.9173739  -1.4385976  -0.4414881  -0.6284387   1.2961163
   0.0198172   0.0790473  -0.2972002   0.1156996  -0.1959445   0.6540230
   0.0751312   1.1976101   0.0513947  -0.2250386   0.1733034  -0.1247926
  -0.4848161  -0.2908596   0.1702508  -1.4851737  -1.0889781  -0.6743027
  -0.2693750   0.0722977   0.1987038  -0.6805222   0.9948115  -1.7722237
   0.2321092   0.4463791  -0.1371839  -0.0412790  -0.1004357   0.0099770
   0.9017263  -2.0128239  -0.7516604   1.1838312  -0.4144899   0.0035203
  -0.0594766   0.0299647  -0.2430231  -0.1768281   0.4892874   0.3227486
  -0.1189401  -0.2888843  -0.4637933  -0.1375395   0.0713286  -0.3237643
  -0.1120948  -2.0069799   0.9903751   0.6708289  -0.2223923   0.3532401
   0.0107926   0.0520900  -0.1165856   1.1510013   0.7298764  -0.6424066
  -0.3879742  -1.4781323   1.2678392  -0.5159345   0.3300850  -0.2486162
   0.1982801  -0.9429414  -1.4303322  -0.0710881   0.1851037   1.4799496
  -0.0931877   0.1106507  -0.1569582  -0.7378008   0.0787947  -0.4415337
   0.9254111   0.4045538   0.1140071   0.2239662   0.1186443  -0.1390205
   0.8453854  -0.2705342   0.0849735  -0.9743849   0.1528077  -0.2681869
  -0.1972654  -0.0898896  -0.0383009  -0.3061749   0.7718655   0.1377205
   0.4843933  -0.4915996  -1.1868867   0.1544376  -0.0592885   0.0776353
  -0.4260787   0.2917095  -0.2471551  -0.0270925  -0.6496290  -0.2238417
   0.0247498   0.1024411  -0.2024317   1.7107439  -1.4355518   2.1206835
  -0.1871980   0.6558572   1.2925209   0.3357190  -0.2064063  -0.4082199
   0.6792874  -0.6813001   0.8337166  -1.1991566   0.4725175   1.9234932
   0.0788988  -0.5561988   0.1065724   0.2177808  -0.6826572   0.0925911
   1.0697019  -0.8938068   1.0088996  -0.1357899  -0.1625694  -0.0955128
   0.6565324   0.3769060   0.2014876  -0.7545695  -1.3512815   0.1945149
  -0.1785753   0.0081240  -0.0552752   0.2481331   1.2114101  -1.0376430
   0.0311271   0.8499212   0.5696398   0.0185995   0.1629802  -0.0659585
  -0.6895547  -0.2706700  -0.8292557  -0.4482573   1.1453141   0.6924321
   0.1355138   0.0936897  -0.0499560  -0.0909828   0.0504307   0.7281843
   0.0699570  -0.4143893   0.3799996   0.2122873   0.3252982  -0.0562387
  -0.1718873   0.9592496  -1.0295533   0.6390662  -0.0733365  -0.3016486
   0.3520886   0.0791065   0.0851874   0.6122678   0.3728779   0.2888885
   0.2871528   0.6320825  -0.2017523   0.1035066  -0.1607625   0.0446499
   0.4759817  -0.9569653  -1.1426445  -0.0979095   1.4509609  -0.9432472
   0.2259758   0.1504784  -0.0125921   2.3001343   0.5334596  -0.1253531
   0.3335708  -1.1589675  -1.7604445   0.3137739   0.2035848  -0.0008602
   0.1842137   1.0853502  -0.3970876   0.1178442   1.2934100  -2.2137546
  -0.0577377  -0.1156508  -0.0642940   0.8031417  -0.2101044  -0.0306254
   0.2818950  -1.1982381  -0.1790635   0.0090662  -0.2399380  -0.4123024
  -0.5904391  -0.4420599  -2.0277964   0.6549809   0.6218175   0.7871957
   0.2125933  -0.2168583   0.2032058   0.6365490  -1.3500507   0.5556714
  -0.2946690  -0.5429100   0.4473272  -0.0724251  -0.0364796  -0.3840684
   1.7777007  -0.8253805  -1.2035234  -0.7647272   0.4592782   0.0149612
  -0.2643135  -0.3897620  -0.1307000   0.6862434   0.3409600   0.8433260
   0.7654751  -0.9404326  -0.1914986  -0.1103616  -0.4322360   0.1187960
   0.7697261  -0.7396807   0.6710755  -0.3991865   0.4355658   0.5525817
   0.1083250  -0.2242540   0.0390660  -0.9850094   0.2532789  -0.8299703
  -1.7289154   0.3860409   0.9755679   0.0137045  -0.0184018   0.0481893
  -0.6444347  -0.8941439  -1.3759877   0.8025706  -0.0039356  -0.4271492
  -0.1520749   0.1107205   0.4503637  -0.7175066  -0.2001301  -0.2305068
   0.5862571   1.2831264  -0.5880617  -0.1209676   0.1722114   0.0348215
   0.7495285   0.3712476  -1.1148127   1.9110550   0.1022259   1.1772395
  -0.1789218  -0.0875910   0.0211892   1.1869631  -0.2305285  -1.5206437
   0.4596416  -0.3934229  -0.1000159  -0.1002788   0.0200962  -0.3453651
   0.3375046  -0.4248634  -0.3626461   0.6687447   1.2951115   0.8472633
  -0.0366650  -0.1197844   0.0307278   0.5173621  -1.1541914   0.9071113
  -0.3652761   0.0883302   1.2592931  -0.0956762   0.2558845  -0.0295042
   0.3954191  -0.1745466  -0.8672119   0.2888223  -0.0543184  -0.9067360
  -0.1197436   0.1404958  -0.0861684   1.9515736  -0.6393186  -0.7726355
   0.2186209   0.3182844  -0.3390287  -0.0659465  -0.3029771  -0.3085757
   0.4980265   1.0247553   0.6887712   0.4448665   1.4376458  -0.8548568
  -0.1658783   0.1537640   0.1545835   1.6876896   0.5074167  -0.4229848
   0.2934684   0.8629897   0.1549542  -0.3278270   0.2120679   0.0076886
  -0.8555930  -0.1410925   2.1332800   0.2900311  -0.4406243   0.3142949
  -0.0293818  -0.0196229   0.1539274   0.4019704  -1.1283975  -0.9108930
  -0.9027216   0.2100303   1.0265868  -0.1437172   0.1567958   0.2753722
  -0.2359968  -0.6207715   1.6608634  -0.0289749   0.4275931   0.0771348
  -0.0395030  -0.1936902   0.2357107   0.2109532  -0.8555124  -0.9408615
   0.0415633   0.0686415  -0.1196742  -0.1455635  -0.1201943  -0.1738785
  -1.1990297  -0.1205388   1.3013858   0.5172426   0.9812565   0.4941695
   0.1812937   0.0395684   0.3510748  -0.2984416  -0.5859998   1.0519400
   0.1827083   0.7242727   0.7963797   0.1396115  -0.0151939  -0.1528375
   0.4149109  -0.2754778  -0.0779367  -1.1694670  -0.1047240   0.3401297
  -0.2511356  -0.1676714  -0.2059607   1.3577060   0.7023075  -0.8608706
   0.2593094   0.3176448  -0.9980269  -0.2529001  -0.1525300   0.0008633
   1.2304112   1.7418138  -0.0176616  -0.4677847   0.8236582  -1.2640440
   0.1397290   0.0661959  -0.0379517  -0.3805285   0.0331477  -0.4613135
   0.4489564   0.3061260  -0.4878051  -0.1541673  -0.0891593  -0.0074932
  -0.9122299   0.0364282  -1.3323863  -0.1032630  -1.4085342   0.6385715
  -0.1467545   0.1616550   0.1549119   0.2087968  -0.0459753   0.3645652
   0.1290697   0.0951443   0.8503719  -0.2292826   0.1343566  -0.0315784
   0.4052318  -0.0848414   0.4795937   0.5499475  -0.4250585  -0.6197696
  -0.2081977   0.1300958  -0.0239789   0.3865145  -0.7698505   0.1310696
   0.2815104   0.6882689  -1.0568244   0.1143576   0.2597816  -0.2499419
  -0.3952274  -0.2030673  -0.5148295  -0.3220494  -0.8613710   0.2487431
   0.0227117  -0.1604089  -0.2539538   0.5401095  -1.2719849  -1.2832225
  -0.8384200   0.2824941  -0.0714978  -0.0795169   0.0654982   0.4097396
  -0.2792168   0.2957367  -0.1933251  -0.6453198   0.9103755   0.0026809
  -0.0748354   0.0449879   0.2220321   0.0889691   0.1492076  -1.4788495
   0.8164941  -0.4840342  -0.5469167  -0.0712695   0.1427358   0.0976327
   0.5887950   1.9000235  -0.3914126   0.0945807   0.2197430  -0.0991961
  -0.1767607   0.1139196  -0.0620467  -0.6669855   1.1085503   0.1444703
  -1.5800195   0.8855237  -0.2817161  -0.1295793  -0.2905378  -0.0595269
   0.4846130   0.7035848  -1.3063342  -1.3014912  -0.3298926  -0.8611912
  -0.0927982  -0.1673924   0.2042171   0.8372245  -1.0047658   0.4879199
   0.5859628   1.6150672   0.1377754   0.0166262   0.2350071   0.0775934
   0.2343545   0.1613856   0.3496854  -0.1344803   0.3923714  -0.5401507
   0.5464933  -0.0906825   0.0059957  -0.9592444  -0.7858652  -0.0614938
   0.3362907   0.4168271   0.2128246   0.1274342   0.0092643   0.2467608
  -0.8019112   0.1284379   0.2113266  -0.3553241  -0.7420107   0.2106314
  -0.0410646  -0.0873347  -0.1945733   0.4208325   1.0071015   0.5420833
  -1.0831841  -0.5957027   0.2859530  -0.0683853  -0.1162786   0.2990896
  -0.1968396   0.0733336  -1.0941415  -0.2495946   0.9239472   0.4237924
   0.0861627  -0.1474639   0.1519011  -1.3210892  -0.8924007   0.2950565
   0.3519857   0.4241427   0.1162516  -0.0588153  -0.0213913   0.0575845
   0.1727253  -0.7468623   0.1925333  -1.1820280  -0.2165594  -0.6955500
   0.1137371  -0.0039851   0.0842975  -0.1420973   0.6695468  -1.9186740
  -1.8610338  -0.0828110  -0.6216073   0.1729129   0.3547657   0.0448567
   0.4646479  -0.6036924  -0.1162634  -1.2899021   0.9593653  -0.6456086
  -0.0944287  -0.0567069  -0.0578117  -1.0216157   0.3757746  -0.3334058
   0.1528103   0.4010063   0.8718248   0.0770592  -0.2285319  -0.0117138
  -1.1667638   1.1646652  -0.1296657  -0.2224897  -0.7691365   0.6115817
   0.1509011   0.0638084  -0.2336283   0.5434071   0.1913909  -1.4925934
   0.3833551  -0.2683058   0.2175704   0.2337651   0.0635255   0.0859888
   0.9482935   0.4073947  -0.1426730  -1.3445594  -0.5902302   0.4744878
   0.1211482   0.3301325   0.1169830  -0.4296354   0.7299014  -0.5729324
  -1.7002334   0.5443538  -0.2214241  -0.1295376  -0.1839339  -0.1681156
   0.9053036   0.5522081  -0.3651725  -0.1792710  -0.6546957   0.6826926
  -0.4535806   0.0593912  -0.1307292  -1.6379247   0.2687154   0.3077660
  -1.1931015   0.1730611  -1.3310946  -0.1905853   0.1509584  -0.1093754
  -0.1917698   0.5191468   0.1283782  -2.1466845   0.8562084  -0.5938112
  -0.0434388   0.2190836   0.1594006  -0.4537533   0.2008861  -0.9425040
   0.9678808  -0.0144886  -0.5111489  -0.1011179   0.1110830  -0.3831562
   0.4853885  -1.0958617  -0.8558180   0.9216020  -0.8261843   0.5005083
   0.0317325  -0.3012064  -0.0015203  -0.8234984  -0.9550113  -0.2290741
  -0.9411763  -0.1950982   0.6118081  -0.0466048   0.1864521   0.0977096
   0.8956613   0.2522162   0.5329494  -0.5983573  -0.5824106   1.0710093
  -0.2672302  -0.1761415  -0.1874215   0.9501931   1.3782124   0.0441514
  -0.0344273   0.2059209  -0.1353950  -0.2082906   0.1004054   0.3382224
   0.2393425  -0.3845536   0.3159564  -0.8361958  -0.5110850  -0.5648013
  -0.4107567   0.0081477  -0.2376594   0.3904827  -0.5165849  -0.2125694
   0.2975255   1.1172226  -0.4362665   0.0030259   0.0660567  -0.0030333
   0.0375682  -1.2380656  -1.6029399   1.3415203  -0.8609707   0.2973518
   0.2822183   0.2912458   0.3078724   1.1887050   0.0242489   1.9105425
  -1.1979573   0.1403840  -0.9580538   0.0783865  -0.3653517   0.0342266
   0.6288602  -0.0713747   1.5726173  -0.4636460  -0.2410532  -0.8060464
   0.1262151   0.2442434  -0.0922394  -1.1326017  -0.0750578   0.2578330
  -0.2275892  -0.2032535  -0.9508929   0.1281028   0.0922934  -0.0778073
  -0.6668608   0.3242090  -1.1980167   2.0010836  -0.2234132   0.8146275
   0.1053232   0.0339223  -0.2712852   0.0730394   0.6467823  -0.4776350
   1.0332497  -0.6385994   1.0099052   0.0216198   0.2324673  -0.0960028
   0.7623987  -1.0284602   0.3774084  -0.9336262  -0.0970394   0.8406304
   0.1625374  -0.0055580  -0.0210443   0.5313168   1.4515923  -1.4671631
  -0.2932334   0.0850602  -1.3153427   0.0002794  -0.2826519   0.1705146
  -0.9171433  -0.2891663  -1.0868268   0.0302778   0.3882327  -0.8140834
  -0.1566610  -0.1254497   0.2025917  -0.2014300  -0.4796483  -0.2952343
   0.0585820   0.3706159  -0.0833358   0.1051294  -0.0474719   0.0349544
   0.3571602   0.8505808   0.8128856  -1.9424974  -0.1720882  -1.1912808
   0.1347675   0.0090122   0.1627202  -0.8415082  -0.1031951   0.3373670
   0.3905254   2.3432706  -0.1668407   0.0623753  -0.1029574   0.2566994
  -1.3324107  -0.5673491   0.2288992  -0.2357625   1.5723076  -1.2937984
   0.1957137  -0.1386460  -0.2082322  -0.0271710   1.2443541  -0.7946734
   0.5353758   0.1094991  -1.5972473   0.0395336   0.2929764  -0.0963783
   0.1041581   1.3280006   0.1205240  -0.4733413   0.8562405   0.5355818
   0.1446808  -0.1223012  -0.0997254   0.1511819  -0.9693977  -0.2064177
   0.0147332  -0.2527577  -0.8861662   0.0173769  -0.0061037   0.0907548
   1.0186710  -0.3253735  -0.7163043   0.6707266  -0.8867574  -0.6783356
   0.2173850  -0.0392559  -0.0507675  -0.8725571  -1.2837067  -0.1363030
  -0.1979174   1.1481123   0.0293098  -0.1326425   0.0504505   0.2516798
  -1.0125656  -0.9420362   1.1224298  -0.2738824   0.5328159   0.5081733
  -0.1199645   0.0107449   0.3571062   0.9522358   0.1662223  -1.0972786
   0.1595324  -0.6369728  -0.8570079  -0.0617281   0.0437574   0.0421639
   0.3535724   0.0392889   0.1325625  -1.7141290   1.8474737  -0.5716981
   0.0041544  -0.0413644   0.0002367  -0.0180694  -0.7896398   0.1273696
   0.5814538  -0.0327772  -0.5129149  -0.2339684  -0.0229320  -0.0610005
   0.9258597  -0.7768817   0.3823941  -0.3574216  -0.0257437  -1.0058384
  -0.1538710   0.6042443   0.3267976  -0.5658897  -0.8682950   0.1354269
   0.1552530   0.5524334   0.9965111   0.1605419  -0.0684235   0.0346044
  -0.1150562  -0.7061021  -0.6633267   0.6323832   0.2414597  -0.1758810
   0.2644913  -0.1487794   0.1065280   0.0499353  -0.8184561   0.7870387
  -0.4171669  -1.3097663   0.9270589   0.1317262  -0.1524264  -0.0315084
   0.6050093   0.2152358   0.7356081   0.3061708   0.1829036  -0.3482768
  -0.0015698  -0.3075005  -0.1742745   0.2865733  -0.6341437  -1.1884233
   0.9741293  -1.7004615   1.3484087   0.1143502   0.1513013  -0.0517629
  -0.5730365  -1.4303209   0.8631994   1.7722965  -0.5367960   0.5183691
  -0.1819855   0.0268145   0.1145046   0.0189062   1.0503106  -1.2266594
  -1.3060721   0.2332936   0.7653268  -0.2794519   0.0900829  -0.1714001
   0.6543945   1.2346302  -0.3513962  -0.1141127  -0.2860465   1.4803892
  -0.0579926   0.0356047  -0.3119423  -0.1546324   0.5456517  -0.3966704
  -1.2701994   0.2477741   0.5831514  -0.2145287   0.1349609  -0.1238306
  -0.8176422  -0.1351162   0.8045372   0.1126767   0.3641315   0.1523320
   0.1693624   0.1691956  -0.4389103  -0.0195161  -0.1541561   1.0598074
   0.6695021  -0.1532906  -0.8788923   0.0261792   0.1238164  -0.2392392
   1.4359645  -0.3567049   0.5780955   0.1086799   0.8718862   0.6485113
   0.0886716   0.1562727  -0.6628643  -0.8132429  -1.4471025  -0.3581564
  -1.2903327   0.7167299   0.3309392   0.1571342  -0.0059146  -0.1621205
  -0.8381857  -1.2055892  -1.0038466   0.2259941   0.5713493  -0.5365072
  -0.3388832   0.1494110  -0.0904802  -0.4278219   0.0075632   0.1619636
  -0.6752487  -0.2537771   0.2805225   0.0523691  -0.0363804  -0.0654839
  -0.1291278  -0.1497831  -0.4121707   0.9120090  -0.7235024   0.3971445
  -0.1010241  -0.1306608   0.1118024   0.3420257  -0.3627930  -0.3878313
   0.6230003  -0.5042733  -0.0691925   0.3508671   0.0297427  -0.2589171
   0.1473184   1.2728797   0.2197007  -0.3578261   0.4833577  -0.1791602
   0.1483917   0.2247649  -0.0203502  -1.8931788   0.3299457  -1.0011716
   0.8163693   0.7398630  -0.5994487  -0.0832309   0.2268270   0.2193435
   1.6558715   0.7502002   0.7514128  -0.5489218   0.1218781  -0.5854234
  -0.1661112   0.1485747  -0.4483304   0.2336908   0.4313170   0.2221916
  -1.0030514   1.1362319  -0.8282893   0.1457165   0.4606840   0.0940771
  -0.0469378   0.9473220   0.7382442   0.2537906  -0.5043577  -0.9182101
  -0.0042518  -0.0161374  -0.0286754   0.5673413  -0.6081295   0.6121118
  -1.8464083  -0.1847801  -0.6428460  -0.3037268   0.0971475  -0.2015847
   0.6345038   0.4767315  -0.6166969   0.3573546  -0.2389407  -0.5226540
   0.0811468  -0.1463013  -0.2773168   1.2887810   0.6187806  -1.0088218
  -0.4097951   0.4970629   0.9187007  -0.1456396  -0.2942535   0.0081508
   1.4030568  -0.0108103  -0.0274555  -1.9988307  -0.4281227  -0.9944248
   0.3584989  -0.0276656  -0.2770089   1.7589146   0.5188657   0.0705680
   0.3875456   0.5589350   0.4551158  -0.2007275  -0.1981007  -0.1897782
   0.2508397  -0.5648772  -0.0301875  -0.7322674  -0.4917852   1.3080594
  -0.2084723  -0.0544917  -0.0894634  -0.1279578  -0.1010911  -0.1870190
   0.4537836  -1.2880740   0.3515091  -0.1584040   0.1294432  -0.1774340
   0.2977765   0.1998601  -1.6222867   0.4686166  -0.3255560   0.9904154
  -0.6436831   0.4875049  -0.2146116   0.0863572  -1.2483192   0.3578972
  -0.9458720   1.1485526   0.5052860  -0.2540805   0.1040117  -0.0989711
   0.1268831  -0.0128224  -0.9688705  -0.2255830  -1.5310735  -0.1372057
   0.0264351  -0.2897233   0.0054882  -1.0544154  -0.4582504  -0.6058345
  -0.6467025   0.8624646  -0.0048361  -0.2331509   0.1613461  -0.2323944
  -0.7054904   0.1283417  -0.3591965  -0.1377395   0.2962760   0.9752693
   0.0857078   0.3515476   0.1290208   0.2692089   0.2743553   0.4140569
  -0.3766711   1.3299271  -1.1188474  -0.0067912   0.0696984   0.3397658
  -0.3874017  -0.0312408   0.3034580   1.9772547   0.3239005   0.6386635
   0.2110146  -0.0014910   0.0165025  -0.5165839  -0.2263946  -0.7287922
   0.4426516  -1.7520200  -0.5081720  -0.0905848   0.0868406  -0.2130078
   0.3949032  -0.5938762   2.4212575  -0.4203659  -0.6484482   0.6252042
   0.3980408   0.2176419  -0.0946312   0.8018180  -0.2190967   0.6531691
   0.6277713  -0.2982611   1.1414636   0.0960898   0.1991323  -0.1427426
   0.3372743   1.1570031   1.0657710  -0.5594103  -0.2683458   0.3811574
   0.1307614  -0.2552122  -0.2205111   1.2376916  -0.5147664   0.0440223
   0.0653811   1.0200580  -0.9816878   0.2240893   0.1529066   0.0408261
   0.3427159  -0.0552703   0.7312204   0.4238701   1.5709552   0.2189861
   0.3199654  -0.0773109  -0.1392445   0.7395994  -0.5235609  -0.8849810
   0.6455785  -0.9575913   0.5878578   0.2534639   0.1239978   0.1286682
   0.6865459   0.5702054  -0.5838235   0.0034715   0.0727444  -0.8788862
   0.3692489  -0.1309675   0.0533615  -0.4983933  -0.4809291  -0.7493045
   0.3407897   0.7710232   0.6929992  -0.0298008  -0.0792468   0.0056699
  -1.2372374  -0.6224210  -0.1753418   1.3896393  -1.1011051  -0.1529146
   0.1710588   0.1543300   0.2928372  -0.1388598  -0.8787246   0.7310025
  -0.8773970  -0.6911810  -1.4784378  -0.0580778   0.1666109  -0.1734621
   0.0904597  -0.9852839  -0.7314663   1.3765934   0.5111505  -1.1266222
   0.0723187   0.1866499   0.1641359  -0.2051622   0.1139756  -0.4777127
   0.6015336  -0.3836927   0.1484618   0.3092327  -0.0907304   0.0802692
  -1.8032929  -0.9308751   0.2692725   1.5047332   1.0214250   0.9944170
  -0.3905321   0.2006755  -0.2395030   1.1944171   0.5853007  -1.1953634
  -0.6484664  -0.6293271   0.4993764   0.0586959   0.1415453   0.0870346
   0.6490738  -0.4888134  -0.7428526   0.8199239   0.2846714  -0.3036242
   0.0609412   0.4304952  -0.2897241  -0.3405517   0.3763827   0.3463841
  -0.3365705   0.0591849   1.7040591  -0.0297458   0.0046297  -0.1836985
   1.7334459  -0.9677165  -1.1619366   0.1798645   0.1525447   0.7753391
   0.1276001  -0.0291807   0.0302464  -0.7173576  -0.7618295  -0.2183784
  -0.3942111  -0.5805375  -0.8455892  -0.1359935  -0.2109774  -0.0480147
  -0.1448320   0.6970842  -0.0110204   1.4087676  -0.2504334   1.8162366
  -0.3958741  -0.1818586  -0.1070113   1.0547913  -0.0363761   0.1389278
   0.2019477  -0.1276115  -0.4704895  -0.2701254  -0.0011244  -0.1350616
   0.4789922   0.1386095  -0.0449936   0.8079165  -0.3283477  -0.2860473
   0.2814345   0.0178702   0.1072908   0.4299380   1.1339592  -0.6965308
  -0.5573313  -0.4280331   0.4183831   0.1883189  -0.0901152  -0.1097654
  -0.4443917  -0.3349047   1.1556161  -0.9115830   1.9972144  -0.2563913
  -0.2454500  -0.0970527  -0.1796734  -0.6872755  -0.0819248   0.2375076
  -0.7336105   0.2208249   0.8546488   0.0340012   0.2155482   0.0643776
   0.3774237  -0.1463484   2.4837779   0.0930963  -0.5927533   0.5451081
   0.1200009  -0.1641890   0.0454577   0.4990444   0.6771771  -0.4735701
  -0.9103610  -0.0211365   0.5768454   0.4411568  -0.0876076   0.1427075
   0.9624091   0.4471727  -0.9187606  -1.3258071   0.7253846  -0.2793787
   0.3387343  -0.3645257  -0.0830093   0.2625346  -1.2451601  -0.5270418
   2.1524774  -0.5525046  -0.9267050   0.0340074  -0.0142342   0.0091833
  -1.1800514  -1.1947742   1.0076945  -0.5854776   0.3844622   0.0353299
   0.0995518   0.1133458   0.2458204   0.8474599  -1.2177265   0.0677294
  -2.0852426  -0.6633499  -0.0661995  -0.0046520  -0.1780347   0.2165928
  -0.2700005  -0.2931249   0.3811913  -1.1405739   0.7085025  -0.3742704
   0.3381210  -0.1724780   0.1557276   0.0368873   0.6561563   0.9304688
  -0.5789254  -0.1930304  -1.7518726   0.0805621   0.1943966   0.3349146
   0.2939750  -1.0013780   1.0603472   0.1871014  -0.8209111  -0.2609560
  -0.1313470  -0.3078117  -0.1801605   0.2507166  -0.2507211   0.6303756
   1.8107206  -0.9043320  -0.9930683  -0.1273950  -0.0076940  -0.1320551
   0.9492786  -1.0908047  -0.4135385  -0.6540857  -0.0276250   0.7023721
   0.1468601   0.0412648   0.2396650   0.2012860   0.7532218  -0.9276260
  -0.0817880  -0.7280324   0.6159443   0.3181134  -0.0849775   0.3294337
  -0.1428306  -1.2215758  -1.4211411  -0.2958917   0.0848823   0.4225165
   0.1226181   0.0414552   0.3313018   1.1340566   0.0109247   0.0413735
   0.5618918   0.7333201   0.8374726  -0.0162251  -0.3512759  -0.3422045
   0.5312470   0.4474621   1.3163369  -1.6154627   1.9311999  -0.4004691
   0.0093801   0.0797677   0.2720072   0.8454395   1.6582230  -0.6027067
   0.3842539  -1.2145918   0.4780597  -0.1452791  -0.0251153  -0.1243250
  -0.3870982   0.1331935   0.5701138  -0.2147505  -0.6758070  -0.3429073
  -0.2758624  -0.2003833   0.0736543  -0.3308162   0.8352333   0.0655586
  -0.4386788  -0.3066034   0.8100707   0.0502092  -0.0120541   0.1149941
  -0.0656457   0.6373621  -0.6004766   0.7693020  -0.0689624   0.9919890
  -0.1458954  -0.1834942  -0.0329973  -0.1978927   0.8784041  -1.7938381
   1.5227843  -0.8324162  -0.7080512  -0.0896159  -0.2625040   0.2576858
  -0.3184954  -0.3185341  -1.0091666  -0.3740694   0.5593296   0.1706253
  -0.1957639  -0.0776364  -0.0431061   1.1507513   0.1880821   0.2159935
   0.0999043   1.7011801  -0.0005885   0.0144711  -0.2215313   0.0645848
  -0.3598556  -0.1526635   0.2877608  -1.1718070  -0.2736108  -0.7888812
  -0.1017776  -0.4429195   0.0067977   0.0688943   0.7832672  -0.0978795
   0.4040296  -0.0197621  -0.7805532  -0.1050393  -0.2897225  -0.0503895
   0.4796917   0.6530040  -1.0102370  -0.9061795   0.9627131   0.8407902
  -0.0020601   0.0015619   0.0756223   0.7666103  -0.3638697   0.3488934
   0.4749651   1.7414074   0.7706934  -0.3255075  -0.0617224   0.3383868
   0.2505850  -0.8479059   0.7592487   0.2192848  -0.1961589  -0.3008946
  -0.1904214   0.0156038   0.0987252  -0.5180198   0.7798326   1.0516408
   0.0390339  -0.0619619  -1.0225231   0.0588534  -0.1745313   0.0031018
  -0.3787267   0.0206224   0.2934809   0.3386930  -0.9042111  -0.2624437
   0.0430941  -0.3340723   0.2325961   1.1548872  -1.1136092  -0.9878266
  -0.6587369  -0.2732806   0.6264853  -0.0205300  -0.1802147   0.0836399
  -0.0047784  -0.1482402  -1.5615644   0.2976352   1.1471308   0.0582626
   0.0898502  -0.0062385   0.0287035  -0.3685528  -0.2747194  -0.0982285
   0.1881944   0.2711077   0.2774697  -0.1850544   0.0276626   0.0725643
   0.6701813   0.5274391   0.3033736   1.5092927   0.1258460   0.2498894
   0.1691965   0.0842112  -0.1871231  -1.4568925   0.3085344  -0.1040493
  -0.1135714  -0.0910551  -0.6538839  -0.1230152  -0.6353603  -0.1895316
   1.0683772   1.1528605   1.1500210   0.1376146   0.0510221  -0.1661869
   0.0066759   0.0093210  -0.0321098  -0.3093106  -0.8318149   0.2068708
  -0.1563430   1.1442171   0.4138293   0.2903873  -0.4239227  -0.0420249
   0.0303657   0.0222189  -0.3113952   0.3523409  -1.1614266  -0.3543510
   0.0319775   0.2336291  -0.1103503   2.0683831  -0.0428355  -0.4625938
  -0.1417282   0.3064791   2.6318204   0.1096860   0.0878207  -0.0275390
   0.8470896   0.2605414   0.9873573   0.2549198  -0.3913903  -0.4231074
  -0.1247845  -0.0193516   0.2700366   0.9769291  -0.5859328  -0.8145735
   0.0623862  -0.4776179   0.6821948   0.0154807  -0.1106936  -0.1379416
  -0.1425808   0.6822051   0.6369379  -0.3740762   0.1664120   0.6042608
  -0.0131447  -0.2595853  -0.0405901  -0.6518599  -1.2644905  -0.4780213
   0.1841135   0.4482428  -0.1997372   0.1679587  -0.3214362   0.1563174
   0.0198763   1.2204155   1.7924553  -0.4400465   0.6286931   0.6771579
   0.1158823  -0.2690507  -0.0979438   0.2066461   0.5865223   0.5007530
   0.2587662   0.7663858   0.0677439  -0.0453223  -0.1450426  -0.0216650
   0.8971167   0.4402950  -0.6297330  -1.0194735  -1.0732761   0.0084773
   0.1262864  -0.1078458   0.3738194  -0.5511855  -1.8104353   1.2886235
  -0.3048400  -0.5898554  -1.2523895  -0.2567119   0.1370228   0.1805575
  -0.0513844  -0.9047306  -0.9698879  -1.6966726   0.0928084   0.8103155
   0.0054380   0.1965433   0.1966690   0.7314427   0.6503518   1.1711176
  -0.5563644   0.5173634  -0.3467761  -0.0292003   0.0309613  -0.0980696
  -0.6473176  -0.0683537  -0.6125764   0.0032544  -0.7822298  -0.0748369
  -0.1008184   0.0449860   0.1687949  -0.0435084   0.9850820   0.8286179
   0.5128611   0.5844726   1.0032794  -0.2493753  -0.1938224  -0.1323329
   0.5955217  -0.1259743  -0.3367545   0.0928888   0.5567605  -0.2076755
  -0.2761246  -0.0390277  -0.0535590   0.5193085  -0.8944655   1.2911483
  -0.9168079   0.4531149   0.6245996  -0.1282132  -0.2109856  -0.0145117
   0.0873273   0.3240910  -0.1804000   0.3296671   0.1223618   1.5098258
   0.3978136   0.3765582   0.2414537   0.2084378  -1.2341513  -0.7497122
   0.6705297  -0.4041649  -1.0641418  -0.0664105   0.1712296   0.0288720
  -0.4294106   0.1862789  -0.4127737  -2.5366851   0.9289063  -1.0461756
   0.1061366  -0.3666210  -0.1506182  -0.0144372   0.5176063  -0.0416640
  -0.4213729   0.0669888  -0.8344664  -0.0425563  -0.3192885   0.1298824
   1.2336020   0.6082407   0.3899573  -0.3155329   0.5681677   0.6317101
   0.2156496  -0.0304208   0.0446940   0.5227349  -0.3436354   0.3114272
   0.0586015   0.1477708  -0.4952347   0.0092804   0.3299677  -0.1133167
   0.2778885  -0.5904513  -0.2374470  -0.3964665   0.2631482   0.6895990
  -0.0092435   0.1783808  -0.0514096   1.3361770   0.1873511  -0.5079527
  -0.4923407   0.0248028   0.4261623  -0.3692037   0.2757157  -0.1476366
   0.1789421   0.5916283  -1.2915917  -0.8059825  -0.4384511   0.4601596
   0.0130022  -0.0811850  -0.1640065   0.5217007  -0.8972657   0.3051626
  -0.2726668  -0.0099987  -0.4552810  -0.0016441   0.2890625   0.2055521
   0.0956813  -0.3005598   0.5126004  -0.2434381  -1.4024127  -0.1707838
  -0.1540743   0.1450178   0.1222034  -0.0948656  -1.3503140   0.4223632
  -0.7027404  -0.5816024  -0.1008935  -0.1031069  -0.1254461  -0.1791894
   0.4662769  -0.5420470  -0.6658209   0.0151932  -0.3173050   0.6882325
   0.2564203  -0.0506055  -0.2779757  -1.2468379  -1.8582618  -0.4495230
   0.4687540  -0.2911682   0.0659962   0.1969759   0.0663959  -0.0202747
   0.0393152   0.7539632  -0.4645115   0.6588655   0.9464798  -1.3954137
  -0.1693611   0.4080405   0.0291136  -0.6698041   0.0756714  -0.1314286
  -0.2995825   0.8072100   0.3881463   0.1403560  -0.0379188  -0.0846506
   0.5225827  -1.7185809  -0.4076224  -0.1630910   0.2573456   0.5254178
  -0.1230900   0.1302146  -0.3519430  -0.7569988  -0.1570116   1.1202934
   0.5035714  -1.2010388  -0.5125298  -0.2268866  -0.2304073  -0.3836707
  -0.8645824   0.9878607   0.0079800   1.1653386   0.2995328   0.1455621
  -0.1669757  -0.1502017   0.1514394  -0.8067982  -0.2182284  -0.4708393
  -0.4982298  -0.5489763  -0.0762503  -0.0666573  -0.2080600   0.0839976
  -0.7960674   0.2540651  -1.2311968   0.2085393   1.0926677   0.2150775
  -0.0403431  -0.0823012   0.3648198   1.0131974   0.1502369  -1.5307450
   1.2520994  -1.8988863   0.1389761   0.0310061  -0.0059669   0.2729168
  -0.7231995  -0.3460906   1.3235747   0.2811795   0.8546660   0.6825994
   0.0429810  -0.0071847   0.1782558  -0.2661918  -0.4921759  -0.1224130
  -1.5211471  -0.3959132   1.1788343  -0.2720748  -0.0954201   0.0936759
  -0.0867906  -0.5603828  -0.7171519   0.2263063  -0.2107356   0.1168283
   0.0156735   0.3121130  -0.1269347  -0.3338113  -0.2141739  -0.7501614
  -0.0490025  -1.1884239   0.4275309  -0.0365768   0.0745045   0.1747488
  -0.8936407   0.5436271  -0.3589672   1.1062886  -0.6736234  -0.0030511
  -0.1712600  -0.3248111  -0.0548520  -0.2992739  -0.9272623  -0.8711156
   0.4741543   0.5896783   0.1842124  -0.0821691   0.1704332   0.0054771
   0.2820539  -1.4164878  -2.0955955   1.2055236   0.0355773   0.7928762
   0.1945844  -0.2027611  -0.0113126   0.1737319  -0.4297548   0.3989931
  -0.1035723   0.1658604  -0.9005891  -0.0406864   0.0612233   0.1378247
  -1.0367818   0.2869851   0.1346181  -0.6407787  -0.4811276   0.1889490
  -0.3621056  -0.2693354   0.0837876   0.4274160   0.7556355   0.1521686
   0.5555642  -0.1663325  -0.3485085  -0.3070569  -0.1326763   0.1825721
  -0.5627013   0.2645286   1.3878651  -0.0477207  -0.7462149  -0.3728625
   0.0872600   0.1413493  -0.0223941   0.5369974  -0.0204758  -0.1095477
   0.3164547  -1.2871811  -0.8146588  -0.1252942   0.1518194  -0.3576743
   1.3821189  -0.9723228   0.4740149   0.5873860   0.1731043  -0.4516466
   0.0562261   0.0482637   0.1659580   0.2954569   0.1589957   0.0572642
   0.4056450  -0.3283824  -0.0808386  -0.2150353  -0.0895856   0.2146081
   0.8917737   0.7329687  -0.3042189  -0.7136694  -0.0051269  -0.5908427
  -0.0349378   0.0036762   0.1164197   0.0101660   0.0975414   0.1391064
  -0.3966984  -0.4253025  -0.5512038   0.0405773  -0.3163457   0.0810737
   0.1942552   0.2229077   0.4882604   0.6981288   2.1142917  -0.2374372
  -0.2063733  -0.1174247  -0.0516805  -0.4411874   0.3449826  -0.3592785
   0.1924130   0.4633085  -0.5063886   0.1961755   0.3247015   0.1636255
  -0.0222596   0.3983973  -0.1101349  -0.9228087   0.2001250   0.1486575
   0.0780051   0.2444122  -0.1050471   0.2076971  -1.3464599  -0.7553227
   1.1150058  -0.9769241  -0.4220501  -0.2467601   0.0512996  -0.0208062
   0.2985866   0.7267612   0.9262293  -0.7694379  -1.9768112   0.6398183
   0.0601623   0.0203744   0.2138996   1.5376028   1.6300774   0.2717156
  -0.0946691   2.6668076  -0.2127790  -0.0278322  -0.1932206  -0.1129982
  -0.0903640   0.8252736  -0.5403084   0.0542411   0.4860257   0.0017618
  -0.2890857  -0.1012531   0.1075462  -0.3480640  -0.1123538  -0.2522710
   0.0372504  -1.1398537   0.5116309  -0.0215069  -0.0338129   0.1448197
  -0.1983927  -0.1351289   0.2310142   0.5347141   2.3864880  -0.0993228
  -0.1252186   0.2572457  -0.2816020  -0.1296304  -1.7028818   0.4145722
  -0.3555024   1.6554895  -0.5622459  -0.4454244   0.0799541  -0.0878333
   0.6360854   0.3199944  -0.1555052   0.2972792   0.7157747  -0.2118324
   0.2487355  -0.1579866  -0.0210414  -1.0005484  -0.1410447  -0.9436013
  -0.4620125  -0.4547316  -1.1544417   0.0075643  -0.0562329   0.2241648
   1.8445700   0.2237341  -0.8086758  -0.5959956  -0.1684563  -0.4719755
  -0.0969489  -0.0311683   0.0364419  -0.6166388   0.7067479   0.1471728
  -0.2166718  -0.7227312   0.4920558  -0.0244546  -0.3028835   0.1972269
   0.2535416  -0.6058572   0.0618566  -1.7651731   0.8858080   0.7491898
   0.1688019  -0.2853149  -0.3302490   1.0842545  -0.6221655  -0.3965335
  -0.7236561   0.3440538  -0.8036659   0.1800675   0.1839566   0.0893162
  -0.9991538  -0.1080738   0.3845001  -1.1835998   0.2087659  -0.2145806
  -0.0557542  -0.1132784  -0.0378185  -0.9244093   0.9745234  -0.8621574
  -0.5815634   0.9392146  -0.6512687  -0.0167742   0.0167121   0.0930267
  -0.7294055   0.1703368  -1.3683390   0.1736044   0.0154151   0.4181068
  -0.2163040   0.2822470   0.4155386  -1.3120195  -1.1935936   0.5370337
  -0.7771317  -1.0983136   0.2568942   0.1298085  -0.0133386   0.3348882
  -0.7734060  -0.4848618  -0.5519982  -0.1116644  -0.8902008   2.1363569
   0.2250226  -0.0775524   0.1174404   1.0617476   0.5167422  -0.4858211
   0.0450688  -1.1674364  -0.6631600   0.0853497   0.3488996  -0.0848248
  -0.5251778   1.5999689  -0.8277180   0.8896754   1.0359508   0.3427263
   0.0627947   0.0279908  -0.2000684  -0.8297172  -0.8915092  -1.5302193
   0.7229215  -0.4816776  -0.7758669  -0.1102397   0.1274360   0.5019974
   0.7200689   0.6638927   0.1376563  -0.6915830   0.0445396   0.4561676
  -0.2036080   0.0354833  -0.1394746   0.4894388   0.8426720   1.5818602
  -0.6834154  -1.2006901  -1.2971369   0.0805977   0.2484094  -0.0578262
  -0.7129645  -0.8819530  -0.1804763  -0.5886235   0.3683635   0.3369962
   0.2936975  -0.0699711  -0.2629261  -0.6183804  -0.3710776  -0.2512858
  -1.4249514  -0.9737590  -0.9150970   0.4078396  -0.3703668   0.4238771
  -0.9214740   0.3837312  -1.4368757  -0.1342146  -0.8427748   1.2528898
   0.0259645  -0.0057455  -0.0098918  -0.4398118   0.4437984  -1.0379209
  -0.7680092   0.1571762   1.0473642   0.1159002   0.5331048   0.0396501
   0.5715312  -1.0413650  -1.5343678  -0.2755677   0.2232689   0.0100282
  -0.0065703   0.1817601   0.0517000   0.0564377  -0.1853437  -0.8674356
   0.2635844  -0.8276135   0.3692823  -0.0363438  -0.3986119   0.1511920
  -0.0378827   0.7347653   0.3884517  -1.1269563  -0.0904570   1.0484610
  -0.1717997  -0.0804321   0.1272841   0.5797120   0.8361268  -0.3379073
   0.5768610   0.1867284   0.4304866  -0.3591252  -0.0420324   0.1004338
  -0.0027049   0.4034750   0.3478462  -0.4596449  -0.2913968   1.1579714
  -0.1339754   0.2621120   0.1937371   0.1326452   1.0695206   0.3034289
  -0.1491551  -0.3071536  -1.1335018   0.2934073  -0.0729880  -0.2423028
   0.0086108  -0.4458114  -0.2140671   0.1888213   0.0973673   0.2443443
   0.0077293  -0.0134634   0.2832313   0.0107609  -0.0970328  -1.3952016
   1.1133632   0.3787812   0.7943527  -0.3335242   0.0893933  -0.1563353
  -0.2997675   0.1762439   1.7843802   0.7154074  -0.9207183   0.0051698
   0.3257326  -0.0046125  -0.0194254   0.4691128   0.5536372  -1.0686613
  -0.3311890  -0.6519849  -0.3834700  -0.1093307  -0.2749575   0.0144613
   0.8907820  -0.9395588  -0.1928494  -0.6820147  -1.1116003  -0.9502441
   0.1095753  -0.1761429   0.1948738  -0.1787242  -0.1234404  -0.3262135
  -0.3913253  -0.4826798   0.7034464  -0.2375345   0.3206498  -0.0872575
   0.7656545  -0.9509792   0.9530026   0.4428421  -0.3042706   0.3309865
  -0.0367101   0.2130122   0.1519719  -0.2329478  -0.0755203   0.4863491
   0.5694244   0.8228960   0.4190741  -0.1641046   0.1808823   0.0214125
   1.2839801  -0.6662698  -1.4386291   0.3093490  -1.2168938  -0.0337271
   0.2516975   0.0210394   0.0998142  -0.1317306   0.6404776  -0.1448900
   0.2167571  -0.6729575  -0.0646834  -0.0819041  -0.4205606  -0.2119348
   0.3645498  -0.2772582   1.2427589  -0.3306886  -1.2742642   0.5371966
  -0.0589331  -0.0061201   0.0469904  -0.5606035  -0.0224909   1.2753450
  -0.1020977   0.1310233  -0.3531506  -0.2727197   0.3602489  -0.2210978
  -0.0053978   0.3413514   0.3240876   1.0300447  -1.0283619   1.1066946
   0.0885515   0.1023472   0.0747393  -0.3917378   0.4639763  -1.8700875
  -0.1367584   0.4051961   0.0073365  -0.1949382   0.0366553  -0.1298328
  -0.2507511   0.1170899   0.5507391  -0.5200714  -0.5136772   0.3487888
   0.1637899  -0.0139111   0.2318130   0.1530602  -1.2641478   0.8581240
   0.2549033   0.6803718   0.5204062  -0.2541484   0.0276236   0.2532625
  -0.6912563  -1.4177414  -1.0563414   0.8897762  -0.1019242   0.8386399
   0.0219040   0.1121469   0.0408809   0.0135449  -0.2166975   0.6391001
  -0.4295109  -0.3238164  -0.2052532   0.0489542  -0.1026879  -0.3326727
   0.1765806   0.1519577  -0.2893143   0.8243927   0.2645102   0.2655450
  -0.0652857   0.0049331  -0.2141301   0.9539855  -0.0273255  -1.4986591
  -0.0494086   0.3153525  -0.2232315   0.0590604  -0.1266813  -0.0605251
  -0.5639878  -0.0777012   0.4827976   0.4412314  -0.9337552   0.8341523
   0.0194325   0.1150524   0.0571486   1.4708105  -0.5917946  -0.2476276
  -1.2047045  -0.5184405   0.1450477  -0.0730231   0.1491407  -0.0299388
  -0.0798021   0.0683626   0.0460889   0.1265778   2.1748897  -0.2627271
  -0.0616531   0.1409950   0.3409981  -0.2904674  -0.1338811   0.0626682
   0.5718116  -1.0229570  -1.1478017  -0.0251504   0.0019098   0.2851408
  -1.3128086   0.9016272   0.7228716   1.6390319  -0.6225327  -0.4691813
   0.0459572   0.0930007   0.1566907  -1.8027492  -0.2094112  -1.1038398
  -1.1800093   0.4646831   1.3560764  -0.1052509  -0.1222300  -0.2179259
   0.4289711  -0.2177268  -0.8392334   1.1846007  -0.1271258  -0.0619031
  -0.2790224   0.1841590  -0.0229344   0.5078322  -0.4244818  -0.2291383
  -0.1639312   0.2979884  -0.8136314  -0.1065693   0.3038244   0.1542853
  -0.6810194  -1.3140413  -0.2162923   0.0375542   0.5412766  -1.0191451
  -0.1538130  -0.0301690   0.1593496  -1.1625901  -1.1400234  -0.2393881
   1.4372061   0.3584841  -0.5734226   0.1985426  -0.2120992   0.0319374
  -0.1859803  -0.2897558   1.2206175   0.7669742  -0.3734245  -0.2950203
  -0.3519464  -0.1128912   0.1695271  -0.4701915  -0.4336584   0.8554096
  -0.7163305   0.0602060  -1.2267988  -0.0815906   0.1468327   0.2416361
  -0.0477599  -0.5186130   0.5051182   1.4213946  -0.1204498   0.3025133
  -0.0369408   0.0097988   0.3296374   0.0351336   0.0342253  -0.1280693
   0.0015700   0.0939831   0.1651847  -0.2983111   0.1375472   0.0003865
  -0.6397581  -0.5684625  -0.7068948  -0.3234352   0.0539910  -0.2862176
   0.1018807  -0.5825145  -0.1708552  -0.1035805  -0.8780346   1.0135281
  -0.0093678  -1.0474097  -0.2160555  -0.2280159   0.0869104   0.2046010
  -0.5917547  -0.4219536   0.2061787  -0.6659981  -0.3844508   0.4880118
  -0.1262397   0.2982008  -0.2072650   1.8401403  -0.2310698   0.0243262
   0.0291545  -0.6667313   0.3408429  -0.2061362   0.1868563  -0.4412674
  -0.3419587   0.2236203   0.3842371  -1.9990844   1.8342290  -0.7940007
   0.1019549  -0.0956473   0.3042498   1.1705792  -1.0808185   0.4502030
  -0.3073566   0.7973445  -0.3886234  -0.0317926   0.0669658  -0.2300127
   1.3558445   0.2278465   1.2081699  -0.3326295  -0.3771293   0.3012741
   0.0182687   0.1924194  -0.2893104   0.3836433   0.8179145   0.5504340
  -0.7249790  -1.2017965  -1.3419918   0.3748038  -0.1006592  -0.2172682
   1.0770783  -0.5511490   0.2417783   1.1647348   0.2137834   0.3624345
  -0.1902226  -0.1506254   0.1896083   0.0035290   0.5664623  -1.5718759
   0.2896600   0.6942319  -0.3052969   0.3032552  -0.0688439   0.2795989
   0.0793320  -0.0000358   0.5490105   0.7043012  -0.2379964   0.8106893
  -0.1390592   0.1164252  -0.1106692  -0.9741874  -1.3317805   0.5601291
  -0.6872909  -0.1948113   0.0685391  -0.0296484  -0.2708498   0.0003758
  -0.9686515   0.5104018   0.4408805   1.1722294   0.8653257  -0.2028024
   0.1637119  -0.0507889   0.0672211  -0.5008874   0.0872494  -0.6335233
  -0.4583258   0.2032796  -0.3929896  -0.3279711  -0.0462229  -0.0075572
   0.9417067  -1.4649966  -0.6312528   0.5747104   0.7825109  -1.3144458
   0.0864045   0.2637253  -0.0741364  -0.1818476   0.2686390  -0.3218961
  -0.6433444   0.2089791  -0.9272837   0.0456733   0.1681183  -0.0279342
  -0.8943262   0.2896985   0.2215987   0.6230194  -1.2884017   1.1292193
  -0.2591295   0.2167025   0.2028804  -0.6355078  -0.1085261   0.4595191
   0.3446471  -0.5128298   0.1584664  -0.0581546   0.3160375  -0.3068812
   1.0693386  -0.3884988   0.2276404  -0.7707234   0.2478509  -1.2165873
  -0.1959989  -0.1797082  -0.0061670  -0.8544971  -0.4212641  -0.0449374
   0.5399961   0.8763879   0.1170522  -0.2162769  -0.1273173  -0.1136594
  -0.8982344  -0.9035614   2.0838093  -0.2055685  -1.0397955  -0.0691160
  -0.0585939   0.1368217   0.2691895   0.4562943   0.3093332   0.0851781
  -0.2852348  -0.3666802  -0.5177960   0.2527663   0.0250417  -0.0422526
  -0.2214363   0.1484081  -0.2901154   0.2053085  -0.0253620  -0.4097667
  -0.2387252  -0.1049901   0.2015116  -1.1446164   1.4604700   2.2159214
   0.3329315   0.4139086   1.1849797  -0.0644022  -0.0261226  -0.0979617
   0.7589768  -0.4335534   1.0230469  -0.0845474   0.4009094   0.6183100
  -0.0236200  -0.2360873   0.1886575  -0.1935955   0.1320927   0.4398363
   0.3379501   1.4750081  -0.1978687   0.0943193  -0.3258448   0.2129241
   1.7692968   0.0816595  -0.1091171  -0.7484743  -0.0299909  -0.4075049
  -0.2247033  -0.1469524  -0.0256613   0.1725884   1.0241042  -0.6619260
   0.7123911  -0.8182086  -0.0942907   0.0094222  -0.3124330   0.1325982
   0.2456414   1.2743281  -1.0569848  -1.0472785  -0.6387443   0.0590183
   0.1770814  -0.2712563   0.0849497  -0.0819596  -1.3556405  -0.2893996
  -0.1798871  -0.4134104   0.4057229   0.2194426  -0.3797147   0.0120466
   0.1628161   0.0880244  -0.2481197   1.8996980  -2.1798473   0.6945419
  -0.2463582   0.0146244  -0.1261317   0.4217902  -0.6867093  -0.9765397
   1.1454045  -0.4244901  -0.0280414  -0.0557740   0.1929376  -0.1172691
  -0.9740824   0.4135086   0.4532128   0.5327453   1.0486239   0.3589173
  -0.3353671   0.1992688  -0.1897841   0.4153012   1.0608638  -0.7787797
  -1.0337322  -0.0317318   1.1674672   0.1771019   0.2269392   0.1871942
  -1.4700638  -0.1979266   0.0441926   0.3506418   0.6076896  -0.9375878
  -0.0392734  -0.0360096  -0.0707517   0.0668238  -0.8127726  -1.6037152
  -0.2534519  -0.5081474   1.4216689  -0.0648481  -0.2026207  -0.0712496
  -0.4128658  -0.2612063  -1.0024958   1.3260703   0.4665798   0.9424474
   0.1542760  -0.1508671  -0.1474791  -0.0439648   0.8713827   0.0184844
  -1.5154378  -1.7131944   0.2235958   0.0806261   0.2096459  -0.2648640
   0.5013904  -1.0752967   0.4989024  -1.5048952   0.3533568  -0.2278534
  -0.0382177  -0.0229818  -0.0654273  -0.0003046   0.4936510   0.5385497
   0.2539686  -1.4411674   0.1358559   0.0742097  -0.1025125  -0.0686301
   1.0124589   1.5157513   1.0177122   0.2927882  -0.0930845  -0.0067887
  -0.0963726  -0.0210990   0.3485051   0.3164805   0.7776372  -1.8080993
  -0.6167675  -0.0390751   0.1592898   0.0458950  -0.2365552  -0.2889642
   1.5673220  -0.7953527   0.2588538  -0.8521407   0.4095672   1.2532621
  -0.2772547  -0.0316011  -0.2406413   0.1304105  -0.0200312   0.5947762
  -0.5164272   0.1781453  -0.4110710   0.0492662   0.0069495  -0.2498188
  -0.2492115   0.5443196  -1.5219931   0.2161684  -1.0636114  -0.6573139
  -0.2866068   0.1414588  -0.1271265   0.8898094   0.8262951   0.5174683
   0.6877791   0.1433114   0.2064301  -0.0452442  -0.1227569  -0.0873468
  -1.6563732   0.7221933   0.5833757   0.2012498  -0.7954369   0.5024182
  -0.1026695   0.2883877  -0.1377950   0.4155736   0.3645431   1.9647507
  -0.4297031  -1.3072008  -1.4947727  -0.0926345  -0.0286834  -0.3065946
  -0.0646526   0.2451461   0.5928934  -0.4700161   0.5948608   0.5153265
   0.1106473  -0.3117894   0.0016821  -0.4102817   0.8635183   0.1465526
  -1.1788656  -0.3037053   0.1485762  -0.4045532  -0.3935241   0.1141884
   1.4919045   0.3218704   1.1269664  -0.3903713   1.0527889   0.4376546
   0.0340140  -0.0507652  -0.1608831   0.9689691  -0.2453629  -0.6586345
   0.4568175   0.6848685  -0.0033315   0.2161506   0.0801712  -0.1500502
   1.1542283  -0.3944941  -0.9978210  -0.1947682  -0.2167631   0.0111102
  -0.1102512   0.0474867  -0.0176855  -1.0602558   1.0017312   0.5015545
   0.1521122   0.7222010   0.1187669  -0.5153385  -0.1503679   0.0947705
  -0.1125913  -1.1327440   0.6814405  -0.0236420   0.0823396  -0.0490372
  -0.3089136   0.1782149  -0.1946903  -0.9081182  -0.6107884  -1.5121310
   0.3035450  -0.1334876  -0.0608196   0.0186926   0.1858377   0.0330282
   0.4660737  -0.1069143   0.1913069   0.1378162  -0.7716726   0.4863510
  -0.1066919   0.0478186   0.0166928   0.3382829  -1.4786818   0.1919990
  -0.3217046   0.6455678   1.6735151   0.0452943  -0.0040438  -0.1672121
  -0.7952597  -1.1455065  -0.8195981   0.8071714  -1.7238777  -0.0270366
  -0.0585416   0.1634108  -0.0562309  -0.7008239  -1.0550979  -1.2504509
  -0.0593812   0.0772314  -0.2360763  -0.0071713  -0.0352746  -0.1671878
  -0.5648491   0.0396837   0.2126544  -1.3413687  -1.0438185  -0.5904850
  -0.0810202  -0.0450486   0.0902284   0.7485358  -0.9633725  -1.0522354
   0.6414783   0.2831289   0.0146744  -0.2101366  -0.2255874  -0.1964332
   0.8214419  -1.2152630  -1.4587455   1.6399654   1.2087225  -0.8130724
  -0.1183653   0.1346947   0.0650783  -1.1462260  -0.7408531  -0.0228971
  -1.2784183  -0.4879951   0.3890891  -0.0737252  -0.1026336   0.0503927
   0.1376081   1.3105084   0.4441560  -0.3018100   0.2712835  -0.7266662
   0.0433098   0.3276359  -0.0769535  -1.5066316   0.5853225  -0.1589749
  -0.4126220  -0.7665039   0.4892592   0.0933252  -0.2443850   0.0389435
   0.1968419  -1.0549278  -0.9930341   0.7870818  -1.1137007   1.0029235
   0.1924510   0.3476158   0.0038498  -1.5100567  -0.4717692   0.7104176
  -1.2218304   1.2626391   0.3644205  -0.1547701  -0.0309757   0.0577564
  -0.3062249   0.4098501   1.0143322   1.2944175  -1.1934023   1.1675290
   0.0631540  -0.0068413  -0.0629650  -0.4767137  -0.2432706   0.4466891
   0.6667170   0.1682168  -0.5312686   0.2731563   0.2562895   0.2140900
   0.0196059   1.0035987  -1.0616524   0.2270750  -0.2538126  -0.7241728
   0.1844670   0.3834503   0.3810124   0.4181692   0.0339204  -0.2185943
  -0.6929568   0.6563708  -1.2289757   0.0653666   0.1559700   0.1342900
  -1.5157760   0.9922666   2.5999966   0.3050848   0.3075145  -0.5436942
   0.0491213   0.4711611  -0.4765599  -0.9270032   0.5169116  -0.1108959
   0.2099186  -0.2679464  -0.7900839  -0.1280894   0.1554343  -0.1972036
   0.3410898   0.7917218   0.5043548   1.1758096   0.5522645   0.4175905
  -0.2316059  -0.2149475  -0.3021497  -1.8560539   1.2353580  -0.5895986
  -0.6576430   0.5505222  -0.6281848   0.0323689   0.1059880  -0.2458861
   0.5772623  -0.3772505   0.5663890  -0.4297840  -0.3474068   0.0872159
  -0.0562385  -0.0535456   0.1630277  -0.7942107  -2.0198942   0.0124764
   0.5126187  -0.0136014   0.1574793   0.1023914   0.2695214   0.0035822
  -0.6296017   0.4189019  -0.3441787   0.7137634  -0.5921046  -0.1479556
  -0.1648564   0.3650448  -0.1390201  -0.5305931   0.9458711  -0.5241159
  -0.6691908  -1.0007541  -0.6843970   0.1922564  -0.1556921  -0.2292848
   0.7019517   0.0938749   0.0762139   0.1340037  -0.5662717   0.0833795
  -0.2895034  -0.0995950   0.2828919   0.4359858   0.9953022   0.4693218
   0.2664474  -0.1422912   1.1190974  -0.2233118   0.0843124   0.3728953
  -0.0311978   0.4453403   0.4711328  -0.3279313  -0.6076523  -0.4113392
   0.1793376   0.2886147   0.1118184   1.1228054   0.4926647  -0.7862363
  -0.0230304  -0.2817922  -0.5067573  -0.3427977  -0.1099935   0.1495361
   0.0152014   0.3793704   0.2615122   0.2315521   0.4443156   1.1375000
  -0.2808954  -0.2078189  -0.5121654   0.4271935  -0.9423183  -0.2907675
   0.9175972   0.5843316  -0.4430377  -0.5212001  -0.0532175  -0.1476876
  -0.7954579  -0.7205537   0.6985677   0.6784895   0.1317190  -1.3314593
  -0.0145472   0.4277547  -0.0233909   1.4001564   0.2790686  -1.3069627
   1.1809568  -0.9565369   1.1495553  -0.1181524  -0.0912650   0.3349739
  -1.3732882  -1.1239131  -0.6100378   1.0065235  -1.3350511  -0.7720327
  -0.0052731   0.0445127  -0.0433504   0.7853291  -0.1766254  -1.4381023
  -1.4585182  -0.4030179  -0.1192261  -0.2746075  -0.2338337   0.3513171
   0.3806073   0.6219970   0.4759070  -0.9765056   0.1007889  -1.9595633
  -0.0686427  -0.0379763  -0.1526764  -0.6513421  -0.2201360  -0.0955875
   0.8309341   0.3795000   0.1569902  -0.1872794   0.0267552  -0.2364580
  -0.2207155   1.5004067  -0.0994304  -0.1507965   0.7774545   0.7904410
  -0.0963682  -0.1778658   0.0156790  -0.3585496  -0.4317861   0.2131613
   0.1316496   0.4382056  -0.9273446  -0.0471852  -0.0484010  -0.1858373
  -1.1763097   0.7300229  -0.7944773  -1.4019081  -0.1456879   0.7464553
   0.0109425  -0.0277464  -0.1678819   0.9512781   0.6105968   0.3319369
   0.7381201  -0.5488970   0.6058802   0.0620223   0.2216703   0.1838547
  -0.2273326  -1.7378833   1.0832717   0.4266088  -0.5583896   0.7459404
  -0.0621765   0.1923759  -0.2292265   0.1255756   0.7571824  -1.7436182
  -0.3227694  -0.2942955   0.3795086  -0.1569946  -0.3529000  -0.2609441
   0.0044823  -0.0145777  -0.1372316   0.3369388  -1.0656578  -0.6982167
  -0.0774795  -0.0526634   0.1348533  -0.3496985  -0.0259564   0.6054008
   0.8565263  -0.1061509   0.2696986  -0.2372797  -0.2695019  -0.1124549
   1.5789715  -0.0820339   0.1161223  -0.4495052   0.9578775  -0.0739636
   0.1365582  -0.1661771   0.0567345  -0.1034780   0.7929084  -0.7750063
  -1.1775799  -0.7991042  -0.7242924   0.2660465  -0.0760650   0.0892226
   0.2606767  -1.1470044  -1.2586813  -0.9272591   0.6007512  -0.0553453
   0.1123832   0.0035314  -0.0562901   0.0681082  -0.0575018   0.6068009
   0.1032680  -0.5318108  -0.5259432   0.1211957   0.0109938  -0.1550772
  -0.5259176  -0.2809846  -0.7577074   0.7695264   0.9491221   1.0287667
  -0.0183551  -0.1460246  -0.2628186  -0.0752384   1.1078879   0.5647854
  -0.8841273  -0.1938841  -0.5624912   0.0106131  -0.0164043  -0.2627896
   0.8590958  -0.2754546   1.4705173   1.9184570  -0.1695203   1.0677590
   0.1865821  -0.0771698   0.1328799   0.2789121   0.4732171   0.0275095
  -0.3477432  -0.7238855  -1.0794427   0.1108026   0.1921617  -0.1121159
  -0.6065547   0.3526188   1.2427894   0.7455598   0.0965461   0.0567242
   0.1455811   0.1261977   0.0800003   0.7194500   0.0270139   0.1031139
   1.2725237   0.3530255  -0.2577898   0.0313156   0.0676579   0.3530536
  -1.1765512  -0.6297592   0.7226456  -0.0466025   0.1513125   1.1780982
  -0.2255464   0.0173930   0.1703888  -1.3430653   1.6005192   0.5382838
   0.3765060  -0.1925794   1.1318162  -0.1097755   0.1708836  -0.1973688
   0.0543552  -0.8860786   0.4059661   0.9975891   0.5455755  -0.4054787
  -0.2262269  -0.0478697  -0.0296776  -0.0752911   0.5856697  -0.0239070
  -0.8239670   0.2892787   0.2677053  -0.0923127  -0.1055621  -0.1891686
   0.1528987  -0.6803317  -1.0531610  -0.6145591   1.6954791  -0.8329981
  -0.0782180   0.0516672  -0.1000894   0.6298741   1.0450873   0.8647756
  -0.2089668  -0.3508094  -0.4408931   0.2454609   0.5247308   0.2493699
   0.6744447  -1.6615997  -0.8447477   1.0494122   1.0457372   0.5689493
  -0.0377365   0.1047229  -0.2206829  -1.2030052   0.4324854  -0.1904676
   0.7519463  -0.1429225  -0.3325973  -0.1699272  -0.0850942  -0.0747791
  -1.6285638   0.7527586   1.2801414   1.5849816   0.3044493   0.3201920
  -0.4119455  -0.2329862  -0.2753165  -1.1485605   0.0461343   0.5221153
  -1.5178830  -0.4641204  -0.7003087   0.0923225   0.1127803  -0.2695567
   0.0202106   0.2823274  -1.4296178   0.4270680   1.3990781   0.6928664
  -0.0035539  -0.2383681   0.0419815  -0.2059639  -1.1343707   0.7405767
  -1.0369089  -0.0415859   1.3691374   0.1183192  -0.0733952   0.2102417
  -0.7606531  -0.2644502  -0.5304971  -0.5350700   0.0914062  -0.0469504
  -0.1415869   0.4109822   0.2509363   0.0307487   0.7042265  -0.9907661
   0.3246974   0.9328757  -0.2403945   0.0575693   0.1465211  -0.0130517
   1.4973824  -0.5247001  -0.3772601  -0.5656018   0.6840645  -0.4740792
  -0.2703586  -0.2842802  -0.0617308   0.1043966  -0.0802702   0.3140434
   1.0239199  -0.2629366   1.0614611  -0.0564162  -0.1377770   0.2092391
   0.1855716   1.1161049  -0.0969536   1.3382419   0.3733905  -0.1116305
   0.0718643  -0.2921489  -0.0815806   0.7455130   0.3337535  -0.0229476
  -1.7121500   0.8484312  -1.3219050  -0.2751239  -0.2671414   0.1504822
   0.4160705   0.8369509  -2.9576096   0.0275137  -0.0327397   1.4173229
  -0.1562286   0.2730356  -0.3121067   0.1901431  -0.4094768   0.5153900
   1.1914080   0.3381755  -1.0747456  -0.0557198  -0.2526798  -0.0215055
  -0.7611487  -1.4272822  -0.4729943   0.0868786   0.8182511  -0.7136326
   0.0188751   0.0006652  -0.0106552   0.0190694   0.4618393   0.7125630
   0.2664582  -1.0893287  -1.1915963  -0.2957958   0.6836857  -0.5131578
   0.0629421   0.2144480  -0.5112673   0.1606585   0.5104761  -0.8491381
  -0.1802076  -0.1427398  -0.1659455   1.3438998  -0.3576685  -0.6045834
   0.4583974  -0.6474382   1.7643497   0.1306287  -0.0244153  -0.0591103
   0.3966964   1.7350216   0.9473305   0.6816428  -0.8184685   0.0194522
  -0.1423097  -0.0859065  -0.0090768  -1.0870016   0.5517565  -0.5781466
  -0.8591786  -0.3832058  -0.6192069   0.2635622  -0.2437529   0.3453139
   0.3988374   0.3757354  -0.5210108   0.7467289   0.0888034   0.0890703
   0.0341807  -0.0450236  -0.2372859   0.7508398  -0.7570954   0.1824447
  -0.3678760  -0.8962110   0.2701497   0.0036042  -0.0044947   0.2340448
   1.1655288   0.2431731  -0.0353073  -1.0979852  -0.3549691  -0.0408881
  -0.2109545  -0.1692136  -0.0876644  -1.2180419  -0.9998935   0.8350887
   1.4306024   0.3740526  -0.4372212   0.3080599   0.0930251   0.3434073
  -0.1672684   1.1025653   0.0874221  -0.8124672   0.6368705   0.5748590
   0.1719135   0.1416894  -0.0413708  -0.4672895  -0.9784005  -1.0082576
   0.7283216  -0.7583366  -0.7132906   0.2139937  -0.2215088  -0.1745218
   1.8249758  -0.7513020   0.0771487   0.2870651   0.7220603   0.6509867
  -0.1625255   0.4190981  -0.1813549   0.0723041   0.8026248   1.4189826
  -0.7967656  -0.2865399  -1.0362989   0.3491754  -0.4346228   0.1641483
  -0.2665441   0.2348265  -0.1278950  -2.0350955   0.2151709  -1.9060446
  -0.0686218   0.4332198  -0.1326761   0.3158836   0.2988408  -0.1518495
   0.1309452  -1.7247987  -1.2871077   0.3144945   0.1341112   0.2951411
  -1.0950861  -1.2423138  -0.5932790  -0.7565340  -0.2276857  -0.8188643
  -0.1139922  -0.2367995  -0.0586737  -0.1163274  -0.1658597  -1.3659191
  -1.7990411   0.3204834   0.1741756  -0.0090108  -0.1434702  -0.1785988
   0.3630902   0.8079479   0.3966196  -0.3082585   0.5126597   0.6977024
  -0.2489966  -0.0994717  -0.2023569  -1.0624181   0.0762676   0.1143337
   0.7232838  -1.0019121  -0.6355697  -0.1878945   0.2916215  -0.3861387
  -2.0270514   0.0917618   0.5503245   0.2272739   0.1761214   0.4228164
  -0.1262900   0.1292856   0.3461334   0.5883637   0.1121602   0.2850319
   1.2168378   0.5123469   0.3775738   0.3300150  -0.0731809  -0.0986304
   0.7486587  -0.4329836  -0.9470197  -0.4301008  -0.3135162   1.4355669
  -0.0126997   0.0309201  -0.4463987   0.3259925  -0.9383506   0.6242147
  -0.9265155   1.5770813   1.0716453   0.1373969   0.1018840   0.0798146
   0.4846133   0.7767922   1.1688084   0.8906272  -0.8871193  -0.1324446
  -0.0610734  -0.0674459   0.1400383   0.2194563  -0.6402331   0.1855741
  -0.9334176  -0.5219660  -0.2442940   0.0441848   0.2802778   0.1285525
   0.0330842  -0.2799398   0.6538537   0.2589889  -0.8208216   0.3810777
  -0.1245319   0.1994904  -0.1272223   0.1043994  -0.3897255   0.3427077
   1.1434298   0.0438290   0.3766645  -0.3599813   0.1281023   0.1402034
  -0.4199819  -0.2820975   0.2171588  -0.8184497  -0.0565601   1.5077499
  -0.1495689   0.3001958   0.0157189   0.0734451  -0.9174480   0.0264216
   1.2332922  -0.3215810  -0.3249695  -0.0178274  -0.0051051   0.1470886
  -0.4250531   1.2466591  -0.3790409   1.0358826   0.3295911  -0.1152006
  -0.1559265  -0.0492642   0.2807552   0.1330261   0.2942468   0.2729603
   0.2218068  -1.0802381   1.2548904   0.2267725   0.2483391   0.0067300
  -0.7449584   1.0725964  -0.9267007  -1.0976534   0.5067566  -0.1631594
   0.1760548  -0.1681226  -0.2383247  -0.7081079  -0.1704791   0.7221497
   0.3033030  -0.9745213  -0.9223749  -0.0777828   0.0238860   0.0629928
   0.3825988  -0.8161781   0.0674088  -0.8121173   1.3783741   1.3596726
  -0.0749958  -0.2716711  -0.3353874   0.1016289   1.2774754  -1.2781320
   1.3790153  -0.2195371  -0.6495524   0.0403575  -0.2245737   0.1019946
   0.5084515   0.0198696  -0.0710991   1.0131324   1.2046135   0.6432476
  -0.0681251   0.0854568   0.0823354  -0.2486645  -0.6918581  -0.4348049
   0.2359787  -0.1662214   1.2371269  -0.2246974  -0.1733034  -0.1801313
  -0.1081478   1.1340502   0.0326817  -0.8396487  -0.0941466   0.6181947
   0.1558095  -0.3431328  -0.3624010  -0.4642563   0.4745910   1.3665350
   0.3972883   0.2925987  -0.1516150  -0.2161796   0.1298542  -0.2238402
   0.7706564   0.3224404  -0.4658156  -0.5796166  -0.3726885  -0.1524774
   0.1149820  -0.0519480   0.3021221   0.6914705  -0.6092278  -0.2233568
  -0.3011258  -0.4059842  -1.0392457  -0.0127600   0.1281547   0.0150690
   1.5448737  -0.0916282  -1.0070639   0.7745896   1.4241160   0.0912816
   0.2456285  -0.4614281  -0.1750638  -1.0349999  -0.7922584  -0.4255323
   0.3538702  -0.1568537  -0.0702229  -0.0900402   0.0489332  -0.2871379
   1.7517844   0.0442453  -1.1484680   0.5038684  -0.5773210  -1.2008444
  -0.0628312   0.0828459  -0.1801085   0.0048637  -0.8222073  -0.7461331
   0.3233139   0.1104657  -0.6786166   0.0357792  -0.0160603   0.3742778
   0.9469955  -1.9032486   0.3290157  -0.5089371   0.4667357   1.4604608
   0.2107845   0.1304691   0.4833346   0.2442855  -0.8869015  -1.6196492
   0.6356892   0.5192969   0.3485497  -0.0512056   0.1870933  -0.0327084
   0.5445443  -0.2291213   0.8756482  -0.0835112  -0.8536673  -2.0782371
   0.0890754  -0.1379764   0.1272958  -0.0880497  -0.5224383  -1.4884872
   1.7351299  -0.5581039   0.9473158  -0.0564430   0.1154488   0.2976817
   1.2168745  -1.0122809   0.0168293  -0.0041529   0.5829477  -0.1535223
   0.1165332  -0.3361773  -0.1627620   0.8670196  -0.4960231  -0.1628479
  -0.9280617  -0.2054999   0.8298015   0.1290038   0.0045353  -0.1833063
  -0.2994715   0.2080742   1.0754368  -0.7966327  -1.7839709   1.2660718
   0.1120892  -0.0068019  -0.2391979   0.0065731   1.2374520   0.1185570
  -0.4383829  -0.5918677  -0.1212219  -0.0396706   0.3018463  -0.1288240
   0.6455888  -0.0006972   0.0524701   0.0901591   0.5712787   0.4440154
  -0.2013172  -0.0133860  -0.0687736   0.2934327   0.2126784   0.0708568
  -0.6098579   0.2506671   1.2910416   0.2696776  -0.3276387   0.3320584
  -0.2024046   1.2928370  -0.3999193  -1.7560078  -0.6469224   1.7619026
   0.1741555   0.1500224  -0.1596258  -0.3860890  -0.8884046  -0.0986407
  -0.2831154  -0.6667468  -0.1349145   0.0933644   0.2910637   0.3761789
   0.0755524   0.1620462   0.3663607   0.3173584  -0.4625028  -0.7108673
  -0.0557154  -0.2279848  -0.5700767   1.0856320   0.7129414  -0.3509292
   0.3822603  -1.2975150  -0.3423600   0.2434939   0.2064044  -0.0478133
   0.7475155  -0.3826218   0.6174181  -1.4610262  -0.0962494  -1.6392444
   0.0720606  -0.1592135  -0.1311599   1.0566790   0.0876877   0.1633325
  -1.3857244  -0.3762569   0.2476156   0.0722052   0.2640103  -0.3090974
   0.1320020   0.2683120  -0.0072031  -0.7871862  -1.1870394  -0.4277453
   0.2629844   0.0319924   0.3237926   1.7498052   1.7099647   0.6432716
  -0.5858993  -2.0184519   0.1205937   0.2639430   0.1211579   0.0642079
   0.7512878  -0.1224908   0.4765916  -0.3140040   0.3442115   1.6090691
  -0.2879750  -0.0774309   0.4093534  -0.1088315   0.1781665  -0.4916932
   0.8143046  -0.0030090  -0.4853882   0.1459289  -0.2491797  -0.3584569
  -0.6761624  -1.0764843  -0.4890403  -0.0144039   1.1540649  -0.7739355
  -0.1386530   0.1240018   0.1305237  -1.9312109   0.0205428  -0.6705734
  -0.0277910   0.4576723  -0.2441109   0.0073452   0.0190094  -0.2699310
   0.5573950  -0.0402562  -1.5373514  -1.9234263  -0.3892515  -0.9200621
   0.0295839  -0.0005845   0.1974476  -0.1134540  -0.0502822  -0.6804064
   0.0705217   0.0403230   0.3612053   0.2016127   0.2240294   0.1890614
   0.6133079   1.0363135   1.0481026   0.5238405   0.3535060   0.6110509
   0.0308025  -0.0137352   0.3255475   0.4288979   0.5257092   1.1192198
  -0.3375047   2.2097019  -0.5852612   0.0476923   0.2709104  -0.1050364
  -0.3805048   0.9894737  -0.1919404  -0.2215826  -1.1242481   0.6273083
   0.4031138  -0.0987834  -0.1855973   0.8440752   1.2870197   0.3573196
  -1.0535472  -0.8855084  -0.4074917   0.2202275  -0.0153322   0.1234558
  -0.4459313   1.5147854   0.7826948   0.1047445   0.1800148  -0.2613744
  -0.2783889  -0.0061322   0.0074551   0.2060975   0.1663850  -0.7464488
   0.0567786   0.2329112   1.3025570   0.1980397   0.0758203   0.0575645
  -0.1271317   0.3116938  -0.6676277  -0.2094568   0.9955242  -0.0500408
  -0.0140431  -0.0543930   0.1477803  -1.7504838   0.1879001  -0.1058335
  -0.5096622   0.3966593  -0.6804179  -0.1632051  -0.0051574   0.5065478
   0.4833552  -0.2566243   0.8465875   0.0500679  -0.8666815   0.4560005
  -0.0349903  -0.1034049   0.1535661  -0.6181340  -1.1840198   0.7102490
   0.1319821   0.7124425   0.3123365   0.1192639  -0.0072558  -0.0973942
  -0.4515633  -1.3302591  -0.5132853  -0.6689007  -0.6555902  -1.4585434
  -0.1347159  -0.2135769  -0.0940332   0.3733052   1.2045375   0.6882022
  -0.8664799   0.0708882   0.7073967   0.0620683  -0.0552285   0.2175591
  -1.4945643   0.3663169  -0.6300038   0.0190429  -0.5123911  -1.0644258
   0.4685119  -0.1615175  -0.0097875   1.3574076  -0.0830947   0.5395770
  -0.2837494   1.6590701   0.1789302  -0.0327523   0.0187707   0.2277100
   0.6000516   0.8663216   0.2983948  -0.5460119  -0.9543986  -0.7231401
   0.1462123  -0.1506743   0.4687299   1.9534676  -0.6948641   0.3208889
  -1.1191225   0.2432341   0.1435554   0.3061283   0.1874884   0.1131579
   0.1197522  -0.5590548  -0.4378653  -1.1730355   0.2851876   1.5080067
   0.2804186  -0.1020230   0.2062118  -0.9053670   1.5315502  -0.1649543
  -2.7898673  -0.9122410  -0.9808600   0.1257724  -0.1225917   0.0161756
  -0.3750978   0.0178579   0.9332339   0.3727991   0.4431224  -0.4869686
   0.2407186   0.2906393   0.0314501   0.0071092  -0.5610387   0.8427160
   1.0799404   0.5014972  -0.3766170  -0.2305384   0.0426474   0.1370014
  -0.7377350   1.5231012   0.4563848   1.1914866   0.2920025  -0.1128153
  -0.2465608  -0.1634778  -0.1436463   0.3170463  -0.6457073  -0.5431692
  -0.1537620   1.4061449  -1.1075604  -0.1151593   0.0481295  -0.3913727
   0.1374967  -0.3338039   0.4138426   0.7080146  -0.2840304   0.6084111
   0.3520399  -0.0985515   0.2216748  -0.7108364   0.5770859   0.4242765
  -0.0806981  -0.0505863  -0.3736277   0.3208915   0.2208078   0.0304371
   0.3992610   0.3221496  -0.6134585  -0.5935565   0.0910410   0.5876720
  -0.2897404  -0.0983709  -0.3193818   0.0031431  -0.0616698  -0.4217584
   0.3387491  -0.3119559   0.4875187   0.0244562  -0.0812173   0.3363139
   0.9013139   0.2186372   0.0037734   0.3249517  -0.6145620   0.7574962
  -0.3853547  -0.0196093  -0.0860486  -0.8814700  -0.0662634  -0.5465367
   0.5238486   0.0396727   0.0864184   0.0927405   0.1081341  -0.0205109
   0.1325030  -0.5375021   0.2486605   0.3043581   0.2083075   0.2653020
   0.3530421  -0.2152956   0.1791707  -0.4417470   0.5169499   0.1519314
  -0.4925896  -0.3775128   0.5375981  -0.0560914  -0.0824278  -0.1082670
   0.6151450  -0.5828253  -0.2978592  -0.7383744   1.0719267  -0.1751331
   0.0546199   0.2398260  -0.4955306  -0.0067996   0.1740810   0.2550239
   0.1812842   0.4526577   1.3720701  -0.2940402   0.1159985  -0.0009533
  -0.1987601  -0.2729815   0.5754573   1.2110140  -0.6717150  -0.0870445
   0.1587787  -0.4425172   0.0524721   0.2223627   0.0511456  -0.0979165
  -0.8287487   0.2346737   0.3736132   0.1452734  -0.3787010   0.0700408
   1.2130145  -0.3383261  -1.4929605  -0.8535054  -0.1423430   1.0091449
  -0.1762472   0.2957137  -0.2136173   1.0833180  -0.0652264   1.2214305
   0.0924201  -0.5463402  -0.2722601   0.0059463  -0.0257842  -0.4263486
   0.0192614   0.9183518  -1.7555548   0.4688421  -0.2110813   0.3081071
  -0.2420947   0.0828597   0.0472565  -0.2622018   0.6550809   1.5961795
  -0.7026077   0.7080907  -0.0328921  -0.1120203  -0.1915393  -0.1250205
   1.0226417  -0.2103950  -0.1343448  -0.1291629  -0.3367280  -0.0174930
   0.0602062   0.0101293  -0.1350713  -1.2037554   0.0207740   1.2968114
  -0.9097170  -0.7332591  -0.1686083  -0.2062950   0.2269077   0.0045286
   0.6544670   0.2968671  -0.3120208   0.9668906   0.4334913   0.5832435
   0.0221498   0.0452316  -0.1185177   0.2670359   0.5382254  -0.0651820
  -0.0049558  -0.7712872   0.0928136  -0.0986765   0.1211426   0.2162228
   0.0099004   0.5404928   0.6465254   0.7187356  -0.3527223   0.6884475
   0.4502235   0.0699229  -0.3142347   0.8378421  -0.4716106  -0.7545753
  -0.0181408   0.1626361   0.8526451  -0.2069160  -0.0757199   0.0633825
   0.0220010   1.5984456  -0.9700518  -0.2232082  -0.4390363   0.3558632
  -0.2823000   0.1289302   0.2295888   0.8357566  -0.9372890   0.8945381
  -0.0290070   0.7101233  -0.3927975   0.0182072  -0.0891667  -0.1300249
  -0.6403009   0.0481926  -1.4952610  -0.5068255  -0.3185800  -0.0942358
  -0.4220654  -0.0385924   0.0694532   0.6289903  -0.4324734   0.6978276
  -1.1903305   0.0573242   0.2756958  -0.0659870   0.0911440   0.3034683
   0.9508699   1.0227287   1.5592131  -1.4809600   1.5323877  -0.1889104
   0.0185404   0.2617247   0.2936433  -0.6225146   0.3972492  -1.4717969
  -0.6228595  -0.2535289  -1.4482669  -0.0984635  -0.0329360   0.1139921
   0.5722881  -0.2730336   1.6677020   0.5007337   0.1880588  -0.5501204
   0.2087487   0.0472417  -0.2478941   0.3345328   0.0707881  -0.7559444
  -1.3355038  -1.2051632   1.0890450   0.0596812   0.0773882  -0.0577672
   0.5147830  -0.4101011  -1.0117833   1.2214519  -1.0081434   0.1823206
  -0.2262523   0.0120888   0.0639887   0.3861479   1.3544762   0.0947729
  -1.1158741   0.2567173   0.2011259  -0.1488936   0.1270278  -0.0192564
  -0.3067206  -0.2420988   0.0431021  -0.2328838  -0.9018245   0.0014118
  -0.0492178   0.1092617   0.1652446  -0.3368424   0.1806658   0.1162049
   0.9811383  -0.0501465   0.6238502   0.1715798   0.0276896   0.0660649
   0.2187109   0.2865831   0.7380020   1.7485022  -0.1771432   0.7413875
   0.0576576  -0.1443615   0.0883668   0.9633477  -0.6559465  -1.4056378
  -0.7158449   1.2439075   1.0543456   0.0036328  -0.0996489   0.1477590
  -0.1473005  -1.0034901   0.6650827  -0.5347560  -0.0477871  -0.7657494
  -0.1835327   0.0041866  -0.0004207  -1.0778939  -0.1365740  -0.9225847
  -0.3870819  -0.5125053   0.3499301   0.0817056  -0.2205439  -0.0177383
  -1.0003960   1.4684730  -0.8604344  -0.6887149   0.5585250  -1.7458620
  -0.2625487  -0.1322139  -0.1917572  -0.0511324   0.0605634   0.3411661
   0.0635205   1.4485997  -0.2958706   0.0243680   0.4817173  -0.0858722
  -0.1003080  -0.2116794  -0.1266420  -0.3515044   0.5153771  -0.7008163
  -0.0670477   0.0892454  -0.0868373   0.0506340   0.1845168  -0.2147976
   0.9538254  -1.1502763   1.2999483  -0.4038009  -0.2893053   0.1506687
  -0.7524438  -0.7270649   0.3563129   0.1236788  -0.8158247   0.9852490
   0.0403617  -0.0517806   0.1253255   0.4798099  -1.5730022   0.0231878
  -0.7144050  -1.3999047  -0.3101759   0.0618163  -0.1370890  -0.0397400
  -0.2229448   1.1412614   0.9983926  -0.8620661   0.9164204   0.2695265
  -0.1047599   0.0761705   0.4030652  -0.1093269  -1.3556427  -0.2526262
   0.1986631   0.5458652   0.9945007   0.1058944  -0.1689065   0.1571134
  -0.2503463  -0.6552187  -1.2746062   0.4971008   0.1177073   0.0418581
   0.1100031  -0.3420537   0.2139425  -0.0208833   1.6781100   0.1764039
  -0.3539358   1.2380124  -0.6379755   0.2568001   0.0347864  -0.2372344
   0.4805953  -0.7593660   0.8837019   0.1443517  -0.0609342   0.5343532
  -0.0022744   0.0329595   0.3263814   0.4446307  -0.1570372  -0.4398572
  -0.7160348   1.4680523  -0.7687946   0.2139637  -0.1042747   0.1910734
  -0.2361819   0.6541840   1.0667511   0.7654274   0.1499394   0.6583090
   0.4062565   0.2001268  -0.0052591   1.8148478   0.7552196  -1.1388746
   0.3027031   1.2003599   0.9888992   0.2819566  -0.2132446  -0.1537209
   0.1598256   0.3342111  -0.7875583  -0.1193941   0.1346916   0.4956197
   0.0773166   0.0967976   0.1822390  -0.5922621   1.2155075  -0.6671300
   0.3645366   1.1118035   0.3452743   0.2454234  -0.0676787  -0.1331495
   0.8520187   0.9139789  -0.8036808   0.6317315   0.2056785   0.5030256
  -0.0756331   0.3288644   0.0870722   0.5195387   0.8548706  -0.5554136
   0.8984067   0.1605087  -1.5550243   0.0651423  -0.3189693   0.2356136
   0.6188940  -0.9894437   0.2077890   0.1086866  -0.3208647  -0.1228027
  -0.0995051   0.1136472   0.1319202  -0.3689416   1.1985512  -0.8820636
   1.1055095  -1.4625243  -0.1644824  -0.1113300  -0.2612207  -0.0251479
   0.2315090   0.1315849  -0.4330187   0.7759563   0.6125932  -0.2788460
   0.0132752  -0.2870743   0.2429988   0.8969461  -0.4671725   0.1517136
   0.0113321   0.0693736   0.6878429  -0.1857092   0.0744008   0.0132099
  -1.1346617   0.1350934  -1.4759936   1.1455264  -0.2570348   0.6781548
   0.0892897   0.2770625   0.1801049   0.1581733  -0.2717594  -0.6203026
  -1.5336175   0.2123747  -0.0436797   0.0676470   0.0307449  -0.0329790
  -1.5059421  -0.0504875  -0.8138730  -0.8484223   0.1593504  -0.1690535
  -0.1377778  -0.0311695   0.0625506   0.3072184   1.6279245   0.7015895
  -0.3766893  -0.6821751   0.5779580  -0.0485222  -0.1248545   0.0692729
   0.5065042   1.9307943   0.6744209   0.1360017  -1.1213587   1.5446062
  -0.2907512  -0.0187560  -0.0190484  -0.2308994   0.7474144  -0.2751589
   0.7495728   1.1152260  -0.2172239   0.1024125  -0.0046741  -0.2293747
   0.1520857   0.3071875  -0.0653567  -0.0099505  -1.6928709   0.7717688
  -0.0595668   0.0906362   0.1571822   2.0159595  -0.5061331   0.1309796
  -0.3036761   1.3144184   2.5325099  -0.2745288  -0.1957325   0.2733033
  -0.0789475   1.5137847   0.4543935  -0.7450152  -0.7470698   0.8046356
   0.0963473  -0.0394064  -0.0480495  -1.0131065   0.4720773   1.2194465
   1.3961402  -1.0044526   0.5302297  -0.2982960  -0.4568656  -0.1252830
  -0.7331754  -0.2171786   0.2341416   0.9415169  -0.0664381   0.4619444
  -0.2827897   0.3382242   0.4763520   1.0817181   0.8228114  -0.2573171
  -0.4568441   0.4390551  -0.0149158  -0.0021067  -0.2128229   0.2049905
   0.6371393  -0.0024411  -1.5168752   0.9873323   0.5478957  -1.1415017
   0.1422250   0.0371001  -0.1667226   0.8195712   0.7867183  -0.2375867
  -0.8968217   0.5862598  -0.8548321  -0.3330601  -0.2269120   0.2111063
   0.7514465  -0.1079582   0.1599209   1.8265693   0.0979356  -0.8887033
   0.2014071  -0.0719363   0.1832174   0.7328066   0.8215948   1.1245009
   0.0685764   0.0052219  -0.2966910   0.0075354   0.3180735   0.1890322
   0.7008035  -0.4991530  -1.6681134  -0.3192139   0.2918370   0.3404591
  -0.3057336  -0.2534399   0.0711312  -0.8908069  -0.3955507   0.3113365
   1.6528618   1.3197339   0.0644620  -0.3453817  -0.0996051  -0.0125665
  -0.2390505   1.0594707  -1.1100400  -0.7063114   0.3482405  -0.4773550
  -0.1847917   0.3467253  -0.0494122   0.9496389  -0.9308348   0.3836620
  -0.0858200   1.3071719   0.2847307   0.0654642   0.0737369   0.0243167
   0.5566246   0.3974393   0.0827852  -1.0510465   0.4241170   1.4116907
  -0.2989326   0.1863133   0.0081195   0.8310534   0.2237168   0.9288973
   1.3758364   0.4012159   0.8734398   0.0936456  -0.3544639  -0.1583312
   1.0116270   0.1311645   0.0794474  -0.7022413   0.8461203  -1.4372728
  -0.0500137   0.0565456   0.0408448   0.3075364   0.7191470  -0.8761950
   0.9021204   0.3523508   2.1851400   0.0679417   0.0209819   0.1754875
   0.6107707   0.3332378   0.4559205   0.2544955   0.1062555  -0.2874406
  -0.0526907   0.0799324   0.1894069  -1.6527240  -1.8137800  -0.2449600
  -0.8636050   1.2412449  -0.0907918  -0.0048053   0.2641469   0.1100649
  -0.3063928  -0.5018355   0.6008463   0.5752772  -1.5803257   0.1089707
  -0.2513856   0.2845290  -0.2698214   0.7689534   0.6641489  -0.1617163
   0.2465931   0.7036462  -0.5452947   0.2337697   0.1043488   0.0574841
  -0.1883535   1.7477876   0.1414712   1.7903475  -1.1676869   0.2853990
  -0.0536900  -0.0459731  -0.2297783   0.0412864   0.5836375   0.9161945
   0.1391126  -0.4081755   0.6971671  -0.0270191  -0.0888614   0.0672723
  -0.2166850  -0.4768331   0.1714440   0.3094863  -0.2609163   0.0535402
  -0.0984238   0.1682664  -0.4357318  -1.1916900  -0.6269498  -0.4709707
  -0.0921398   0.2715989  -1.2396110  -0.0351741   0.3086329  -0.2434919
  -0.3963909  -0.3568809  -0.5094465  -0.0865584   0.9706577   0.8921134
  -0.1533416  -0.1120725  -0.0846005   0.3090807  -0.4271810  -0.3035319
  -0.9016491   0.2093447  -0.6118272  -0.0293067  -0.3075593   0.3154390
   1.1812487   0.4911115   0.4604433   0.2555331   1.0325251   1.2462532
  -0.0800849   0.3644521   0.1026749  -0.4042022  -0.6919418  -1.1875600
   0.3183486  -0.6356193   0.3709594   0.2181204   0.1702018   0.0915115
  -0.5616695  -0.7453860   0.4835175  -1.1119078  -0.0297747  -0.0392613
   0.3863223  -0.1914380   0.1707267   0.6544845   0.0157759  -0.8511735
   0.1201039   1.4543304  -1.5562458   0.1210831  -0.2952593   0.1700612
   0.4899427  -0.9498710   0.5682595   0.4288223   0.1952940   1.3167138
   0.0053565  -0.3841353  -0.2173553  -1.5018798   0.2325262  -1.0332316
   0.0721118   0.6075068   1.6365406  -0.0117515  -0.3364504  -0.0443964
   1.4565670   0.6818684   0.3981848  -0.6766619  -0.3376822   0.5588850
  -0.1003161  -0.0162583   0.0978954   0.4480178   0.3307411  -0.4612443
  -0.7312071  -0.9726641  -1.5369863   0.0363490   0.2684373  -0.1356348
   0.1009457  -0.5298725   1.5770188   0.0947585   0.7327977   0.5606913
   0.1910954  -0.1609464   0.1372781  -0.1985168   0.6438705  -0.4141946
   0.7431244  -0.9855111   0.2342970  -0.1276693  -0.1543036  -0.0953681
  -0.0351175   0.8192380  -0.3571674  -0.0277429  -0.2646018  -0.1263839
   0.2205738  -0.2207435  -0.0387029   0.5868108   0.5835706  -0.1071054
   3.4375746   0.7611832   0.2806925   0.2708239  -0.0937188   0.3247348
   0.7254643  -0.5859694   1.5922737  -0.8259821  -1.1821371   0.2299387
  -0.0008651  -0.0033708  -0.1269635  -0.7018147  -0.5735761  -0.8495129
   0.0535275   0.5351058  -1.2385457  -0.1829295   0.1792208   0.3024873
   0.0530875  -1.2292561  -0.2739542   1.3944251   0.3086231  -0.1058327
   0.0712524   0.0603778   0.1127161   0.7768353   0.7236031   0.3590668
  -1.2293031  -0.0386844   1.1182625   0.2681000   0.1814996  -0.1281301
  -0.7861538   0.7615659  -0.6346126  -0.3404496  -0.6827581   0.1203581
   0.1338389  -0.0789654  -0.0145820  -0.7256802   0.5781753   0.3280969
  -0.0431005  -0.5954746  -0.8366014   0.0449632   0.0437367   0.2217342
  -0.1199928  -1.0144353  -0.4482158   0.3587823  -1.4353478   0.9539691
  -0.1163242   0.0575563   0.4672256   0.4323999  -0.4473820   0.0102389
  -0.1388634   0.3868700  -0.1902275   0.0921073  -0.0216461   0.1297080
   1.4041396   0.9662764  -0.9363974  -0.8153766   0.3227490  -0.0454544
  -0.0574808  -0.1026944  -0.0814686  -0.2676468  -0.4342643  -1.3589084
   0.0050738  -0.5669026  -1.5685211   0.0053519   0.2160433  -0.1430774
  -0.5806064  -0.1937593   0.1338314   1.2115377   1.2660181  -0.6240569
  -0.3714890  -0.0694435   0.0726430  -1.6265083   0.0535885  -0.2089852
  -0.4191026   0.3968638  -0.6333367   0.1044901   0.0008964   0.2996920
   1.4078972  -0.2300828   0.4336746  -0.1456638   0.8179889   0.3829202
  -0.0130414  -0.2272805   0.0235408  -0.0882293  -0.0130928  -0.4930489
   1.2541625   1.2757112  -0.4310510  -0.3248943   0.0068078  -0.1300632
  -0.2286001  -0.3062492  -0.2260181   0.4000109   0.8074111   0.2827689
  -0.0115909   0.1387363  -0.0114597  -2.2353474   0.0010267   0.0933165
  -0.6714001  -0.0861401  -0.7976966  -0.1974278  -0.1567038  -0.1263033
  -1.5604848   1.0274464   2.8074411   0.2952794   0.6314256  -0.4558707
   0.1678341   0.1541138   0.0735600   0.8403324  -0.7558065   0.1676312
   0.4432161  -0.7763097  -0.9448566  -0.0903485  -0.5614094   0.3217518
  -1.5769062  -1.4719122  -0.6139928   0.2136948  -0.7106535  -1.0968520
   0.0851434   0.0747993   0.1673794  -0.0594511   0.4453784   0.9588830
  -0.9630087  -0.4512759   0.1389552  -0.3362313   0.0072640  -0.1060419
  -0.1918555  -0.0590417  -0.2134301   0.5201120   1.1447167   0.0005973
   0.0161685   0.4568238  -0.2400084  -0.0511996   0.2216553   0.2259503
   0.1082556  -0.2107258  -0.2391693   0.6162935  -0.0104616   0.2318707
   0.1570536   0.6168765  -0.4804849  -1.8545746  -0.6925312  -0.2185174
  -0.0117750   0.1655084  -0.0526424  -0.9374585  -0.1388486   0.2461427
   0.8051327   0.1949674   0.3088909  -0.1753823   0.2985349   0.1158241
   0.0428365  -0.5496453   0.0098026   0.0116371  -0.1974132  -0.0310779
  -0.3797627   0.2323619  -0.1040251  -1.0085564  -0.6249340  -0.7308854
  -0.1635385  -0.1249476  -0.6903239  -0.1776498   0.1762828  -0.0860896
   1.6217195  -0.2761649   0.4235692  -0.1217430   0.0417174   0.3370428
   0.0192396   0.3559445   0.1326284  -0.4398038   0.6827421  -0.1830519
  -2.2802092   0.3484407  -1.5202135   0.4474402  -0.0503090  -0.1181981
   0.5962108  -1.0152717  -0.3183515  -0.0365604  -0.3423435  -1.2416717
   0.0553681   0.0003102   0.1300469   0.7005715   0.0223498   0.1087900
   0.7218586   0.0221549  -0.3874902  -0.1833330  -0.0158011  -0.1428558
  -0.2678642   0.1884618  -0.6358629  -0.7170594  -0.6781592   0.9745195
  -0.0242262  -0.0729787  -0.4617125   1.0638486   0.8012635  -0.2239513
   0.1287299   0.9027084  -0.2712382   0.0928239  -0.0388543  -0.1810113
  -0.1416157  -0.4491597   0.2638415   0.3352043  -1.2344375  -1.5560960
   0.1345181   0.0276872  -0.3614536  -0.5983204   0.3178820   0.9249601
   0.1020055   0.7535398  -0.4197995   0.2462540   0.1041846  -0.1640006
  -0.0917526  -0.9434132  -0.6085503  -1.0391745   2.3405866  -0.9997763
   0.0607535   0.4079872   0.2235634   0.0230744  -1.1373135   0.8155651
   0.1531643  -2.1566651   0.7858995   0.2301654  -0.1020615   0.0241543
  -0.2512625  -0.7549380  -0.8738007  -0.1791555   0.1506105   0.2821575
  -0.3387614  -0.2440817   0.2652459   0.2840029   0.0017116  -0.4058658
  -0.0976684   0.5050399  -0.1009261  -0.2086209   0.0189426  -0.2288359
  -0.2349147  -1.5042189  -0.4530379   0.2821757   1.8541631  -0.8002414
   0.1234602  -0.1154210  -0.0058311   1.3411519   0.8982599   1.4752272
   0.2942938   0.7604862   0.5112828  -0.0581985  -0.1393519  -0.1307811
  -0.7498568   0.5489117  -0.2205051  -1.9189316  -0.2221278   1.0275584
   0.0408656  -0.2733435  -0.2162317  -0.1107274  -0.5836325   0.4760271
  -1.2155142   1.0189015   0.8658086  -0.1973071   0.1919295  -0.0471139
  -1.1565234  -1.0718674  -0.6190697  -0.0028768   0.7742335  -0.3031432
  -0.0479591   0.0164906  -0.0170736  -1.9691600   0.7659637  -1.6322033
   0.4639741   0.9413099   0.4442986   0.2055280   0.0021266   0.1761911
  -0.5498396  -1.5130628  -0.5576735  -0.4055790   0.6750293  -0.2138104
  -0.1150720   0.1075726   0.0924124  -0.0078982   1.0028642   0.6248908
   0.5517424   0.1136585   1.4200324  -0.0543678  -0.1140875   0.2480548
  -0.6374172  -0.1034681  -0.2959407   0.4769552   0.0422867  -0.2472550
   0.0708168   0.0852399  -0.4091462  -0.3880220   1.4041641  -0.8879676
   0.3002161  -0.5280539   0.7005393   0.1651263   0.3461855  -0.0001748
   0.7901588  -0.1761385  -1.4310833  -1.2308580   0.9015173   0.9485563
   0.0188198  -0.1654560   0.1042450   1.3515532  -0.3819886   0.0908008
   0.4913698   0.8498734   1.6907164  -0.1196633  -0.3335677  -0.1405092
  -1.5490659  -1.5853360   0.7469667  -0.2179321   1.4079615  -0.3560745
  -0.1266818   0.0531636   0.0595597   0.5492680  -0.2931791   0.7950996
   0.0287210  -0.0613437  -0.5004487   0.2315098   0.0813848  -0.0474606
  -0.3922650  -0.2121192  -0.4013620  -0.4159309   0.0013125   0.8916090
   0.2033900   0.2851661   0.0503575   0.2276845  -0.3894934   0.4276335
   0.4854936  -0.1173919   0.5656945   0.0823764  -0.1469972   0.0096070
   0.3214580  -1.1023601  -0.0454344   0.3415053  -0.2036493  -0.1388284
   0.1403337  -0.2035786  -0.2441625   0.1115546  -0.4351236   1.4539292
  -1.1749384   0.9310369  -1.1938569   0.3443537   0.0355915   0.0160932
   0.7218135   0.7400807  -1.8663559   1.0365289  -0.2109993  -0.8193465
  -0.1879033  -0.2476084   0.1282245   0.4262974   0.4298470   0.6205909
   1.1484231   0.9317275  -0.2313427   0.0148108   0.0212297   0.4361638
   1.1310884  -1.7066584  -0.4133983   0.2824780   0.7588378  -0.1599622
  -0.2980296  -0.2119221  -0.1452960   1.5984339   0.0166186  -1.4918743
  -0.3985260   0.2696503   0.5490815   0.0233428   0.1185382   0.0281596
  -0.4217277  -0.3923378   0.4829705  -1.2240913  -0.9220947  -0.2772075
  -0.4934540   0.0347881  -0.0708681   1.2739492  -0.5395836   1.2795834
   0.9198255   0.2613836  -0.3441944   0.5926039   0.0138804   0.3381062
  -1.8077251  -0.4318243   0.6386671   1.1014625   0.2583018  -0.2960317
  -0.0656882  -0.4327765   0.2834440  -0.2155266   0.0050351  -0.0102426
  -0.5797546   0.7093692   0.1280084   0.1413464  -0.0012795   0.0816098
  -0.9741252  -0.6000221  -0.1722814  -1.2742265  -0.2642785   0.0760397
   0.1060319  -0.0424942   0.0408260  -0.0400902   0.7168448  -0.5789732
  -0.4984661   0.8327462   0.0745734   0.1221880  -0.6082009   0.2007693
  -0.8983227   0.6548909   1.3919410   1.1046372   0.6270623  -0.6982255
  -0.0944869   0.0238162   0.2002945   0.9964197  -0.1880578   0.3695904
  -1.4712977   0.0875367  -0.3558687  -0.4526007  -0.1507157   0.1421459
   0.4579461   1.3408206  -0.6425255   0.1007748   0.5469110  -0.9231648
  -0.0143254  -0.0858957  -0.0252028   0.0186604   0.4520602   1.2452914
  -1.4673791   1.0863962  -0.3857953  -0.0393003   0.1233505   0.0593157
   0.2192187  -0.5800317   0.2455859   0.9339151  -0.6989480  -0.1592248
  -0.0291766   0.3442950   0.0996510  -1.0168404   0.5524508   0.4943288
   0.9400827  -1.0759963   0.0272722  -0.1704085  -0.0341540  -0.0964032
   0.2267078   0.5737977   0.8117251  -0.8506871  -0.2243104   0.5003574
  -0.2121407  -0.1639244  -0.0723022   0.4121135   0.6189414  -0.7405569
   0.7204403  -0.4444679  -0.4819359   0.2950295  -0.0855524   0.0507061
  -0.8908783  -0.1894216  -1.1855826  -0.0742403   0.0094096  -0.1342507
  -0.0996574   0.1847321  -0.3199503   1.4566622   0.2538292  -0.7593287
  -0.9541907  -1.9674092   0.7429886   0.4125303   0.1831121   0.0593516
   0.2452413   0.3559752  -0.1312147  -0.9600071  -0.6323948  -1.0640887
  -0.2050532   0.1685295  -0.3605847   0.2547348   0.2473554   0.7421352
   0.3572998   0.9896489  -0.6540260   0.0528082   0.1436482   0.1501581
   0.6333674   0.1879396   0.2612809  -0.4563638   0.2617964   0.7306923
  -0.1081592   0.0911305  -0.1398838  -0.5578715  -1.5826811  -0.8640967
   1.4344654  -0.0598702  -1.2060159   0.0551852   0.1991037  -0.2397142
   0.1180595  -0.7409899  -0.6211230  -0.2671503  -0.1058280   0.6465677
   0.4019834   0.4018239  -0.3923967  -0.5141828  -0.2916077   1.5017363
  -0.8072575  -1.6377967  -0.1216150   0.1854934   0.0093537   0.2018972
   0.3601486  -0.4771699   0.2670855   0.8912856   0.5182924   0.9725755
   0.0047854   0.0432847  -0.1338257  -0.0369695   0.9281785   1.5008903
  -1.1085608  -0.0986230   0.0123848  -0.2588314  -0.0814674  -0.0777225
  -1.5021738   0.3832950  -0.5902092  -0.1983646  -2.1254806   0.5891623
  -0.1078777   0.1468487  -0.0292816   0.0777959  -1.2088056  -0.9049302
   0.3139666  -0.7508641   1.5438856   0.0353051  -0.0398547   0.2404924
  -1.2138334   0.1536173  -0.0295663   0.2718195   0.9377779   0.7746914
  -0.3416576  -0.2287933   0.1660171   1.1225810   0.4042798  -0.4201833
  -0.3747183  -1.2205153  -0.1839388  -0.3059642   0.2066266  -0.2017220
   0.2768006   0.1797227   1.3449793   0.7231595  -0.8913792  -0.0891691
  -0.1669964   0.1558013   0.0883535  -0.0767385   0.0502561  -0.0005799
  -0.6534922   0.7320841   1.0405445   0.2819516   0.0563943   0.1196140
  -0.2610657  -0.3000177  -0.0286862   1.1436900   0.4527633   0.4238164
  -0.1192383  -0.0125485  -0.0434838   1.3000982  -0.2740653   0.1340505
   0.5324665  -0.2532572   0.5883205   0.0548902   0.0602900   0.1104601
   0.2685659   0.0954182  -0.5478433   0.3441442   0.8406518   1.4264324
  -0.3681422   0.3278387  -0.3654892   0.7888162  -0.2392409  -1.0193688
   0.0754668  -0.0343881   0.2945328   0.1240945   0.1596708  -0.0414839
   0.0880794   0.5852573  -0.8213863   1.1783806   0.0600784  -1.1896058
   0.1393508  -0.1307774   0.2220983   0.0830290   0.0794537  -1.6982544
   1.1834369   0.1077585   1.7282775   0.0763197  -0.3995107  -0.0652625
  -1.3958782   0.9083505  -0.6568433  -1.1105506   0.2633301  -0.9957619
  -0.0532644  -0.1794135   0.1600420  -2.0377836   0.5138203  -2.1755463
   0.7185847   0.5893385   0.0662725   0.0239045  -0.0410888  -0.0939493
  -1.3272174   0.3949632  -0.0368756   0.5899449   0.5512543   0.4626570
  -0.0125611  -0.2083577  -0.1816649  -0.2934561  -0.1903417   0.0852874
  -0.1016636   0.4145506   1.5121705   0.2371084   0.0265847   0.0001883
  -0.4158188   0.1694984   0.4163097  -0.2723505   0.4821677  -0.0151432
   0.2257687  -0.1534659  -0.2613480   0.5654996   0.5540010   0.3774132
   1.5747037  -0.3751490   0.5318669   0.2271930  -0.1849211  -0.0356588
  -1.8365947  -0.0435500   1.4403257   0.2448914  -0.8550077  -0.3923441
   0.1277369   0.3183821  -0.0189000   1.2403542   1.0679083   0.8365844
   0.3109180   1.0094155  -0.2356106  -0.0687702   0.0559758  -0.2595498
  -0.0393765  -0.2238937   1.0007756   1.8830359  -1.2163078  -0.0446145
  -0.3151177  -0.2825115   0.0701684  -0.2611535  -0.0641100   0.8183913
   0.3705044  -0.4326368  -1.4320818   0.2832281  -0.1080528  -0.0968166
  -1.0401698  -0.1102663  -0.7695972  -0.2087008  -1.6803137  -0.4830899
  -0.1630990  -0.3609312   0.1604076  -0.2460495  -0.0122237   0.0229622
   0.7973157   0.9697481  -0.2686174   0.2267423   0.2668538  -0.0390148
  -0.2035587   0.9924662   0.5393237   0.7202675  -0.2663888   0.8885730
  -0.1674487  -0.1923988   0.1334279  -0.3499278  -0.1499896  -0.5248653
  -0.4284806   0.6163861  -0.7847438  -0.0826182  -0.2314279  -0.1304817
   0.5520374   1.1754748  -0.4745362   1.9161777   1.0024795  -0.9080516
   0.3408255  -0.0414953   0.1845567  -1.1699551  -1.1306558   1.0028712
  -1.4156316   0.6392826   1.0654539   0.2590321   0.1343980   0.3867343
  -0.5040764   1.4075321  -1.0008446   0.3340598  -0.0347077   1.5445978
  -0.0401077  -0.1768904  -0.2777363   0.2898673   0.3332238  -0.5767655
   0.8321894   1.1764142  -0.4783428   0.1679749  -0.0523058   0.3712644
  -0.5971625  -0.7184731  -1.3752121   0.1220636  -0.5071929  -0.9462069
   0.0170609   0.0705232   0.1252569   1.1722821   1.6358999   0.2161048
  -0.6215129   1.8823726   1.8319338  -0.1745125   0.1152489   0.0121031
  -1.8804239  -1.1724230  -0.4732196  -0.8128686  -0.5084630   0.8536555
  -0.1166743   0.0509176  -0.1180167  -0.1845416  -0.5503901  -0.0838419
  -0.3504830  -0.3942088   0.8166143  -0.1545394   0.0351162   0.0035619
  -0.1512931   0.7658268  -0.4060932   1.3859118  -0.2284478   0.9088915
  -0.1617224   0.0934414   0.1522798   0.3831033  -1.3218067   0.3018496
   0.3595409  -0.1233632   0.0187453  -0.3563500  -0.0268542   0.0504641
  -1.1748650  -0.4345494   1.0231244   0.1479600   0.4683852   1.2127998
  -0.0775933   0.2368310   0.0806101   0.1295230   1.4737568   0.4530562
  -1.4570708  -0.4413583   0.1517761  -0.0452379   0.4297743  -0.0054625
   0.0047377   0.4250648  -0.3025311   0.7427121  -0.2464067   1.2316235
  -0.1669719  -0.0535089  -0.1261208   0.3332987  -0.1581312   1.6186587
   0.7735121  -0.4103555   1.2749624   0.1502015   0.4171427  -0.1216921
  -0.9733486  -0.1118462  -0.3400622   0.0896489  -0.1206953   1.0895471
   0.0970452   0.3213551   0.1916016   0.3945567   0.4159490  -0.4927292
   0.2503625  -0.8403798  -0.0120831  -0.2534776   0.2919081  -0.0729951
  -1.2385337   0.6194260   0.1762907  -0.3468940  -0.1981249  -0.1595248
  -0.0105142   0.2873526   0.1849860  -0.2250089  -0.4769727  -0.3970437
   0.8372867  -0.3224724  -1.1022577  -0.3565984  -0.0664610  -0.2136922
  -0.5347297  -0.3809088  -1.3075152   2.5443545   0.9848437  -0.6715438
  -0.0299998  -0.1724319   0.2054819  -0.1524286  -1.3111520   0.1119568
   0.6993365   0.7070930  -0.7656757   0.2622693   0.2550999  -0.2875989
   0.9705447  -1.2333078   0.5623753  -0.7208736   1.4039399  -0.2262012
   0.3226397   0.3729524  -0.2831474  -0.6601895  -0.7000070  -0.4109019
  -0.4435867   0.8384189  -1.4491776  -0.0444073  -0.0057471   0.0516797
  -1.2709119  -0.9044383   0.2204428  -0.0968140  -0.2628387   0.6888400
   0.0362392   0.0460899  -0.0333955  -0.6169074  -0.6963742  -1.7752036
   0.1624245   0.3079331   0.9235583   0.0820051  -0.2716842  -0.3768383
   1.0317539   1.0610382   0.0136358   0.1648088   1.7425747   0.7735066
   0.3095170   0.1615173  -0.0225940   1.2783810  -0.4370052   0.2717852
  -1.8322557   0.0962439  -0.1797213   0.2870639  -0.1154887  -0.1671824
  -0.6879131  -0.8225476  -0.4423159  -0.2954790  -0.9468364   0.8576010
  -0.1125738   0.3299683  -0.0296795  -0.4343546  -0.5551158   0.8017268
  -0.9819042   0.1783617  -0.7037744  -0.0390875  -0.2468197   0.1046121
  -0.7580442  -1.5226344   1.7958900   0.8301059  -0.3573049  -0.4167900
   0.5076572   0.2735370   0.0497698  -0.2280524   0.8479197  -0.4642154
   1.1929252   0.1612084   1.1308812  -0.1022549  -0.1892832   0.1211244
  -1.0054404  -0.7713347  -0.1544435   0.2872326   0.9283241   0.5012495
   0.1879633   0.1090966   0.1992328   1.2351305  -0.1232890  -1.1623952
  -1.0283147  -0.1583448  -0.3119343   0.0258902  -0.3336220   0.0899496
  -0.5620676  -0.0604518  -0.5449775  -0.6111172  -0.3146966  -0.7381386
   0.0382518  -0.3227393   0.0885026   0.5096242   0.5140066   0.0522010
  -0.6193992   0.6881505  -0.5973909   0.3071055   0.0414008  -0.0480430
  -0.4625567   0.1098526  -0.0532730  -0.5410199   0.0428957   0.1609745
  -0.1197085   0.2161547  -0.2413079   0.4045771  -0.3572058  -0.3912521
  -0.7258539   0.3590595   0.7110436   0.1398991   0.2145280   0.0733907
   0.5006067   1.1089927  -0.5386400   0.9908874  -0.1909135   0.9203849
   0.0168815   0.3805606   0.1131846  -0.7700365  -0.3059867  -1.1681541
  -0.5063785  -1.2446560   0.1451100   0.1837431   0.2174081  -0.0053044
  -1.2296059  -0.3049093  -0.1344202   0.8256140  -0.4444427   0.5445336
  -0.0719924  -0.0509039   0.1730973   1.4011940   0.9759963  -0.0676879
  -0.8767969   1.9302351  -0.2281123   0.0890828   0.0001449   0.1651737
  -0.7550140   0.6625646  -0.6061288   0.8714688   1.2358543  -0.7756776
  -0.2896763   0.2582784  -0.2220544   0.2165896   0.0290755  -1.1064443
  -0.0145421  -0.4767491  -0.1893915   0.0601110   0.2218556  -0.0396224
  -0.8106289  -0.2517825   1.3973621   0.0750133  -0.4886499  -0.0158323
  -0.5687580  -0.1866328   0.0106194  -0.5832265  -1.8676828  -0.1658534
  -1.2528814  -0.3501115  -0.8805215  -0.1308795   0.1887175   0.1025929
  -0.1575054  -0.2014687   1.7293102   0.9213979  -0.8028508  -0.3833672
  -0.0306558  -0.2221461   0.0666533  -0.6870802   0.7336059  -0.2666441
  -0.9734926  -0.5148165   0.6928016  -0.0152030  -0.1907500  -0.0720115
   0.7491079  -1.0714983  -0.0885812   0.9898189   1.6728802  -0.3051832
  -0.2420711  -0.3962494  -0.0261222   0.0252353   0.5408739   0.3856354
  -0.0442516  -1.4535377  -0.7142085   0.2652876   0.0626656   0.2124469
   0.5210792   1.2945719   0.3736578  -0.3610798   0.1309031   0.9506941
   0.0605487   0.3305504  -0.0289635   0.2152169  -0.2189666   0.0415882
   0.7235972  -0.0638718  -0.0638025   0.2354854   0.0854697  -0.1931283
   1.1552789   1.0559631   0.7484663  -0.6402028   0.4080734  -0.6240485
  -0.1975096   0.2205467   0.4678846   0.2418804  -0.0667185   0.6194232
  -1.5860794   0.3149672  -1.1863908   0.1419363  -0.5322451   0.2595953
  -0.2923536  -1.1207782   1.2473905  -1.5680000   0.9234524  -0.0367051
  -0.0902152   0.0468002   0.1859127   1.1399143  -0.0913836  -0.1860112
  -1.4458075  -0.3673754   0.1554248   0.0074489   0.1103452   0.0454394
  -1.9947787   0.4197191   0.8233612  -1.5212821  -0.7707321  -0.0079699
  -0.2154392   0.0535662  -0.1236594  -0.0396525  -0.1360054   0.3451202
  -0.2645018  -0.8136400  -0.1063354   0.0661918  -0.0944636   0.1111266
  -0.4733136  -0.1488262   0.3470895   0.8813595  -0.4795110   0.4431895
  -0.1020941  -0.3747992  -0.1644601  -1.0655882   0.4808026  -1.3390493
  -0.3838476   1.3766726   0.6797527  -0.0818106   0.2529754   0.1310211
  -1.3704342   0.3758420   0.4377615   0.7678995   0.6420137   0.6577327
   0.0454421   0.1135492   0.2002140   0.9940798  -0.1412218  -0.6874273
   0.1975556  -0.3167627  -0.3969900  -0.1314543  -0.0838657  -0.0436763
  -1.4383786   0.1517210  -0.6511375   0.0850849  -0.2535337  -0.7215140
  -0.3395139  -0.1553526  -0.0699666   0.6037000   0.1888679  -0.3420974
  -1.0913496  -0.5072266   1.5517785  -0.1895993   0.0842223   0.0836714
   0.3431770  -1.4248974  -0.7439880   0.4086772   0.0625557  -0.3680895
   0.0855603  -0.0429609   0.2194048   0.3098881   0.5538606   0.2284221
   0.0425566   0.5040626  -0.1606341   0.1730795   0.0707733   0.1119737
  -0.4454628   0.4591180   0.4584255  -0.8014962  -1.8889537   1.5094596
   0.0462547   0.1210999   0.3153774   0.2348414   0.6526902  -1.0244007
   0.2077253   0.3295407  -1.3732392   0.1095766   0.0738337  -0.2916542
   0.2183854   0.1848072  -0.3628168  -1.3657572  -1.7928326  -1.7182232
   0.1675491   0.0425867   0.0456558   1.0916843   0.1157751  -0.0858131
   0.4192295  -0.5562013   0.2536139   0.0317310  -0.1843700   0.4229700
  -0.5381661   0.0239323   0.5750907   0.8251930  -0.4226331  -0.2344968
   0.1695022  -0.0315028   0.0012105  -0.6527511   0.4799837  -1.1241453
   0.9164957  -0.0590614   0.2009173   0.0436412  -0.0927066   0.1765559
   1.3258591   0.2766879   0.3958806   0.6428718   0.3376673  -1.3203652
   0.2199071  -0.3153061  -0.1518650   0.2978723   0.0031214  -0.4434737
  -0.6008734   0.6429334  -0.0527260  -0.2264188  -0.2972860   0.1659079
   0.8741759   1.7174688   0.4853967   0.2545345   0.5852998   0.1748803
   0.1548188  -0.1767743   0.0768884  -0.8531611   0.5037767   0.1964359
  -0.2474319  -0.2360775   1.3907467   0.1398980   0.1892294   0.0083844
   0.8359461   0.1618936  -0.0644605   0.0643754  -0.0671398   0.4670965
   0.0094742   0.2685973  -0.3503209   1.3666499   0.1292434  -0.1071769
   0.4412671   1.2498594  -0.3738886  -0.1601837   0.0988164  -0.1211279
   0.3217870  -0.1981096   1.0187723  -0.3715795  -0.1076866  -0.4182781
   0.1884021  -0.1956938   0.0673980  -0.1526357  -0.4020936  -0.9724938
  -0.4864521   0.7911386  -1.0067823  -0.0961702   0.0091343  -0.0990916
  -1.4322289  -0.4078547  -0.1118547   0.7185496   0.0005361   1.0968045
   0.1571772   0.2833679  -0.0213942   0.3256118   1.6648176   0.6211248
  -0.0743233  -0.6950570   0.2301305   0.0966037  -0.0591848  -0.0125887
  -0.9582537  -1.0456838   0.4959622  -0.7059326   1.0326905  -0.7408902
  -0.2178701  -0.2138800  -0.2859119   0.4579320  -0.6274223  -0.0721443
  -1.0584059  -1.3783587  -1.1108913   0.3004562   0.0747164   0.0928514
  -0.9914282   0.6119617   0.2634209  -1.3748558  -0.0782520   0.4110074
   0.2807557  -0.0145362   0.3294317  -1.1806842  -0.5429975   0.2877630
   0.2533474  -0.8262058   0.3797295   0.0198252  -0.1013931  -0.1980116
  -0.5139907  -0.0192833   0.2017881  -0.5425376   0.1787321  -0.8578515
   0.2416651  -0.0130288  -0.1176604   0.1183980  -0.0784258   0.1749471
   0.9536049  -2.5310875   0.9212047   0.0866000   0.1110517  -0.2444918
   0.5440161   0.5707443  -0.0825506   0.4694370   0.2092106   1.0782612
   0.4342715  -0.2749428  -0.1373748  -0.4108952  -0.2805492  -0.1785081
  -0.2680088   0.6622437  -0.6324978  -0.0275529   0.0684404   0.2178991
   0.6614139  -0.2951509   0.3918406  -0.1594893   1.0612681   0.9146100
  -0.0957306  -0.0943816  -0.0426454  -0.1588498  -0.3186979  -0.3613802
   0.0559094  -1.2444787  -0.1810546  -0.2636626  -0.3885438   0.1030697
  -0.2672589   0.8967355   0.7645548   0.3364173   0.4921742   0.4478149
  -0.1678434   0.0309171   0.1470934  -0.0461812  -0.2857997   0.0426801
   0.9919679  -1.3334848   0.3353658  -0.1812827  -0.2136450  -0.1202383
   0.9161157  -0.1962069  -0.3749166   0.0690362   0.1701441  -0.6700937
   0.5567408   0.1856381  -0.1363842   1.0634396  -0.6711984   0.1668415
   0.0100304   0.2310614   0.4857354  -0.1620442   0.4081576   0.1605317
  -0.3520462  -0.6770105  -1.0511730  -0.0280899   0.4471798   0.3922660
  -0.3628474   0.0719074  -0.3502646  -0.4045576   0.2983773  -1.3834337
  -0.0821308  -0.2604001   0.0846458  -0.0345915  -0.1615423  -0.0737962
   0.8857464   0.6149217   0.6957810  -0.5351941  -0.3447907  -0.6299926
  -0.1372559  -0.1075691   0.0244235   0.6069154   0.2537922  -2.2228080
   1.0406401   0.3727635   1.0312592   0.0044381   0.0908959  -0.1037353
  -0.4592551  -0.9902577  -1.3372452  -0.3520788   0.2753891  -0.3686888
  -0.1310748   0.2365532   0.0245642  -0.4356306  -0.0352618  -1.0331915
  -0.6855810  -0.6568599  -0.3784753  -0.2029107  -0.1747410  -0.0149881
   0.9692323   0.3141449  -0.3580816  -1.1940480  -0.8820107  -0.4686450
  -0.2835920  -0.1484079  -0.1196283  -0.2222634   0.0158575   0.1798795
  -0.8660062   0.1058852   0.2872832   0.2756466   0.0832842   0.0426222
   0.9931591  -1.1185803   1.2585247   0.9102311  -0.7367395   0.4948137
  -0.0949800  -0.2211898   0.0873302   1.3969093  -0.3175379  -0.3377384
  -0.6381807   0.3395120  -0.1738260  -0.2565895   0.0828154  -0.1829741
  -0.8127664   0.7157534  -0.6443284   0.4159928  -0.4818677  -0.6711378
   0.1232152   0.1931340  -0.3701506   0.9534004  -0.0234099   0.7161349
   1.4531531  -0.4735886   1.5100901   0.0145496   0.1223630   0.0073444
   0.1340748   0.7439675  -0.5882078   2.5237671   0.0764332   0.3641514
   0.0941849   0.0850432  -0.2969661   0.0057470   0.3622565  -0.3775273
  -0.2697766  -1.5179479  -1.0213685   0.4475356  -0.3115582  -0.0933158
   0.3334741   0.0534154   0.4556739  -0.8265121   0.3166150  -0.5817471
  -0.2372094   0.1522987  -0.1081283   0.1181147   0.3168275   0.5347439
   0.6323265   1.7170734  -0.0005373  -0.0053213  -0.0418407  -0.0853953
  -0.3661121   0.0273117   0.9655874   1.0786419   0.7068520  -0.3247824
   0.0126358  -0.1156490   0.3854558   0.6500655   0.1408913   0.8988900
   0.5157343   0.3133961   0.9040371  -0.0324023  -0.0925656  -0.0673897
   0.3457549  -1.4624808   0.1722829   1.0114128   0.3975789  -1.4707676
  -0.0852981   0.2456976   0.1750828   0.8262901   0.3010306  -0.6523050
  -0.1476485  -0.4310629   0.1273185   0.0164198  -0.0729264   0.1668092
   1.2519033  -1.4490103  -1.1560749  -0.4599444  -0.3489192   1.1041090
   0.0734898   0.1680700  -0.2716645   0.5107514  -0.7315672   0.1506444
   0.0307422  -0.2496379  -2.2192487  -0.1394331   0.3132681   0.1552820
   0.0844951  -0.2825621  -0.7348235   0.2116661  -0.2264527   0.4850762
  -0.2048725   0.1231070   0.2227161   0.8361328  -1.2388397  -1.2656376
   0.2769980   1.0503860   0.2923633  -0.1803450  -0.2808921   0.0467063
   0.4555826  -1.0096490   1.5890767   0.0934994   0.1451134  -0.4331738
  -0.1668729  -0.2426329   0.3745821   0.4760537  -0.3725084   0.2026124
   0.8778833  -0.4028680   0.0498401  -0.1921253   0.0348437  -0.0374403
   0.0652868   0.8282319  -0.4324280  -1.2431824  -1.3881521   0.0509345
  -0.1548712  -0.0153023  -0.1021927   0.3386986   0.3040224   0.8347650
   0.3790773   0.4103512  -0.9561105   0.0848107   0.2250061   0.1184854
   0.4301987  -0.0886782  -0.5675053  -0.3378486  -1.5918468   0.1856132
   0.1578295  -0.2312425  -0.1226356  -1.5370917   0.0595283   0.7409116
  -0.0757496   1.2880776  -1.2257099  -0.1708025  -0.4124068   0.2021685
   0.5606193  -0.3608365   0.9749172   1.2624851   0.6622134  -0.1103004
   0.0799243   0.0052711   0.1042479  -0.0788293  -0.4782571   0.3771815
   0.0728429   0.0261517  -0.2129083  -0.1748300   0.0631783   0.2717332
  -0.5111549   1.5205976   0.2607485  -0.3834635   0.3928864  -0.2771946
  -0.1736387  -0.2595970   0.0187573  -1.1686227  -1.7185339  -0.9251271
   0.3472876   0.2501064  -0.3829422   0.0469903  -0.0085236   0.1822327
  -0.4762525   0.5265729   0.9348054  -0.2687684  -0.1631992   0.2800445
  -0.2891618   0.1053740   0.1766376   0.4125722  -0.4271126   0.3265545
  -0.4941391  -1.1419743  -0.5089031   0.0299897   0.2145307  -0.2203522
  -1.1527548   0.6864628   0.1264357   0.5997279   0.0371094   0.9452834
  -0.0064102   0.0872801   0.0529778   1.2041992  -0.0279104  -0.5868842
  -0.5390724  -0.2888048   1.2158087  -0.2136963  -0.1215983   0.2879063
   0.2432279   0.1165835   1.1516223  -1.0544868   0.8999002  -0.4604387
   0.2141304  -0.2130532  -0.2479512   1.4499705   0.1192887  -0.4110114
   0.0541093  -0.3337808   0.4582494   0.0872318  -0.0023481  -0.3029621
   0.7474772  -0.4194469  -0.2122538   0.6415181   0.2183843  -0.3511077
   0.1685376   0.3172580  -0.1471002   1.0176416  -1.2082105  -0.2221316
   0.7531225   0.0105020  -0.2553189  -0.2315552  -0.1993372  -0.1933652
   0.6076365   1.2462433   0.2896233   0.5677673  -0.0461151   0.5271185
   0.1110422  -0.0209829   0.2209344  -0.0527800  -0.0666889  -1.4065314
  -0.0895380  -0.0559802  -1.2817738  -0.1087453  -0.1106566  -0.1218221
  -0.0492283   1.2269997  -0.6760878  -0.2233714   0.3319938   0.2243585
   0.1238934  -0.0069173   0.3437279  -0.1510005   0.3912823  -0.3861819
  -1.0264341  -0.0111930   0.4313872   0.0432752  -0.2837191  -0.0336857
   1.2188629  -0.6672550   0.8806852   1.1791049   0.2256383   0.1158495
   0.2104357   0.2238821   0.1485931  -0.1965738   0.3323186   0.5704504
  -1.9280225  -0.1085747  -0.7415983   0.2275768  -0.2018956   0.0225950
   0.4498657  -0.2822833  -1.0050181  -0.6876890   1.6021012  -0.0672106
  -0.1529008   0.1480599   0.2878169   0.4800898   0.0728365   0.0529464
   0.3934504  -0.4707664  -0.4300292  -0.1255889  -0.0154592   0.1389041
   1.5462044   0.5169909  -0.4843594  -1.2335660  -0.3851790  -0.3455551
   0.1590459   0.1318864   0.3290773   0.6260697   0.1547236   0.3420560
   0.8094122  -0.3891699   0.5350736  -0.1867592  -0.1390214   0.3201491
   1.8286048  -0.9843745   0.2713785   1.0143666   0.4719623   0.4566538
   0.3646971  -0.3361304  -0.4146356  -0.3374207  -0.0753513   0.5357339
  -0.9959161  -1.0692621   0.6867085  -0.4083825  -0.0260844   0.3351894
  -0.9154456  -0.8385219  -0.1992816  -0.0708026  -0.4937654   0.3139175
  -0.1227785   0.4023686  -0.1406608  -1.0311881  -2.2447312   1.1434457
   0.4081204   0.9730452   0.8143098  -0.2910228  -0.2973181   0.3037684
   0.6561025  -0.1169187   0.3266861  -1.0460194   0.0803820   0.1865188
   0.0147389  -0.1015979   0.1429392  -0.6460853  -0.0889575  -0.1732479
   1.4330277  -1.2092978  -0.0217229  -0.3080108  -0.1469310   0.3236623
  -0.6566044  -0.8182404  -0.6122161   0.4541125   0.8251144  -1.0120874
  -0.0233358  -0.1788139  -0.1355001  -0.9713069   0.7322090  -0.9577284
  -0.7183406   0.0005135   0.1353212   0.0547386  -0.1212616  -0.0213052
  -0.4828743  -0.7905698   0.4542228   0.1441746   1.0934880  -0.7732972
  -0.3976982  -0.2289037   0.0168162  -0.5656926   0.4890051   1.2466540
   1.0130575  -1.4721120  -1.1565377   0.2296225  -0.2091519  -0.1189281
  -0.8705073  -0.3308409  -0.1184912   0.1050527   0.0292813   0.9407947
  -0.1067868   0.2078116   0.3630176   0.1070031  -0.6764152   0.9561652
   0.6403574   1.0356340  -0.5472421   0.1966161  -0.3768227  -0.1366162
   0.1441581  -0.5337369  -0.6445029  -0.4977648  -1.4683822  -0.3588872
  -0.5019068   0.1505310  -0.1625442  -0.4709306  -1.3954424  -0.1313184
  -0.2543315  -0.4291061  -0.8699029  -0.1979734  -0.0907589  -0.0949708
  -0.2827080  -0.5205489   0.0934714   1.2290296   1.4822641   0.3122996
  -0.2045365  -0.3219943   0.0808535  -1.2105750  -0.7849358  -0.2884771
  -0.0121984  -0.0243996   0.7019159  -0.0900669  -0.0182922   0.1201675
  -0.1575784  -0.6838476  -0.3349706  -0.3720102   0.5415451   0.3774498
   0.2273166   0.0567147  -0.0983683  -0.6684748   0.0382998   1.0472772
   0.7124908   0.7181482  -0.1618828   0.0862544  -0.0451695   0.1061065
  -0.1657388   0.1880466  -0.4442658  -0.1775832  -0.1722406   0.5218139
  -0.1301494   0.3176251   0.3337000  -0.3364848   0.0962484  -0.7071368
   0.1683510   0.4888047  -0.4551104  -0.0884706  -0.2820194   0.4223721
   1.1349000  -0.3971719  -1.6616453   0.4324435  -0.8256636  -0.3821532
   0.1857403  -0.3668884  -0.3989355   1.4887585   0.1097425   0.3548470
   0.9323715  -0.1126140  -0.5279518   0.2009985   0.2494234   0.1489811
  -1.3727440   0.5187314   0.4708885   0.2263275  -0.4882903  -0.4357832
   0.2055386   0.1877936   0.2868844   0.2948042  -0.3196415   0.9111815
   1.3612854   0.6428977  -2.7501962   0.1863491   0.2129238   0.0914294
   0.6817230   0.6144918  -0.4014499   0.4001319   0.7768741   0.0535821
   0.0056466  -0.0208875  -0.0686961   1.2626559   1.0539988  -0.8376888
   0.0886132   0.7566527  -1.1763276   0.2893598   0.1398869   0.3011149
  -0.4834057  -0.5162767   1.7756866   1.0955835  -0.1262799   0.2316304
  -0.1406612   0.2555266  -0.1180349  -1.8104110  -0.6568446   0.2189881
  -0.1490751  -1.7840740  -1.2194288  -0.1374997   0.1928036   0.0176494
   0.4647345  -0.3861703   1.0796967  -0.3890981  -0.5684435   0.3272954
   0.0929601   0.1024018   0.2126847   1.3051690   0.6249051   0.5666439
  -0.3670236  -0.1267694   0.3187510  -0.0097611   0.1624420  -0.1466980
   1.7090207  -1.2303272  -0.3026249   0.6938293  -0.9960702  -1.3227485
   0.0108705  -0.1253531   0.0441329   0.6261266   0.3598189  -1.3714795
   0.8458689  -0.0094883   0.1075013   0.1439898  -0.0586513   0.2142665
   0.8625311   0.2459896  -0.1984239  -1.3637835  -0.0514391  -1.5771858
  -0.0215584  -0.2446679   0.2982722  -0.6642747  -0.5916928  -0.5267994
  -0.0485842  -0.7975426  -0.5408109   0.1670606   0.0809649   0.0694079
  -1.2924126   0.1810721   0.2289285   0.0186096   0.4630121  -0.6923732
  -0.1152166  -0.2339173  -0.0204951   0.8622054  -0.1373807   0.0566082
  -0.6718951  -0.1561847  -0.4515729   0.0822549  -0.0706242   0.1268447
   0.4756637  -0.9164297  -0.2221744  -0.7486905   0.3177202   0.2917896
  -0.0575946   0.1815216   0.0394676  -1.5196851  -0.4153403  -0.1665559
  -0.5606472  -1.2281035   1.1396936  -0.2195685  -0.1033632   0.2176231
  -0.5252000  -0.0629653  -0.8227534   0.1331776  -0.0912640   0.8076762
  -0.0895552   0.2131751   0.0358719  -0.7706327  -0.5895073  -0.8403756
   1.2003375   0.2870355   0.8205619   0.0172504   0.2600162  -0.4314274
   0.4433669   1.2987913   1.0958868  -0.4379459  -0.2782605  -0.6689728
   0.2451557   0.0120896  -0.0088881   0.5540123   0.0866923   0.0472460
  -0.0236447   0.4142255  -1.0469604  -0.3137188   0.1632404   0.3602613
  -1.5365071   0.5374380   0.1431637  -0.4451279  -1.3144371   0.3543136
  -0.1193466  -0.0958770   0.3322567   0.6267910  -0.1457025   0.4913308
   0.2477839  -0.2728986  -0.4919578  -0.2077776   0.2634753   0.0256003
  -0.1546051  -0.6542965  -0.4525726   0.1928859   0.3667840   1.1749833
   0.3881623  -0.2831878   0.0819857   1.2801944   0.6923379   1.1721567
   0.4233723   0.9165075   0.8366403   0.0535792  -0.3489073  -0.3078132
   0.1853031  -0.1716728  -0.8395559  -0.6186526  -0.0214709  -0.2745925
   0.2040311  -0.1071806  -0.1384602   0.9022607  -1.5697860   0.5025811
  -0.8055976   0.2705930  -0.2963995   0.3682326   0.0046496  -0.2406607
  -0.7914287  -0.8133586   0.1071728  -0.1167657  -0.6947851   0.0883345
   0.1987476   0.0448488  -0.0950203   1.0657114  -0.4524292  -0.2742547
  -0.4054591   0.9346052  -0.0452905  -0.1290490   0.0097461  -0.1405654
   0.7769579  -1.1323523   0.3782005   0.3055515   0.6432020   0.1060279
   0.1721272  -0.1838427  -0.1683069   0.4177409   0.0300048  -1.0771910
   0.2509647  -0.0089769   1.1679272  -0.0849951  -0.0282303  -0.0068558
  -1.2881710  -0.0286924   0.0076249   1.8255264   0.1110476   0.7915742
   0.1279581  -0.1032832  -0.1100859  -1.2468867  -1.4616736   0.3282739
  -0.1137800  -0.0928242  -0.0363379  -0.0331139  -0.0894036   0.0329304
  -0.0556007  -0.8538216  -0.4333921  -0.0197653  -0.7491923  -0.8313702
   0.1577218  -0.0903894  -0.2694684   1.0588175   1.2556043   1.1569297
   0.1221418   0.4634015   1.4334473  -0.2990278   0.1176344  -0.2599518
   1.4190171  -0.0571247  -0.7486209   0.0211912  -0.3306617  -0.8348671
  -0.1887986   0.3298982  -0.3029230   1.4691830   1.5890680   0.2321825
  -0.0505108   0.5734947   0.8594078  -0.0065203  -0.3559119  -0.3336022
  -0.1438121  -0.4160474   1.4494838  -0.0533434  -0.3692981   0.4123125
  -0.0005762  -0.0034431  -0.1035914   0.5755976   1.7102818   0.4649004
  -0.8349075   0.6037415   0.2447722   0.0237399  -0.0608101   0.1030465
  -0.0389917   0.5777384   1.3894027  -0.8338762   1.0033838   0.2424154
   0.0275301  -0.1419555  -0.0040284   0.6077931   0.6192987   0.7911457
  -0.3738491  -1.1863082  -0.5244610   0.0497596  -0.0150607   0.1958494
  -1.5747181  -1.4590076   1.0909354  -0.3416580  -0.0201916  -1.3803795
  -0.4502221  -0.2076270   0.3268037   1.1575977   1.9685346   0.2366844
  -1.0582704  -0.9761952  -1.1553092  -0.3128530  -0.2073327   0.1142702
  -0.1475856  -0.7610596  -1.0725879   0.7050805   0.2893459   0.6662896
   0.0692450   0.1277511   0.2001953  -1.9571935   0.2224923   1.2731800
   0.3964646  -0.3094323   0.0430701   0.1945207  -0.1785343  -0.0083222
   0.7177787  -0.6291313  -0.3696586  -0.4576757   0.3898751  -0.1936993
   0.0698075   0.2774338  -0.0467735   0.0829240   0.6443488  -1.0131427
  -0.0389622   0.7407280   1.7663101  -0.1114947   0.3626529   0.1006616
  -1.1036427   0.8219616   0.9526909  -0.7739430  -0.2627350   0.8514885
  -0.0129154   0.3471140  -0.1050557   0.4682258   0.4146055   0.5119026
  -0.3564975  -1.4519387  -0.6357498   0.0170235   0.3874127   0.1291763
  -0.5172079   0.2148557  -0.0587963  -0.6280002   1.6308177  -0.8644622
   0.1866300  -0.2655408  -0.0391194   0.7338168   0.3393350  -0.2755116
  -0.0790282  -0.2931809  -0.5519487  -0.3812303   0.0293157  -0.0620308
   0.7117636   0.9524393   0.2990838  -0.5500537  -0.3205169   0.6082807
   0.1638121  -0.3685775   0.0147484   1.1227723   0.8384387  -0.2056342
   0.2112209  -0.6687470   1.1503413   0.3426966  -0.0014179  -0.0680561
  -0.8022211   1.1783615   0.2893197  -0.5458845   0.6712907  -1.1669147
  -0.3483759   0.0294701  -0.2193266  -1.3232619  -1.4576215   0.6164919
   0.4125212   1.5018295   0.1398038   0.0653836  -0.0037126  -0.1219207
  -0.4260125  -1.1597587   0.8597792  -1.3944521   1.6062424  -0.0646928
  -0.0257208   0.0793942  -0.1218616   2.0852455   1.3394478   0.7166006
   0.0302572  -0.0314201  -0.2657284  -0.2870515   0.1301644   0.1011946
   0.4126833   0.6595334  -1.9282751  -0.3530214   0.5723346   0.6351544
  -0.1889377  -0.0544753  -0.1345604  -0.0588764   0.7764952   0.6912485
   0.2340387   0.0568180   1.2899222   0.3268995   0.0151699  -0.2418186
   0.7037848  -1.0131182  -0.5987618   0.1728799   0.5495722  -0.4773944
  -0.2044335  -0.1554041  -0.2298703   0.4842913  -0.1078206   1.1865958
  -1.8498416  -0.3105849  -1.2657347   0.0222624  -0.1767695  -0.0055639
  -1.1580102   0.0699667  -1.2328641   0.7542849   2.1729285  -0.6642119
  -0.0310770   0.2332795  -0.0834772   0.3629970   1.8872583  -0.1150253
  -1.9204987  -0.0565397  -0.4547591  -0.0830192   0.1234833   0.1688049
  -0.1129129  -1.9516413  -0.0924718  -1.0270057  -0.4348526   0.6407035
  -0.0248179   0.4414569   0.3185139  -0.2403346  -0.5447233   0.8769100
   0.1965206   0.9822074   0.9115179   0.0401404  -0.0407987  -0.0544923
   0.0508192   0.1941114   0.1716499  -0.1115326  -0.6555320   0.2405468
  -0.0887552   0.1517588   0.4123594  -0.8296228   0.7441241  -0.0009767
  -0.0935891  -0.3113342   0.9626168  -0.0059436   0.0418210   0.3394778
   0.9460847  -0.7494028  -0.4851426   0.2692109   0.3038201   0.5198802
   0.0551944   0.4035285   0.1345941   0.6158760   0.1893320  -0.3530694
   0.2011854   0.9905515  -0.6968066   0.0070401   0.2279454   0.0476999
   0.7030834   1.7133841  -0.3729942  -1.2933726   0.5639477   0.9852979
   0.1446017   0.0128033  -0.0806430  -1.1847950  -0.0688924   1.7862795
  -1.2356521  -0.8636797   0.5112530   0.1423617  -0.2251682  -0.2396927
  -1.4489068   0.5365605  -0.8833612  -0.9994619  -0.3996702   0.4338843
  -0.0452840   0.3879128   0.5005880  -0.6838016   1.3522008   0.5611680
   1.9279983  -0.4379587   0.4946103   0.0284293   0.0847454  -0.1132140
  -0.1202208  -0.1179286  -0.4528782  -1.1649977   0.4772865   0.0286320
  -0.1929349   0.0913677  -0.0866347  -0.4851920  -1.1658502  -0.7098953
   0.8177324  -0.8092654   0.6449268   0.1344549   0.1318939   0.0518464
  -0.8371054  -0.4552040   0.1549533  -0.2110843   1.3387437   0.9359138
  -0.2400868   0.0223551   0.0700609  -0.1954575   0.5895677   1.1404508
  -1.2526553   0.9340232  -0.3437831  -0.0439516   0.0523823  -0.1418508
   0.1594691  -0.0038217   0.7504994  -1.2006657   0.0842691   0.4232644
  -0.0496444  -0.0965820   0.0575092  -0.9470250   0.5516802   0.7861039
   0.5598397  -1.1188348   0.4136199   0.2909678   0.0637839  -0.3193201
   0.6619555   0.6361213  -0.1683755  -0.4389663   0.1352626  -0.4026780
   0.0194265  -0.0341978   0.1237969   0.0045516  -0.3304696   0.2305108
  -1.0493883   0.1511581  -1.0510247  -0.0547631  -0.2215215  -0.1107150
   0.2494337  -0.2232205   0.3739057  -1.4908256   0.1225519  -1.1537108
   0.5679666  -0.0697293   0.3433506   0.1095845   0.0993672  -0.2109016
   1.2176531   0.7149240   0.1895531  -0.1064742   0.0153621  -0.0792969
   0.0104311  -0.7640707   0.1442980  -0.2683779  -1.4027848  -0.5420368
   0.0613909  -0.0896439  -0.0022004  -2.0512886  -0.4512745   0.1310918
  -0.9637277  -1.6917832   0.0426799  -0.1044878   0.2005159   0.3650242
  -1.3148311  -2.7424264   0.3409007   0.0798671  -0.0930487   0.6507946
   0.1392192   0.0449316  -0.0973984  -0.1948685  -0.9468258   0.4298649
  -1.0973803   1.1587610   0.3508782  -0.8820499   0.0738445  -0.0792447
   0.2961682  -0.1824108   0.3121860   0.6897393   0.5533883  -0.0683023
  -0.4562269  -0.2189059  -0.0110866   0.1130504  -1.4995180   0.2135583
   0.7049909  -0.0338367   1.1326875  -0.0411795   0.3019102   0.0444036
  -0.6818338  -0.1635486   0.4880088  -0.2181070  -1.0507938   0.8893763
   0.2611683  -0.2910601  -0.1307415  -0.1112086   0.6847240  -0.6502710
  -0.2748209  -0.1965799   0.2816429   0.0452508   0.3335159  -0.2897253
  -0.6249850  -0.4997112   0.1958930  -0.5713111  -0.2566987  -0.8500465
  -0.3291180  -0.1270165   0.2216290  -0.0535392   0.4960185  -0.3086339
  -1.7596421  -0.3116492   1.8432074   0.1186131  -0.2813933   0.4762089
  -0.7697128  -0.6830329   0.8501900  -0.9525730  -0.1169030   1.5475899
  -0.1035490   0.1259273   0.0499538  -1.4100220   0.0162583  -1.3378850
  -0.3698295  -0.1808849   0.2883891   0.1564401   0.0217125  -0.0150471
   0.2939509   1.0989687  -0.3626450   1.9397788  -0.3276393   0.5367422
  -0.2148301   0.0055374  -0.0141226   0.0809104   2.2721865   0.3178139
   1.1028158   1.7867846   0.6865558   0.1410113   0.0049392   0.0320395
  -0.1853638  -0.0234190   0.1833907  -0.7466094   0.2802436  -0.5674570
   0.1804132  -0.2344887   0.0212833  -0.0312781  -0.4684854   0.8844282
   0.3450274   0.9013883   0.2109313   0.0810206  -0.0080006   0.0383143
   0.3351772  -0.3425536  -1.2708413  -0.9346722   0.2969325  -0.2559260
  -0.0628418  -0.0742688   0.1266371   0.1218589  -1.2933863   0.0362587
   0.0368236   0.2047844  -0.0716058   0.1262314   0.0262491  -0.0083210
   1.0466446   0.3087088  -2.0387673  -0.8509698  -0.3704924   0.0584820
   0.0872050   0.2174800  -0.0467255  -0.4341285  -0.0734004  -0.4237877
   0.0240990  -0.1725363  -0.4108246   0.0675868   0.3682349   0.0231476
   0.6264576   1.8365329   0.7290566   0.3464499  -0.2855434   0.2897481
   0.0684275   0.3485099   0.0007257  -0.6031214  -1.4434318  -0.0033294
   0.4565138  -0.0801331   0.6024505  -0.0473675  -0.1903614   0.1173393
  -0.1620952   0.7565050  -0.6807766  -1.8804522  -0.8998526  -0.7351282
  -0.0181331   0.0547959   0.1824789  -0.8829636  -1.2873833  -1.1570359
   0.8026979  -0.5636010  -1.1388858  -0.0788403  -0.0916531  -0.0383335
  -0.5559094   0.8924014   0.4174258   0.0611317  -1.0459927   0.0735569
  -0.0344063   0.1033064  -0.1687960   0.1604932  -0.2839207  -0.7864290
  -1.0373326  -1.4875473   0.1979980  -0.0198787  -0.2501336  -0.0868569
  -1.1408317  -1.2052890  -0.7075487   0.0510915   0.1037468   0.6309965
  -0.3655246   0.1405606  -0.1446516  -0.1821650   0.9641544   0.4088773
  -1.4922378   0.9778560   0.3106456  -0.0259549   0.2161579   0.2132754
   0.6802135  -0.0883613   0.7744686  -0.8468509   0.8641814  -2.1543133
  -0.3899896   0.0324720  -0.2968081  -0.4102858  -0.8512771   0.0492619
  -1.9223254  -1.1563803  -0.3506789   0.0142339   0.0210972   0.1564954
   0.9476347   0.3510454   0.3886337  -1.9639822   1.4605005   0.5147721
  -0.0844916  -0.0856175  -0.0967228   0.1936068  -0.8663301  -0.3176764
   0.7136540   0.6367841  -0.7194746   0.3727771   0.4884793  -0.0236123
  -0.7677183  -0.3091869   0.4667872  -0.4308899  -1.0939532  -0.2558032
   0.2048379   0.2448047   0.0361461  -0.0341495  -0.0108284  -1.3402641
  -0.5940195  -0.3479289  -0.1327686  -0.0739657   0.0299233   0.3960041
   0.1324655  -0.8260787   0.0220688   0.6692951  -0.2689901  -0.0462628
   0.2538061  -0.1992174  -0.1073021  -0.2009424  -0.0125672  -0.8633953
  -1.6995610   0.9610010  -1.2354334   0.2197954   0.2393822  -0.1131687
  -0.2588519   0.3171042  -1.4916484   1.2040823  -0.6701769  -1.0735463
   0.1703333  -0.0640891  -0.1572409   0.7610148   1.0756494  -0.2814487
  -0.8899892  -1.4481911  -0.3837511  -0.2943556   0.0478576  -0.0331454
   0.2558185  -1.6556404  -1.3774834   0.9472732  -0.5133833  -0.6141856
  -0.1853982   0.1022635   0.0781275  -0.3641224  -0.7271081  -1.0809358
   0.5698787  -0.0835566  -0.2855650  -0.1350947  -0.1616440  -0.1230455
   0.3162697   0.4896841   0.0043567  -0.2450554   0.5036053   0.3098311
   0.0162746  -0.0395790  -0.2875065  -0.7469547  -0.4841666  -2.0325938
   0.4969452   0.3726257  -1.1642990  -0.1326963   0.2998518   0.0734533
  -1.2276057  -1.3830640   0.2504344  -1.1190093  -0.1784519   1.0951947
  -0.1599173  -0.0070735   0.2489240   0.3748745   0.0753300  -0.4654423
  -1.1981602   0.4582108   1.2097909  -0.1393147  -0.2419689  -0.1458666
   0.9940828   0.3731915   0.3244984  -0.0263433   0.0407435   0.6196964
   0.0689712  -0.1377015  -0.0898542   0.5655849  -0.1931901   0.4495477
   1.4689178  -0.1282542   1.2115673  -0.2855446   0.0183506  -0.0102693
  -0.2325159   1.4476497   0.5907265   0.0270832  -0.1738065   0.5356643
   0.2611995   0.0028504  -0.1522713   0.0822186  -0.0967486  -0.6673205
   0.2734148  -0.0085114   0.0385553  -0.0355204  -0.2532783  -0.0604940
  -0.6310951  -1.2821891   1.3018075   0.1277933  -0.2202359   0.9615125
   0.2052800  -0.1752331   0.1717426  -0.1086257   0.3198975   1.0230982
  -1.1261479   0.1881736  -0.0402616  -0.0768239   0.1820876  -0.3076928
   1.3663853   0.2850641   1.7631405  -0.3761084   0.3824009  -0.8892681
  -0.3906614   0.2825953   0.1032532  -0.3572912   0.6718096   0.6301651
  -0.2689328  -0.6711505   0.7680662   0.0049665  -0.4828631  -0.2856250
  -0.5364763  -0.4647485  -0.1613118  -0.3890060   0.7115709  -0.2901463
   0.2451494   0.2612987   0.2245365   0.5623694   0.6315873  -0.4744414
  -0.9871090   0.4091443  -0.9993834  -0.2861309   0.0587036  -0.1217499
   0.1235930   0.2951619  -1.1328895  -0.4029824   0.2413472   0.1352896
  -0.1691106  -0.2052378  -0.4120711   0.5147599  -0.3877581   0.3119461
   0.9081208   0.5744787   0.7159218  -0.0613747  -0.2057172  -0.1817984
  -1.2935342  -1.3988886   0.5211398   0.0976166  -0.5808125   0.8756291
  -0.0480494  -0.4167839   0.1225184  -1.6344632   0.6265343  -0.0204867
   0.1027015  -0.4279304   0.9741650   0.3033104   0.0590509  -0.1768255
   0.3052513   0.5670768   0.1326059   0.3132512   0.1596088   0.7460560
  -0.3737213   0.0514458   0.0090276  -0.2602286  -0.7009173   0.5029812
  -0.8067613   0.5134827   0.3681886  -0.3819145  -0.2541350  -0.1013459
   0.5293454   0.6798426   0.1534392   0.2742039  -0.1282973   0.1473415
   0.1008660  -0.0536935  -0.1569377   1.5694127   0.4513086   1.0745898
  -1.5305107   0.5536306  -1.3508199  -0.0887869  -0.1558759  -0.1582531
   0.3597086  -0.9250064  -0.2698942  -0.5373822  -0.1134266   0.2029942
  -0.2190473   0.0340273  -0.1020080   1.8676181  -2.1196026  -0.9377690
  -0.0849962   0.2445732   0.0335904   0.2137303   0.0354567   0.2272108
  -0.0487637   0.9855519  -0.1774572   0.9217617   1.2297306  -0.3722206
   0.3275639   0.0703335   0.0973620  -0.5903979  -0.0087570  -0.1551084
  -0.3080790  -0.6190332   0.2208975   0.1738492   0.0481092   0.1416422
   0.3632478  -0.5230289  -1.0577989  -0.0156523  -1.6187976   0.3990917
   0.1816400   0.0326983  -0.0983956  -0.2762050   0.0686821   0.6276576
  -0.7194344  -0.6276803  -0.6125626  -0.0309284   0.2576192  -0.1696061
  -1.5100974  -0.0125769   0.9128438   0.8131455  -0.0913802  -0.3663852
  -0.1739215  -0.0484373  -0.1946329  -0.0274908   1.7913648   0.5260328
   0.0659268  -0.0250776   0.2707056   0.2909400   0.0741271   0.1480008
  -0.6290960   0.0555957  -0.3486068  -0.0452178   0.4709522  -1.2757492
  -0.0111309   0.0944920   0.0102401   0.1128741  -0.6421717  -0.1868413
   1.2574533   0.2468335  -0.0834095  -0.0702811  -0.2270732   0.3314985
  -1.0681955  -1.0520214  -1.1000590   0.1292972   1.2607588  -0.5791051
  -0.0142537  -0.0436186  -0.0273304   0.1313936  -0.9125351  -0.7700346
  -0.0937473   0.9470588   0.9786356   0.0092212   0.1573854   0.0623877
   0.1111004   1.3134308  -0.6714318  -0.0337221   0.7180649  -0.3239635
  -0.4902605  -0.1218313  -0.2283013   0.3423761  -0.5367176   0.3920884
  -0.4839885  -0.2237874   0.8517094   0.0080108   0.1131615  -0.0470447
  -1.7360840  -0.1834313  -0.8489020   0.0632727   1.3707282  -0.4078892
  -0.1401704   0.0634120   0.2294695   0.3264647  -0.0876819   0.7731110
  -0.0907233   0.8533796  -1.1412719   0.2376662  -0.0897576  -0.1473472
  -0.8103878   1.2585718   1.6386158   0.5232051   0.6995191   1.7714515
  -0.2074053   0.1973430  -0.1665143  -0.4626037  -0.0408088   0.1909134
   0.9446378   0.3355074   0.3401593  -0.0630525  -0.0566234  -0.1964281
  -0.1182729  -0.0195422   0.1743132   0.5253831   0.9747960  -0.3739814
  -0.6046955   0.5417463   0.1921163   1.3434769  -0.0937521  -0.9707271
   0.5148658  -0.9264563   0.0321708   0.0093009  -0.0961960   0.0251664
  -0.9294234  -0.1888838   0.0323890  -0.2602738   0.6949176   0.3121970
  -0.3029621  -0.1847845  -0.0197215   0.4962202   0.9639759   0.9179552
   0.5279254  -0.6724661  -0.0273973   0.2710441   0.2352932   0.2761869
   0.3367314   0.3957779  -1.0068301  -0.0350678   0.0355100   1.5036868
   0.0659454  -0.2807558  -0.1458846   0.6774501   0.7375981  -1.9128819
  -0.9124802  -0.2264204  -0.2871567   0.0221980  -0.1984386   0.1037420
   0.2726269   0.8508842  -0.7457347   0.3468914   0.2077708  -0.2916643
  -0.1898280  -0.2531316  -0.3114195   0.0574665  -0.3908756   0.2241456
   0.6072225  -0.6688377  -0.4168043   0.2735468   0.1159762  -0.1010876
  -0.5456106   0.0785972  -0.4850379  -0.6479564  -1.5736120   0.2548249
  -0.0024115   0.3359328   0.3724444   0.7317807   1.1603932  -0.7664913
  -0.2603396  -1.1143477  -0.0523762  -0.1788293   0.1175326  -0.0948686
   0.6730922  -0.4724744   1.2206901  -1.0662698  -0.4156125   1.0528472
  -0.1184269  -0.0511448  -0.3382566  -0.2559019  -1.3420599   0.2438147
   0.2632509   0.6952763  -0.0710502   0.2860320   0.1295271  -0.1032537
   0.1658601  -1.0821817   0.0315401  -0.6520565  -0.5973908   1.2107565
  -0.0416346  -0.1921654   0.1598566   0.2190772  -0.1365832   1.0619834
   0.5144739  -0.3460239   0.9666866   0.1415411   0.1039491   0.0737945
   0.8801605  -1.1350797  -0.2898790  -0.5695410   1.5194491  -1.8174509
   0.2199129   0.4630049   0.0759717   0.3247385  -0.6518671   0.3592188
   0.5122982   0.3405382  -1.1425783   0.0633365  -0.2167513   0.1503786
  -0.1053777  -0.3700050  -0.3792735   0.8253074  -0.3455495   0.6599152
   0.1117028  -0.1062363   0.4289158   0.6106258   0.4558946  -0.2578849
  -1.3066284   1.8327405  -0.0954624   0.0231701   0.0105073  -0.0427457
  -0.0454715   1.1226019  -0.9547785   1.0731225   0.9838749   0.1364000
  -0.1160442   0.1357532   0.4093222   0.2968962  -0.1980619   0.1099771
  -0.6240656   0.0792927  -1.2300894   0.1010897  -0.3501040   0.1328478
   0.8334163   1.1093376  -0.4206185  -1.3351541  -0.0143091  -1.2428046
   0.0474587  -0.1015817   0.2599810  -0.6755474  -0.1589376  -0.3761968
   0.6665647  -0.4200272  -0.2800720   0.1546605  -0.0408819   0.0074259
  -1.4334786  -0.1471433   0.8241907  -0.3312992   0.3182602  -0.1195061
  -0.3608919   0.1519029   0.0934935  -0.8512412  -0.2264329   0.0723407
  -0.5571482   0.1576911  -0.5046101  -0.0649590   0.1756678  -0.1804990
   2.2859123   0.1326057  -1.2594824  -0.8890096  -0.8779562   0.5265558
   0.1087366  -0.0743981  -0.1167739  -0.0605179   0.4162871   2.3517995
   0.1426306  -0.3475948   1.2240309  -0.2452208   0.1564413  -0.3306524
   0.1576758  -1.2428368  -0.0352178  -2.1979092  -0.3778738   0.4276687
   0.2821476   0.1746638  -0.0779606   0.2446283  -0.5775041   0.7347905
   0.6583598  -0.4810130   0.0028344  -0.1731245  -0.0924657  -0.2125012
   2.2025931  -0.9361600  -1.1349771   0.8862394   0.4888187  -0.5870910
  -0.3391991   0.1436030  -0.1281391  -0.2031640   0.9540698  -0.1176953
  -0.0245512   0.4068441   0.4082301   0.1480195  -0.1982563  -0.0626342
   0.0879950   1.3662395  -0.6788722   0.1952090   0.9148071  -0.9422067
  -0.1118205  -0.0962232  -0.3370359   1.0864478  -0.3861094  -0.1423863
   0.1383773   0.1092117  -0.9895144  -0.0593534   0.1101209   0.2080077
   1.2558881   0.4649756  -0.9490535   0.3852288   0.6335247   0.7883409
   0.0047300   0.0776360  -0.0596473   0.8788240   0.7303119  -0.3811252
   1.3456583   0.0049576   0.5533103  -0.2121253   0.3225944   0.0558535
   0.6991284   0.1407176  -0.0947390  -0.7942765  -0.5806815  -0.9336614
  -0.2174881   0.2955103   0.1757274   0.6217658  -0.3496597  -0.8049651
   0.2487572   0.8888102   0.3976296   0.2706416  -0.2001267   0.0692593
  -0.4509764   0.1032189   1.2926180  -0.5867867  -0.6753312  -0.0750043
   0.1761708   0.1445254   0.3179706   1.1270252   0.8550987   0.7286867
  -0.2130995   0.0567647  -0.5672740   0.1936258   0.2583355   0.1600563
   0.3385596   1.9116887   0.1800263   1.6625106   0.7572950   0.1166063
   0.0949104   0.0824690  -0.1995360  -0.8218328   0.0720819  -0.5239198
  -0.3959811  -0.6002231   1.7579742   0.0567512   0.2700723  -0.0639682
  -0.2994086   0.3417606   0.3917550  -2.6198153   0.9601082   0.4441402
   0.1608491   0.2407242   0.1188273   0.3193446   0.7844302  -0.3204703
  -0.0421564   0.0803715  -1.5517184   0.0797666   0.0088434   0.2259554
   0.8488538   0.3225460   1.0692002  -1.7078179  -0.1560776  -0.8092106
   0.1163860  -0.0419878  -0.2912207   1.0455623  -0.4395680   0.2954776
   0.0459185  -0.4672653  -0.0891370   0.4117616   0.0774703   0.1167283
   0.9901247   1.1250164   0.0949144  -0.2810816   0.6237611   0.3931084
  -0.0774845   0.1093845   0.1657717   0.0670054   0.4479088  -1.3232814
   1.2648355   0.6509718   0.3359958   0.1426419  -0.0768041  -0.0988703
   0.2627590  -0.1690670   1.3911170   0.8261173   0.5790974  -1.6191049
  -0.3442338  -0.0322949   0.3039011  -0.5813583   0.3706121   0.1063250
  -0.2579390   0.3787348   0.3739629  -0.1034091  -0.0582761  -0.1289245
  -0.2360536   1.1977211   0.8515880  -0.5148623  -0.3866508  -0.2661752
  -0.0216398  -0.3247842  -0.3029433  -0.9934843   0.1076242   0.1168126
  -2.1871657   0.7051915  -0.1507806  -0.0260821  -0.0225178  -0.1210303
  -0.6375788  -0.5590298  -0.0768694  -0.6213097   0.3952338  -0.3148864
  -0.1527484   0.1925977  -0.1461200  -0.4891269  -0.3955287   0.3056280
   0.2129214  -0.1716481  -0.2237945   0.0400335   0.0013396  -0.2935117
  -0.0473259   0.1211333  -0.6230901  -0.2406463  -0.8850570   0.2224039
  -0.3676331   0.1341164  -0.1004771  -1.1433090  -1.5122983  -0.9111581
   1.5802304   0.2261062  -0.3635716  -0.2560472  -0.0713002  -0.0858835
   0.4716027   0.6895816  -0.2733397   0.8761929  -0.2945157   0.4098648
  -0.0444267   0.4186132  -0.0644287  -0.3835594  -0.8727689  -0.1286326
   0.1696443  -0.5508207  -0.1924494  -0.0042914  -0.2123687   0.1291412
  -0.1553955   0.7467636  -0.0227069   0.3817196   0.0156048   0.1983636
  -0.0740310   0.1202070  -0.1470209   0.0051294   0.3045711  -0.5273115
  -0.1048362  -0.4875719  -0.4885026   0.2977506   0.3708605  -0.1219229
  -0.6362267  -1.0439879  -0.5861912   0.5966740  -0.2750337  -0.9729625
   0.3071115  -0.0200504  -0.2058330   0.4858595   0.3503000   0.8447058
  -0.3003122   0.0864096   0.1914815   0.2034059  -0.1544891  -0.0188459
  -0.1594787   0.2878691   0.5569234  -1.2898213  -0.1501021  -0.5936343
   0.2261267   0.0136792   0.1117167   1.2333256  -0.1750227  -1.0773885
   1.4805088  -0.5285549   0.8671454  -0.1052308  -0.2241051  -0.1512253
  -0.0225257  -1.2483884  -0.0864423  -0.2521128  -0.2884080   1.1337176
   0.2352935   0.0405171  -0.3159770   0.8710783  -0.2206686  -0.7577983
   0.1921914   0.2376319  -1.5936093   0.1376553  -0.0963670   0.1030006
  -0.2348112   0.1807599  -0.3824498   0.6143242   0.7133878   0.0614647
  -0.3247659   0.2417924   0.1882470  -0.8352948   0.6788904  -0.0488687
  -0.3950631   1.2946321  -0.0934652   0.1423070  -0.2415704   0.1133413
  -0.2835870  -0.3318288  -1.1631732  -1.7910964  -0.6466228   0.7793075
  -0.0690941   0.3593689  -0.1984695  -0.7118675   0.8901819   0.1058555
   0.8443369   0.0255202   1.2972753   0.2621468   0.0253868  -0.0817463
  -0.0447049  -1.1255241  -0.8632279   0.1273878  -0.8338600   0.8201770
  -0.1026190  -0.2608433  -0.2733442   0.4076194  -0.2317741   0.8655767
  -1.3850983  -0.2731850   0.8588235  -0.3782789   0.0224469  -0.3540284
   0.2601407  -0.4317125  -0.4511783  -0.0225980   0.0555617   0.8356809
   0.0082060  -0.3990644   0.2037542   0.2931184   1.3776345   0.0807754
  -1.2835989   0.2370284  -0.4111833   0.0083913  -0.2414360   0.0289575
   0.2395404  -1.0133541  -0.9738869   1.2940455  -0.5600292   0.5487081
  -0.0656375  -0.0615285   0.0989993   0.5038779  -1.1672509   0.1732541
  -0.6289937   0.9146762   0.3869147   0.0004053  -0.0331498   0.1165726
  -1.0371474  -0.4639749  -0.5137654   0.3011567   0.4348030   0.9935810
  -0.2402955  -0.2986420   0.0922436  -0.1123496   0.3072666   0.9315743
  -0.3670013  -0.3951323   0.2914637   0.0862348  -0.0826012   0.1147049
   0.0604240   0.8364575   0.4444454   1.6873550  -0.6609298   0.2740810
   0.0193085   0.4160051   0.1755074  -0.0760242  -0.3180847  -0.8684004
   0.9056564   0.5444503   1.0777489  -0.0949730  -0.2664295  -0.0845905
  -1.0008102  -1.4339108  -0.3008855  -0.5065639  -1.0516171  -0.0080364
   0.1006474  -0.1985488  -0.0218958  -0.2226759  -1.0543396   0.0042248
  -0.2327846   0.3162588   0.7173206  -0.1867768   0.0332795   0.1475048
  -0.4135676  -0.4551248   1.1518588  -0.7324719   0.6282665  -0.7073622
   0.0327957  -0.2253424   0.1089519   0.3069925   0.4442621   0.8674733
   1.0690293   0.1576899   0.3874477  -0.0499196  -0.1005400  -0.1001745
  -0.8762330  -0.3279842  -1.0529356  -1.3582438  -0.4998511  -0.4807288
  -0.0332103   0.1615383   0.2810216  -1.1046649   1.1291022  -0.3961260
  -0.9819083  -0.5650241  -1.4398494  -0.2612241  -0.2213769   0.1661343
  -0.2607063  -0.6223676   0.1007988   1.0459445   0.4051347   0.2547973
   0.0808625   0.2522340  -0.3095735   1.6640733  -1.4769121   0.0230009
  -0.4677812  -0.1594383  -0.1189598   0.2028445  -0.1550083   0.0591391
  -0.2066103  -0.3455850   1.6665826   0.4894759  -0.5361780  -1.0763408
  -0.0457844   0.0248568  -0.2629188   0.7405662  -0.1174037  -0.6911452
   0.2042022  -0.6605731  -0.7662440  -0.1550348  -0.2283777  -0.0971016
  -1.8739876   1.5450467   0.1472844   1.1529166   0.2265075  -1.1437134
  -0.1739937  -0.0864752   0.0200152   0.5275703   0.7491294   0.4130299
  -0.8467418  -0.4199751   0.1754525  -0.0452603   0.1533425   0.0424308
  -0.7605884   1.4126795   0.0074728   0.2160509   0.3938922  -0.5550500
  -0.0202359   0.0773858  -0.4185810   0.4013689  -0.5366649  -0.6442129
  -0.6926321   1.1783247   1.0178463   0.1587510   0.1137999  -0.0803412
  -0.0353375  -0.1595068   0.1684265  -0.2402726  -1.0593134  -0.0972367
  -0.0015150  -0.4436748  -0.0416970   1.3791152   0.5062022   0.5120555
   0.5209019   0.0015813   0.1180026  -0.2640812  -0.3947796   0.2976542
   0.6673254   0.1391483  -1.1324162  -0.1922432   0.7350348   0.5058693
   0.0601545  -0.3171615  -0.2587659  -1.3930537   1.1724392   0.5693794
   0.5753853   1.8475951  -0.1901447   0.0255630   0.2000900   0.0138032
   0.0275231  -0.2683351   2.1144263   0.3829360   0.8494844  -0.0318143
   0.2695876  -0.1075550  -0.3750701  -0.7192448   0.7069446   0.2374366
  -0.6061783   0.1751543  -0.1589392  -0.3404933   0.1205719  -0.1434327
  -0.1016970   0.2952002  -1.1202058  -1.1874806  -0.0673775   0.4216171
  -0.0679996   0.4029580  -0.4514438   0.0133562   0.4212676   0.3990123
  -0.1858675   0.0115972  -0.5993464   0.1382351   0.2257817   0.1020837
  -0.9984560  -0.4961867  -1.2533883   0.4073686  -1.9050399   0.5040493
   0.1631413  -0.0209793  -0.0681076   0.2780512  -1.5291913   0.6725861
  -0.5272858  -0.5358766   0.4929596   0.1970254   0.0878193  -0.3320519
  -1.6627809  -0.7559922   0.8668945  -0.4668631   0.1903898  -0.9379225
  -0.0018931   0.0344389   0.5023143  -1.0129882   0.1035937   0.6178703
   0.8160436   0.1114549  -0.3083314  -0.2137985   0.0550712  -0.0510949
   1.3593584   1.1474733   0.6974057  -0.4529628   0.4722193  -0.0024788
   0.4471105  -0.0547436  -0.1418056   0.9267923   0.9424041   0.0731099
  -0.3870226   0.0719034   0.2040999  -0.1196415   0.0090781   0.3483686
   0.0404148   0.4203193   0.1358763   0.3050139  -0.0105048   0.4941122
  -0.2040805   0.0205360  -0.1203580  -1.4596886  -0.8628351  -0.4607398
  -0.6943518  -0.8569818   0.3540159  -0.0389975   0.2430553  -0.2265561
   0.6726225   1.7115575   1.1572224   0.2483177  -1.0469568   0.0725828
  -0.5433148   0.1917479   0.1258817  -1.0134903   0.6036474   0.2964495
  -0.2558390   0.1546670   0.3448956   0.0534677   0.0775591   0.1909965
   0.7682490   0.8634502  -1.3330843  -0.4152496   1.1825044   0.0810569
  -0.0625838   0.1186143   0.0463084   0.7985499  -0.1035587   0.3092818
   0.0403612  -0.1075405   0.0549674   0.1764100   0.2665798  -0.0193768
   0.1601735  -0.8482107   0.3934881  -0.5971658   1.3171005   0.6959179
   0.0260585  -0.3508223  -0.0562513   1.1873077  -0.7839087  -0.2963637
  -0.0468629  -0.4655829   1.4051088   0.0069278   0.2940018  -0.0075378
   0.2060059   0.9481617  -0.6779866  -1.1301788  -0.2848270  -0.0899157
  -0.0801244  -0.0101193   0.1312768   0.0568718   0.1676098   0.7714628
   1.7459432   0.6084325   0.2098439  -0.2433839   0.1455948   0.0998831
  -0.5650632   1.2237814  -0.3320071   0.2495330  -1.9090769   1.2488298
   0.1295823   0.1785199  -0.0296152   0.6409891   0.9766716  -0.4436211
   0.3053940   0.4485350  -0.2857934   0.0238624   0.2843621   0.0600818
  -0.7744767   1.3908288  -1.3474110   1.0417809   2.4119125   0.3181127
   0.2104364  -0.2592614   0.1221213   0.0224810   0.4817753   0.7357959
  -1.0907247   0.5458327  -1.1549016  -0.1021956  -0.0991174  -0.0151958
  -0.2734258   0.3980835  -0.0087604   0.3571731   0.0651432  -1.4682479
   0.2417891  -0.0566665  -0.1517914   0.5733616  -0.3217124  -0.0219712
   0.2839133  -0.4548883  -0.6948058   0.0681297   0.0338683  -0.2957186
   0.2292833   0.2700398  -0.3526223   0.9918607   0.1123532   0.5250993
   0.1143968  -0.2646867   0.2185246  -0.4858163   1.1566441  -0.2987103
  -0.0351115   0.0846527   0.5614439  -0.1309340  -0.0943298  -0.1916696
   0.0106655   0.2850382   0.4913992  -1.2303123  -0.2088100  -1.9276544
   0.1423703   0.1219309   0.0222863  -0.2674621   0.5745435   0.6271580
   0.3783290  -0.7827878   0.1313785  -0.0127157   0.0275156   0.1124331
  -0.7134242   0.5486284   0.7499675  -0.6601096   0.3407266   0.0528490
   0.4999861  -0.0988755  -0.0912439   0.1672378  -0.2194261   1.5558896
  -0.0251439   1.3234076  -0.4400096  -0.0357323   0.2362519   0.4610517
  -1.5835196   0.5359917   0.1486268   0.0746217  -0.1263459  -0.1328015
   0.3699183   0.2823265  -0.3357579  -0.5158966   0.5419032  -0.4475459
  -0.7689103   0.9281648  -0.6639459  -0.2706042   0.0147974  -0.1919752
   0.9529452   0.4925515  -0.1699424  -0.1737729  -0.1786232   0.9566178
  -0.0199157  -0.0543284   0.1289423  -0.1067916   0.2604203   0.3853454
  -0.8823005  -0.0501457  -0.3749949   0.1480346   0.2508922   0.1693437
   0.3434942  -0.1989671   0.6049656   0.1967057  -1.9028929   0.6219325
   0.1571981  -0.0044705  -0.0898352   1.3637209  -0.2505935   0.1211967
   0.9944609  -0.1787357   0.1355707  -0.2924340   0.0629227  -0.2785489
   0.7273760   1.0807163  -1.4162601   0.3091199   0.3211124   0.8894901
  -0.2878450  -0.0704842  -0.1111400  -0.9741656   1.1190662  -1.0972053
  -0.5513269   0.3684967  -1.2417391  -0.1518895   0.3075917   0.1870840
   0.0553341   0.7847802  -0.1694219  -0.0279300   1.6807425   0.1763648
  -0.2023990   0.0156579  -0.1106843  -1.5678187  -0.6340721  -0.2862583
   1.3488527   0.0978243   0.2437941   0.1667822   0.0284403   0.3701914
   0.9688443   0.8536661  -0.1137860   0.1933740  -0.5554220  -0.3419838
   0.1442505  -0.1037148  -0.1638109  -0.0978449  -0.4936814   0.5231670
   0.4031334   0.6067057  -0.3520539   0.0575454  -0.1132779   0.1699849
  -0.8550563   1.0366290  -0.6471958   0.1877320  -0.5236754  -1.3018045
  -0.2002221   0.1331125  -0.0412268   0.0416201  -1.1521011   0.1046791
   0.1372527   1.3303004  -0.4744758   0.3274607   0.2304841   0.0642352
  -0.8487044  -0.5538361  -0.6318058  -0.3116518   0.3241400   0.6497471
  -0.0295084  -0.1123107   0.0410901   0.7035322   0.4488791  -0.9955164
  -0.0992584   0.7919870   0.0036219  -0.1182965   0.1310409   0.3389607
  -1.2528156   0.3900557  -0.3188153  -0.9659035   1.1923455   0.2670039
   0.1181478  -0.1512879  -0.1026434   0.4250458   1.9020452   0.2977070
  -0.6105647   0.5836558   2.0426925   0.3184393  -0.1973066   0.2481358
  -0.4592891  -0.7119670  -0.8233296   0.9384743   0.1256189  -1.0573703
  -0.0311544  -0.0162379   0.1087186  -1.2220118  -0.8767386  -0.4974881
   1.0476276   0.6799915   0.5613651  -0.2610627  -0.0030205  -0.2451406
   0.0176279   0.6345490   0.2038823  -0.8485446   0.1406282  -0.1623305
  -0.0843527   0.0423542   0.0529164  -0.3091044  -0.3151248   0.3945387
  -0.8758592  -0.2050047  -0.7933265  -0.0348911   0.2825660  -0.1124571
   0.0692611  -0.2431537   0.4621062  -0.1559886  -0.3454008  -0.2916583
  -0.1312289  -0.0829062  -0.1590415   0.7477620   1.5196127  -0.1911026
  -0.3768508   0.2989757   1.3247819   0.0488394  -0.2258521   0.0874836
  -0.1782484  -0.7486003  -0.2034228   0.2316666   0.0185021  -0.4248842
  -0.2123834  -0.3410871   0.0712815  -0.5619355   0.6073495  -0.1759650
  -0.4067547  -0.4724534  -0.4495351  -0.1961301  -0.4284906   0.0997263
   0.0334271  -0.1157901  -0.0495954  -0.0139793  -0.2034003  -0.7729828
  -0.0602063   0.1977013   0.0015194   0.1639183   0.0310766  -0.6503028
  -0.3031299  -0.2903130  -0.2307451  -0.0750992   0.0065270   0.3768551
   1.8386376  -1.0676893  -1.2043819   1.2503160  -1.3211764  -0.0222454
  -0.1180174  -0.1020586  -0.3249063  -0.6165760   1.1719948   0.8235563
  -0.0503884  -0.9103403   0.6418663   0.0754404   0.2901104   0.1473872
   0.5804878  -0.0265780   0.7483926   0.0834578   0.3534336  -0.9449840
  -0.2078516  -0.0220521  -0.3621633   0.1217128   0.9003168   1.0843861
  -0.8606657   0.7646082   0.0787640   0.1749704   0.0686046  -0.1162838
   1.1424296   0.4197818  -0.3136237   0.5656779  -1.6494993  -0.0972500
  -0.0243283   0.2896276   0.2342789  -0.8480660  -1.3900859  -0.2003384
  -1.3347698   0.0941198  -1.3169503  -0.1173511  -0.3002849  -0.1345114
  -0.3180706   0.6765693  -0.1703048  -0.4670767   0.6092458   0.6992957
   0.0532757  -0.0705579  -0.0999714  -0.6283921   0.4277677  -0.7655258
  -0.1611703  -1.3483442  -0.8102990   0.0468056   0.2145003   0.0327973
  -0.3647902  -0.9999470  -0.5743023   0.3611537   0.6910215   0.5619806
   0.0682241   0.0070541   0.4530786   0.0077659   0.2694328  -0.1364408
  -0.3423688  -0.6391769   0.7600221  -0.1692946   0.0451987  -0.0693516
   1.1820017  -0.2078720  -0.3144321  -0.7273614   0.2391296  -0.0815279
   0.2749032   0.2346377   0.0136942  -0.3966487  -0.3509737  -0.1043431
  -1.2653805  -0.2543421   0.4475019  -0.0682118  -0.0396776  -0.0428028
  -0.4977686  -0.0107050   1.2981898  -1.0926209   0.1934827   0.4399998
  -0.0644844  -0.0653410   0.0716327  -1.8245499   0.9872301  -0.1560865
   1.2827372  -0.7139631  -0.3796814   0.3154234   0.3432523   0.2372552
  -0.1432714  -0.6261277   0.7281215  -0.3813667   0.1988722  -0.0650208
  -0.0819258  -0.1431760  -0.1368014   1.4392549  -0.6199009   0.2594510
   0.2211167  -0.2690004   1.3655944  -0.1250167  -0.3182132  -0.1577314
   0.3461122  -0.1449826   0.6790386   1.2347938   0.9520166  -0.5834708
  -0.0508180   0.1026093   0.3464998  -0.0674541   0.1890860  -0.5475143
  -0.3376964  -0.1194267  -1.6553867  -0.3525236  -0.1970501  -0.0210886
  -0.0021336   0.7315056   0.3200811  -0.1430398  -0.4896597  -0.3989551
   0.0916390  -0.2346785  -0.0055453  -0.7992020   0.4268023   1.1924175
   1.8973123  -0.1518401   0.2779359   0.1456598  -0.0358651  -0.2410676
   0.3545324  -0.0738341  -1.3337504   0.1780979   0.6374292   0.8047705
  -0.1661530   0.1766447   0.2324845   0.2123487   0.6760263   0.0358294
   1.7866604   0.4111719   0.3772107  -0.0857627  -0.1727957  -0.0189149
  -0.2756501   1.0268468  -1.0208545  -0.9510038   1.6793188   0.1924962
   0.0633777   0.1049680   0.2157758  -1.1849081  -0.9564771  -1.0405375
  -1.1691851  -0.7256758   2.0712046   0.0711544   0.2555006  -0.4844125
  -0.1694612  -0.8292707   0.5393380  -0.3380936  -0.3797587   0.7257427
  -0.0598799   0.1307496  -0.0347178  -0.6862654  -0.9505037   1.6475803
   0.5480817  -0.1735278  -0.6357866   0.0354463   0.3177445   0.0737661
  -0.3629487  -0.2565588  -0.5053708   0.9300811  -0.1393577   0.6453995
  -0.3507697  -0.0838004   0.1272689  -0.8372657  -1.4726900  -0.3626343
  -0.1254947  -0.6758292  -0.8108679  -0.1493015  -0.1086107  -0.0341738
   0.5275538   0.5678315   0.4244961   0.1236520  -1.3978617  -1.6292087
   0.0227951  -0.1108340  -0.3208760   1.4869178  -0.7496005   0.5323548
   0.5236453   0.1040794   0.0265683   0.1772141  -0.1766274  -0.2148172
  -1.0341318   1.0220977   0.8873825  -0.3721142  -1.1883269   1.0001112
  -0.1702766  -0.2396805   0.1205815   0.6055867  -0.2464579  -0.4679737
  -0.0695650   0.0465970   0.0696565  -0.0630959   0.0431109   0.1415467
   0.8975224   0.4249096  -1.0363340   0.4425182   1.7404747   0.6997432
   0.2114881   0.1670625  -0.2736590   0.6182902   0.7841811   0.7232415
   1.0955117   0.3062997   0.2030920   0.0214034  -0.2374320  -0.2310307
  -0.3941593  -1.1224069   0.0538720  -0.5187380  -0.8648791  -1.0081437
   0.0571004  -0.2009166  -0.3725832  -0.3401581   0.4016906   0.4971360
   0.5452575  -0.1433150  -0.6844345  -0.1454883  -0.0394371  -0.1811413
  -0.3446732  -0.0929110   0.2070534   0.6252851   0.1424262   0.3470147
   0.0604089   0.0634738  -0.0048461  -0.0102244   0.2930322   1.1828429
   0.7351943  -1.1680016   0.7674884   0.1218393   0.0359387   0.0932673
   0.1379381   1.0373877  -0.2192611  -0.2079449   0.5279077   1.3328578
   0.2428481   0.0420133   0.2591173   0.5474321   0.8525083  -1.1668985
  -1.2682346   0.6319402   0.9668097  -0.0252575  -0.1362892   0.2204676
   1.7648372   1.2653340  -0.0321084  -0.0904445   0.3087155   0.7938701
  -0.3642928   0.0785885  -0.0112936  -0.7759459  -0.1527505   0.0614256
  -1.0038989  -0.0305149  -1.0261820   0.0450238  -0.0389679  -0.0480518
   1.7108445  -0.5922495   0.7871918  -1.0053126   0.8040596   0.8520745
   0.3112400  -0.0624240   0.1485347  -0.2753468   0.3289764  -1.3209229
  -1.9647138  -0.2824571  -0.7319917   0.1172458   0.0343080  -0.2872713
  -0.4473907  -0.0841590   0.4594981   0.6903144  -0.5072356   0.2712716
  -0.3500436  -0.2724748  -0.0766494   1.3804787  -1.2759747  -1.7538850
  -0.7916222   0.2272004   0.2273136  -0.1389009   0.1952593  -0.4087068
   1.4186319   0.1040503   0.7519631   0.1420022  -0.5019607   0.2427684
  -0.1206086  -0.2002655  -0.0450786   0.4286725   0.4493997   0.0424846
   0.7803303   0.6525637   0.4884296   0.0245515   0.2963072  -0.0519548
  -0.3763030  -0.1917648   0.2685661  -0.4285253  -0.1977638   1.1284737
  -0.2600191   0.2409196   0.0249635  -0.3161074   0.5728031   0.5418827
  -1.7179266  -0.2384167   0.9862347   0.4752059  -0.0394033   0.1381948
  -0.8992684  -0.7779012   0.0867569  -1.4066315   0.6650284  -0.8427015
   0.0746109  -0.0012136   0.1458579  -0.4118705   2.5013996  -0.6107384
  -0.3608259   0.4931620   0.1143288   0.0901672  -0.1643162   0.1392650
  -0.5605245  -0.4033557   1.4916486   1.5272717   0.0384742  -0.5857654
   0.1904141  -0.1092100  -0.0835939  -1.0287720  -0.1894521  -0.0701629
   0.8498178   0.3887302  -0.1018499   0.0083252  -0.0859899  -0.1176706
  -0.5805940   0.8178200   0.4526255  -1.3428461   0.8861018   0.0550514
  -0.2126059   0.0658707  -0.1018468   0.3061468  -0.5241723   0.3584288
   0.9249251   0.0560524  -0.3839048   0.1372337  -0.0417248   0.0017813
  -0.3294394   0.0979830  -0.6249791  -0.2121847   0.4601633  -0.2099997
   0.0206267  -0.1008518  -0.0454796  -0.5479257   1.3303609  -0.6182258
  -0.2188723   1.1064170  -0.3769665  -0.0004331  -0.1880061   0.0314724
  -1.1755032   0.4302028   0.6759305   0.8285831   0.1281017   0.1608063
   0.1313247   0.0049661  -0.0061173   0.4115948   0.3875660   0.1520006
  -0.1816063   2.8573377   0.4297169  -0.2048567  -0.1049149   0.2903507
   0.3484072   1.6629748   1.0988108  -0.3886027  -0.8300099   0.5930051
  -0.2500822  -0.0243960  -0.1591290  -0.6007609   0.8913478   2.0094060
  -0.4239559  -0.7988404  -0.3203987  -0.1198184  -0.0564005  -0.1016862
   1.4480529  -0.1436450   0.1125891  -0.5153963   0.2686637   0.1090662
   0.0309292  -0.2464797  -0.1960870  -0.2057804  -0.3538269   0.9663263
   1.0210591   0.5878714  -0.4080979  -0.0090365   0.1138903   0.4173822
   0.5595722   0.9667455   1.2003037   0.3642754   0.1440170  -0.3269963
   0.1993375  -0.1033043   0.1663731   0.9426988   0.3094162  -1.2342476
   1.7067852  -0.3296057   1.0558052   0.0211252   0.0063937  -0.1652342
  -0.5920555   0.3709877   0.0087687   0.9469035  -0.1935663   0.1176047
   0.0050339   0.0167727   0.0857296   0.2239435  -0.5560381  -0.1263378
  -0.5072675  -1.2213026  -0.1707104  -0.1060098  -0.0911812   0.0147219
  -0.1321609  -0.0462880   0.0028719   0.9920421  -0.9043262  -0.0369489
  -0.0371465  -0.2001444  -0.3060713  -0.7079256  -0.2677281  -0.0889277
  -0.5498898  -0.4833633  -0.1078151  -0.1783525   0.1161922  -0.3330201
  -0.7948006  -0.4988024  -0.6527633   0.0396224  -0.1160253  -0.9427119
   0.2961280   0.1828146  -0.1292474  -0.4983188  -0.1770544  -0.6060906
  -0.3353709   0.7349768  -0.1363346  -0.2065197   0.2206975  -0.0612496
  -0.0605002   0.2307066   0.0396825   0.4091961   1.0708420  -0.8820793
   0.5550338  -0.2677224   0.3119017   0.0162750   0.4805068   0.3878753
  -0.2318626  -0.4941562  -0.5363449   0.0534861   0.0019934  -0.2063826
   0.4158842   0.1042150  -0.4577212  -0.1799846   0.3536929   0.4646857
  -0.1526799   0.2865397  -0.1046438   0.1423154  -0.2015122  -0.3036049
  -0.7512974   1.9375256  -0.9054215  -0.1112148   0.1042823   0.1536094
   0.4081372  -0.1959295   0.3435666   0.5013495   0.0291559   0.4443678
  -0.4908491  -0.1699066  -0.3234636   0.5165298   0.1556859   0.9604944
  -0.6598437   0.7623057  -0.4692001   0.0861171   0.3313240  -0.3495575
   0.4874218  -0.7090340  -0.0761192  -0.4713419  -0.4310434   0.0420997
  -0.5755149  -0.0004810   0.2138854  -0.1078434   1.5582174  -0.0145220
  -0.6096981  -1.2641013  -0.7068836   0.0628533  -0.1335592  -0.0429710
  -0.6512984  -0.3679632  -0.0325228   0.5601009   1.0164268   0.3772591
   0.0068635  -0.0693480  -0.1279034  -2.3755202   0.3315470  -1.0567541
  -0.5125155   0.2193164  -0.0683878  -0.0692544   0.1007079   0.1244345
  -0.2852569  -0.4315020   0.1711312  -0.3906827   0.7019005  -0.6342956
  -0.0338142   0.0971764   0.1885573   0.0027673  -0.7458219  -0.1127232
   0.8222607   0.3684908   0.4154433   0.1879995  -0.0695177   0.1484020
  -0.3150927   0.7163518  -0.6274028   0.3904655  -0.6565068   1.1211967
   0.0494015   0.1045862  -0.0554830   0.3634981  -0.5784718  -0.1870243
  -0.6276395  -1.0464234   0.8873091  -0.2453252  -0.1231412   0.1249707
   0.4117252   0.5404185   0.2096542   0.2743650  -0.2476342  -0.5204510
   0.0651262   0.1525905   0.0646669   0.4496947   0.5595855  -1.3138576
   0.2206089  -0.5205660   1.0859697   0.2871958  -0.1809265   0.3088879
   0.3379325   0.6081064  -0.4430859  -0.1271461  -1.2055758   0.2536900
  -0.0420597   0.2935660  -0.2659401  -1.5124608   0.0118281   0.0628960
   0.0008887   0.0868826   0.0224007  -0.0985343  -0.1493964   0.2034203
  -1.1811010  -0.2243450   0.8858013   0.7149267   0.5510473  -1.8623075
   0.0109158   0.5551279  -0.1188007  -0.3392826   0.0260242  -0.2977319
   0.4242927   0.2303666   1.3673982  -0.0950086  -0.0302624   0.3786493
   1.8540562   0.8251529   0.4134187  -1.1330326   0.8407550   0.4263224
   0.1521619   0.0564619  -0.0517628  -1.6068188  -2.3067707  -0.1557708
   0.2246841   0.5705809   0.0533857   0.1182582   0.2114145  -0.3525650
   0.3465903  -1.2050218   0.3952333  -1.2806579   1.0177725   0.2188753
  -0.0328820  -0.1423196  -0.3839095  -0.3716569  -0.1035148   0.2996572
  -0.6271618  -0.4265487   0.6364457  -0.1765387   0.0902943   0.2094141
  -0.0883758   0.1056307  -0.8721290  -0.6214009   0.0337088   0.2739802
   0.2287835  -0.0926355   0.1455991  -0.0132343  -0.8062009  -0.5850625
   0.0017306   0.0069290   0.5478803   0.1848378   0.1562893   0.0457537
  -0.1247546   0.4733858  -0.0343400  -0.7485559   0.7237824  -0.9639927
   0.0480238  -0.1906466  -0.1716698  -1.9742492   0.5645289  -0.1008505
  -0.0921097  -0.0158290  -0.0567812  -0.2156435  -0.0465944   0.2322829
  -0.0950797   0.3384982  -0.0036257   0.7657338   1.5455008   0.0389233
   0.1703048  -0.1981423  -0.0736622   0.8730233  -0.0620771  -0.5365263
   0.3005181   0.3588264  -0.1473214   0.0559084   0.1189810  -0.0571501
   0.3469487  -0.6729753   0.3408799   0.3444180   0.7058925   0.5549841
  -0.1407458   0.2193972   0.0070389   1.0575982  -1.1693461   0.2975788
  -0.0104086  -0.2929210   0.0806302   0.2667839   0.0181481   0.0041819
  -0.5907115  -0.1547998  -0.5305875   1.5160901  -0.0626837   0.8770748
   0.1160295   0.0966674  -0.2163910  -1.3338378   1.4174058  -1.6606222
  -0.2665777   0.5239601  -0.3365253   0.2278423  -0.1254341  -0.1737961
  -0.6529524  -0.2812495   0.5189048  -0.8844174  -0.2725578  -0.2046935
   0.3137676   0.0537482   0.0689384   0.2003346  -0.6245910  -0.2029048
  -0.1591619   1.1800702  -1.0590509  -0.2185122  -0.0213687   0.1418412
   1.2751930   0.4044428   0.4763663   0.9168020  -1.3974600   0.5400433
   0.0630622   0.0586688  -0.0748714  -0.0960102  -0.4752552  -1.1483459
   0.8817712   0.7038878   1.0605699  -0.2030353  -0.0388045  -0.1024688
  -0.0849739   0.6384345   0.4531552   0.4517318  -0.4215696  -0.8062495
  -0.0487788  -0.2860407  -0.3031194   0.5118926  -0.3436770   0.0240294
   0.0275315  -0.7130858   0.2925943   0.0574267  -0.1847901  -0.1761346
   1.5106665  -0.2608603   0.5349446  -0.5165826   0.6887587   0.7638863
  -0.1320946   0.2760206   0.0925848   0.0951333  -0.1984954  -1.0314955
  -0.0785454   1.0133468   0.8932973   0.5741795  -0.2608653   0.0160700
   1.6939638   0.9698321   0.3610055  -0.4446671  -1.0332778   0.7483839
  -0.0536816   0.1500276   0.0200123  -0.3060646   0.5975236  -1.0820147
   1.9394403  -0.1896646   0.8031030   0.0224954   0.0343279  -0.2739085
  -0.1532538   2.0041673  -0.8180020  -1.0433459  -0.9124974  -1.4832262
  -0.3146271   0.1197751  -0.0598990  -0.5741574   1.6015325  -0.3162517
   0.4255081   0.2997459  -1.0236776  -0.1701005  -0.0847136  -0.3311026
  -0.4240691  -1.5460738  -0.0269833  -0.3757069   0.5163145   0.6151038
  -0.1142229  -0.0463169  -0.1382314   0.6402539  -1.1218009   1.1229011
   0.1817522   0.6488406   0.4244573  -0.1370254   0.2117773  -0.0627779
  -0.3288785  -0.3573516  -0.4625155   0.9439226   0.3697272   0.9890947
  -0.1765104  -0.1724645   0.2322757  -0.2999712  -0.2882158   0.0442258
  -0.5977534   0.2446160   0.2377175   0.1762564   0.0463215   0.3005027
  -0.0434381   1.0951616   0.2623473   1.4417962  -0.6077643   0.1426544
  -0.0973460  -0.1283897   0.3136696  -1.1196923  -1.2109779  -0.4152454
   0.9993285  -0.3278030  -0.7669773   0.1616458   0.2782618  -0.0860810
   0.6395127   0.4286097  -0.5801259   0.3957707   1.1535488  -0.5911025
   0.0584643   0.1134628   0.2679186  -0.0473916   1.9721758  -0.2766097
  -0.3709130  -0.5508826   0.0238367  -0.2979721  -0.1120636  -0.1361822
  -0.3662012   1.4179245   0.4276328  -1.1771464   0.0384568   2.3278581
   0.2609081   0.0101117   0.0616160   1.1319003   0.0854403   1.4894453
  -0.2253469   0.1712795  -0.3518462  -0.2734744   0.0321240   0.0346258
   0.1241423   0.4198217  -0.4919098   0.6426665   0.1277528  -0.6876196
   0.2784341  -0.1218486  -0.1065946   0.6458230  -0.3356809  -0.1995490
   0.1048041   0.4313328  -2.2796431  -0.0238758  -0.2127265   0.1234716
  -0.8743816   0.7080320  -0.2300187  -0.2797271  -0.7348740   1.4075938
   0.0293118   0.0652337   0.3113726   0.8417885   0.0417447   0.3152481
   0.7817891  -0.2988083  -0.5631661  -0.0558657  -0.1519156  -0.1268991
  -0.1399328  -0.4715263  -0.4164684  -0.3037734   0.9594779   0.6929711
  -0.0151154   0.1190516  -0.0919394  -0.4942573  -0.5401945  -0.1001290
   0.5219560   0.3526550   1.0906066   0.1384016   0.1515505   0.0425946
  -0.4570058  -0.4412273   0.2255385   1.5419685  -1.8222180   0.7230743
   0.2075230  -0.0068271   0.1501981   1.4923701  -1.1553851  -0.2015543
   0.4251351   0.0046434  -1.1083985  -0.1686551  -0.2226777  -0.0551205
  -0.4450229   0.2413867  -0.2550732  -0.4088850   0.5413472   1.0769948
   0.1756501   0.1184972   0.2223262  -0.4596587  -0.6881734  -1.7286138
  -0.3166026   0.3700594   0.4584534  -0.0334962  -0.0521078  -0.1814628
   0.1808266   1.7895188  -0.7731740   0.1652446   0.3941934   0.2136750
  -0.2016378  -0.3001886   0.1097499  -0.6227299  -1.8395584  -1.1401029
   0.3670411  -0.3948599  -0.7094944  -0.4672777   0.1567024   0.2244420
   0.3346843   0.0965933  -0.6078406  -0.1868044   0.3653562   1.1865662
  -0.2039877   0.1310118   0.2469557   0.4656485  -0.0950178   0.9289663
  -0.1499080   0.5504348  -0.1905513   0.0379251   0.1452308   0.1638369
   0.3878624   0.3969219   0.4050063   0.1365439   0.8242251   0.4342464
   0.2704034  -0.0861009  -0.1559352   0.4311301  -0.5764771   0.1455714
  -0.3125749  -0.0526982  -0.9237842  -0.1362303   0.0802949   0.1084807
   1.5374147  -0.7543091  -0.1302766  -0.1085090   0.0728611   1.6622946
   0.0662866  -0.0812543  -0.0660295   0.0460588  -0.6081270  -0.4035150
  -0.6510275   0.5274385   0.1885586  -0.0548969  -0.0264227   0.1044696
   0.2192560  -0.6689531   0.6672008   1.0796252  -0.4766199   1.0766020
   0.1467909  -0.0793213   0.1140171   0.3031480  -0.3563669  -1.5948429
   0.6257900   0.8944339   0.1914431  -0.2562035   0.3171576  -0.2533827
  -1.2649899   0.0316040  -0.0424124   0.5018291   0.0500112  -0.3169628
  -0.0975372   0.0674684  -0.0061147  -1.1651895   0.7264768  -1.2181139
   0.6379002  -0.1175796   0.5997368   0.3180443   0.2029713  -0.0688613
  -0.5257737   0.5058812   0.5435075   0.3212091  -1.0631185   0.9509388
  -0.0436594  -0.1276169  -0.1384629   1.1397860  -1.1883820   0.0162305
  -2.0579303  -0.8478065   0.6211156   0.1162368   0.3983038   0.2605671
  -1.4182464   0.7483864  -0.4461662  -1.3915423  -0.2367373   0.5976181
   0.0486275  -0.5748007   0.1295670  -0.0327535  -0.0047092  -0.0330008
   0.6461000   0.1069695   0.2332501   0.0592997  -0.0689598   0.4094291
   0.5923088   0.5207984   1.7000821   0.1085501   0.9429359   0.8911032
   0.1635109  -0.2855827  -0.0005611   0.4166431   0.8401583  -1.1507700
   0.8436759   0.0019720   0.0100101  -0.0861452   0.1226499   0.3726556
  -0.4636605   0.7934754  -1.2590180  -0.8627106  -0.3871780  -0.9575302
   0.0551915  -0.0218254   0.0314041  -0.2048575  -0.5740048  -1.3032505
   1.8103623  -0.8615353   0.5528078   0.1040850  -0.2342626  -0.0293112
   0.4062336  -1.5530930   0.9699604   0.9163373  -0.2178675  -1.3978153
   0.0724800  -0.1351954   0.0517681   1.2985085   0.0159412  -0.4686609
  -0.0835325   0.3457345   0.3537718  -0.2740064  -0.1247798  -0.0990672
   1.0596228  -0.9150016   1.1526977  -0.0347403  -1.6040321   0.1131510
   0.0245266  -0.2966171  -0.0794895   1.0612399   1.5139423  -1.3190614
   0.9173370   0.6556000   0.4972498   0.3446714  -0.0193089   0.5124098
  -0.4138857   0.4202131   1.3366806  -0.8693389   1.0279170  -0.1637855
   0.0592952   0.2422718   0.0285490  -0.1549563   0.9625272  -0.8015638
   0.2322277  -0.0853017  -0.0773678  -0.0363321   0.1300941  -0.2754648
  -1.3317519   0.0276050   0.8173256  -0.4843975   0.5492111   0.2080437
  -0.0482839  -0.0011004  -0.0241616  -0.4241355  -0.6755117   0.0642530
   0.0495176  -0.4070203   0.4656105   0.0372777   0.3965264   0.1493173
   0.7701609   0.6676853   0.0125406   1.2629915   0.5602200  -0.5674758
  -0.2271483   0.3456636   0.3139169   0.8241126  -0.9517225  -1.0771240
   0.9949249   0.0194884  -2.4111740   0.2332250   0.1164862  -0.1849516
   0.1378549   0.2790447  -0.8688043  -0.3175624   0.1784194  -1.1111681
  -0.3877446   0.0034482  -0.0175591  -0.7903296  -0.0439112  -0.5229690
   0.5879215  -0.5568646   1.7055053   0.1711310   0.2353744   0.0192534
  -0.0357949  -0.7370638  -0.5619920  -0.6821880  -0.4561439  -0.3474582
   0.1273581   0.1298072  -0.2099231   1.0561178   1.0074029   0.7402060
   0.1158702   1.0099442   0.7532119   0.4092853   0.1574767  -0.0719191
  -0.8632038   0.6537389  -0.5877023   0.5400012   0.1183970   0.0673488
  -0.2972312  -0.3819064  -0.1590785   1.6317162  -0.4141057  -1.9069256
  -0.3796218  -0.8340480   0.8810016  -0.2688027   0.3000836   0.1236100
   0.4257125   0.7126789  -0.5542688  -0.6549533  -0.4215902   0.2667577
  -0.0628090   0.0047169   0.0444201  -0.0876758  -0.0401951  -1.5030598
   0.0007526   1.1290590  -0.2952480  -0.2667452  -0.0163304   0.0856556
   0.1183661  -0.8641501   0.0251941   0.3560459   0.6741211   0.1910441
  -0.2905511  -0.2919821  -0.2344603   0.0022143  -0.4389893  -0.6919064
   0.1416072  -0.7072350  -0.5846578  -0.1215659  -0.0990738   0.0758089
   0.2670476   1.0201079   0.8372575  -1.0044461  -0.7313295  -0.8846235
   0.0010326  -0.0965477  -0.0202210  -0.4148489   0.5177013   1.3680197
   0.3229877   0.3124795   0.3470486  -0.1349954  -0.2769978  -0.0369215
   0.4390963   1.3494250   0.8306336  -0.8951555   0.0871221  -0.2297110
   0.0407766  -0.2131352  -0.0542859   0.3623899   0.0792993  -0.9607272
   1.2493743   0.6860029  -0.7240387   0.3847800   0.1994484   0.1169486
   0.2400336  -0.0300729   0.0906705  -0.0094784   1.3688465   0.3491032
  -0.2218302  -0.0285267  -0.0290264   1.1341222  -0.7225964  -0.1960736
   1.2994766   0.7116015   0.7051992  -0.2470210  -0.0022682   0.2592648
  -0.3823160  -0.3130936   0.1838355  -1.1763135  -0.3632310   0.7442841
  -0.3188949  -0.1946946   0.0260210   0.5543502  -0.8905092  -1.2710193
  -1.2377945   0.0598175  -0.1431621  -0.0595293  -0.0988624  -0.3700165
  -0.5750767  -0.1227134   0.1737373   0.3338945  -0.8738303   1.1860478
   0.1850434  -0.1056953   0.1569217   0.8379715  -0.5978317   0.7143450
   0.1641895  -0.8230846   1.1455855   0.2762211   0.0793835  -0.0795080
   0.8895626  -0.0166247  -1.9366309  -0.1540156   0.7223679   0.4255342
   0.1097133   0.1099298   0.0167137   0.7841887  -0.4967911  -0.1072283
   0.0527384   0.7217905  -0.2534911  -0.1841625   0.1630561  -0.2008053
   0.5836583   0.1742185   0.2758072  -0.1163491   0.1559825   0.0479601
   0.3162974  -0.3852463   0.2024606   0.6922324   1.2260142   0.5150276
   0.2827069   1.4376334  -0.0586985   0.0606476   0.0120599  -0.1226957
   1.3155952   0.8505801   0.7656649   0.7230225   1.8846601   0.0227197
  -0.0666394   0.0825625  -0.1580526  -0.4907522   1.2312211  -0.8044910
  -0.3125023  -0.3376976   0.2647638  -0.0401128   0.0942944   0.2273261
   0.0882373  -1.7744852   1.2400143  -0.2914171   1.3989898  -1.2750782
   0.1946285   0.1352443   0.0827898   0.4309717  -0.0926965  -0.2366774
  -0.1203840  -1.0761566   0.0392263  -0.0893978   0.1145317  -0.0317572
   0.1483706  -0.3760000   0.5373109  -0.8114224   0.4401831   0.3146004
  -0.1515696   0.0959358  -0.0232816  -1.3526935  -0.1530207  -0.6442224
  -0.1171016   1.5336653   0.1233284   0.0325821   0.1613502  -0.2561653
  -0.0884433   0.0361864   0.6838574   0.6136674  -0.3361997   0.0848772
  -0.0420049  -0.2113942  -0.1321797  -2.2390335   0.0498299  -0.1608204
  -0.9276334  -0.9255841   0.6453669  -0.1531058  -0.3970180  -0.1243788
   0.2059768   1.3997951  -0.3184337   0.3814655   0.0585489   0.2521357
  -0.2374588   0.0385559   0.0449002  -0.3337069   1.1206017  -0.2221532
   0.4155101  -0.7261492  -0.6524260  -0.1865561   0.0024826   0.1068322
   0.1053502  -0.7467974  -0.4098966   0.9268644   0.2929827   0.8944445
  -0.0366081  -0.0933845  -0.0158560   0.7689823  -1.1117066   0.6512255
   1.2014354   0.4684943   1.8662825   0.1456361  -0.2143461  -0.1015534
   1.1652689   1.6368466   0.6179900   0.3134567  -0.0364403   1.2150511
   0.3224317  -0.1564052   0.0619253   0.2100932  -0.2178302   0.2784812
  -0.9840180  -0.8854305   1.5881276  -0.1476245  -0.1901990  -0.1032320
   0.1432824   0.3702072  -0.8538331  -0.6293806   0.3739821  -1.2339416
  -0.0796626  -0.1361267   0.0232470  -0.4742417   0.1877028  -0.7328532
  -0.7544978   0.2723520  -0.0444186   0.2434163  -0.2460161  -0.0815998
   0.5970217   0.3946660   0.7920025   0.1635134  -1.5539127   0.4014897
   0.0468900   0.0924345  -0.1520212   0.2783088   0.0586802  -1.3251810
  -1.8395938  -0.8600147   0.6225539   0.0088950  -0.1292509  -0.2798646
  -1.4104469  -0.8525747  -0.4904931   0.4056058  -0.7027148  -0.4786507
   0.1435216  -0.1408518   0.1924248  -0.2363463  -1.0250363   0.8521739
  -0.8895785  -0.6367472   0.6174897   0.3909273  -0.5008845   0.0251280
   0.7514061  -0.0653030  -0.8466964  -0.5336833  -0.3740921  -1.7753299
   0.1873263   0.2667363   0.0236549  -0.2912262   0.4307159  -0.1469539
  -0.1851319   1.2688232   0.1486472   0.1950982  -0.0889201   0.1634887
  -0.2540693   0.1633231  -0.9979697  -0.8783447  -0.0964598   1.0503158
   0.2803412  -0.2121817   0.2881025   0.9019558  -0.6709378  -1.3346494
  -1.4338967   0.5475982  -0.2347800  -0.2609864  -0.0779208  -0.2931433
  -0.0182761  -0.1321382  -1.2487607  -0.1369712   0.3171654   1.2869099
  -0.1920583  -0.1423133  -0.0228832  -0.4091070   0.7078769   0.2010083
   0.6983062   1.0856141   0.2175244  -0.1300146  -0.1148343  -0.1387975
  -0.0060488   0.5789739  -0.8277119  -0.1459007   0.5394586   0.0098487
  -0.2751565   0.0060474   0.2839898   0.6625962   0.1284861  -0.2805262
  -1.0941851   0.8603865   0.6696442  -0.1448477   0.1991594   0.0874022
   1.0481717  -0.2182098  -1.1345936   0.0497514   1.2486049   1.0197144
   0.1771182   0.1642731  -0.0031601   0.6654434   2.1443608  -0.1019083
  -0.0901756   0.4215230   0.8348132  -0.0118101  -0.2099828   0.0712170
   0.2627478   1.5027532   0.2014079   1.2059615   1.4796418  -1.7924755
   0.0533130   0.3305767  -0.1890473   0.1500685   1.0886769  -1.2268402
  -0.0413607  -0.1170456  -0.9792842  -0.3257228  -0.2870699  -0.2408705
   0.0810937   0.6005306  -0.5276154  -0.6532281  -0.5814590   0.0235689
   0.2631940  -0.0942373  -0.3834569  -1.7922406   1.5891770   0.6354944
  -0.5645865   0.2252861   0.6651723  -0.0299913  -0.0099316   0.1293657
   1.0947234   1.1670759  -0.4101378  -0.9294249   0.4325290   0.3760903
   0.1586798   0.6174637   0.0698096  -0.1980272   0.3455794  -1.0140252
   0.4518021   0.3205325   1.3052780  -0.0951929  -0.0105469  -0.1450493
   0.2358019   0.9939205  -1.3972400   0.3818233  -0.7482678   0.2982188
  -0.2129770   0.3778423  -0.0034653   0.9249970  -1.2251871   0.0830145
   0.0762142   0.2495433   0.4781224  -0.0607635   0.0010845   0.0158346
  -2.2242533  -0.6866033  -0.5125245  -1.0017619   0.9389217  -0.5973738
  -0.1398045   0.1355497   0.1332480   0.6663965   0.0053392   0.2820579
  -0.9175235  -0.5666326   0.3234572  -0.1709190   0.3990793  -0.1733795
  -1.5299811   1.5198854  -1.4242680   0.3774789   0.0498876  -1.2304227
  -0.1347362  -0.2872524   0.3193764  -0.2040194  -1.6633498   0.9560794
  -1.2528467   0.5323275   0.2962830  -0.2784036   0.4127661  -0.0893543
   1.1049844   0.8916372   0.6979304  -0.7589993  -1.1985723  -0.5457531
   0.0518373  -0.1448857  -0.2557891  -1.0330748  -0.7123232   0.2423321
  -0.4698101  -0.2754937   0.9441702  -0.1485596  -0.0568800  -0.1152914
   0.6642584  -1.1914653   0.5330734  -0.3620394   0.3499542   0.2605544
   0.0412569  -0.1136617  -0.2059154  -0.2158166   0.2705668   0.2067620
  -0.0884673  -0.3330295   0.8914476   0.1366202  -0.2370682   0.0800821
   0.9901592   0.4419188  -0.2480550   0.6042849  -0.6203484   1.8376041
  -0.2244183   0.1705988  -0.3956655   0.4585718  -0.0742895   0.3806914
   0.2115945  -0.0407028   0.9565143   0.0597304   0.0089590  -0.0466791
  -0.6279325   0.4963025   0.0073903   0.6859922  -0.7302716  -0.4671857
   0.1050762   0.1241334  -0.2588663  -0.0923284   0.0721172   0.4185426
  -1.6060925   2.3097516   0.8640406   0.0580588   0.1920386   0.1289391
  -0.9464346  -0.0629315   0.3692247  -2.1118752   0.3893985  -0.5112179
   0.2916715  -0.3616255  -0.5131095   0.3446749   0.5581535   0.5849409
   1.2537259  -1.3933461   0.5677219  -0.2925900  -0.0798123   0.1338011
  -1.5148386   0.9396708  -0.8695988   0.4985327   0.2603072   0.9584069
   0.0476781  -0.2868167   0.1234814   0.3128954  -0.8972568   0.4926413
   0.4757437  -1.3333912   0.3125117   0.1666194   0.3888377   0.1309422
   1.3176412  -1.6748566   0.0979373  -0.3965457  -0.2540866   0.5941737
   0.1489816   0.2082073   0.1330193  -0.0772222  -0.1942009  -0.3684047
   0.3992349   1.2363485  -0.2429883  -0.2865039   0.0187396   0.3127239
  -0.9677739   0.5299860  -1.1013456   0.5089688   0.0599160   1.2676930
   0.3124262   0.1962992   0.0504272  -0.5653268   0.1372014   0.2970947
   0.9842973  -0.6649923   0.7212186   0.1311262  -0.2074114   0.0448212
   0.8545251  -0.0695962  -0.1695271   0.3445592  -0.3839000   0.4057010
  -0.0100097   0.0655954   0.0705581   1.0484584   0.9249746  -0.3205883
  -0.4175858   1.7111081   0.3686223   0.3167984   0.2183197  -0.0950458
  -0.6000037  -0.3075748  -1.0077992   0.2651221   1.0902477   0.5076924
  -0.1199993   0.0589970  -0.0064468   0.4537076   1.2252809  -0.2962148
  -0.5898171   0.2807799  -1.2886935  -0.1821585  -0.0817797  -0.0661514
   0.9072398  -1.1278728  -0.0205249   1.0501310  -0.2783595  -0.2281830
   0.0998301  -0.3115908  -0.1118558  -0.3121011  -0.7971693  -0.8671260
   0.8201538  -0.6423027   0.7108348   0.0072400  -0.0784374   0.0077255
  -0.6967886   0.2724672  -0.9899937   0.5661765  -1.2939808   0.1885580
   0.0048232  -0.1286519  -0.4013542   0.1800494  -0.4679571  -0.4424951
   0.7586204  -0.1855037  -0.5888183  -0.0130570  -0.1367423   0.4444437
   0.7489640  -0.7074283   0.5971774  -1.1758173   0.0456223   1.3314474
   0.1589309   0.1803003   0.3665430  -0.6771195  -1.1629909  -0.8794490
   0.2596438   0.7895151   1.1654470   0.1753584   0.0088275   0.1123855
   0.5360339   0.8810672   0.4854509   0.8325515   0.7492014   0.5709143
   0.0919800  -0.0681330  -0.2496006  -0.6915095  -1.0699191   0.7202895
   1.1816412   1.0216325   0.1854602  -0.0239537  -0.2289049   0.1573150
  -0.3275641  -0.6211109   0.3443482   0.2406146   0.5489341   1.0975859
  -0.0334738   0.2499570   0.0942511  -0.1918236   0.1133138  -0.0685280
   0.3834040   1.4996365   1.8048266  -0.0203424   0.1719436   0.5330845
  -1.2262536  -0.1372220   0.0607527   0.8054046  -0.6503584  -0.2316942
  -0.0639725   0.0924203  -0.1982157   1.7780354   1.0918699   1.1058445
   1.3082419  -0.2395276   0.3361221  -0.4212845   0.3601648  -0.3351055
  -0.0908829  -0.7526153   0.5029447  -0.2720138  -0.5821856   0.3580155
  -0.0003621  -0.0604727   0.0678135   0.9956597   0.6702839  -0.6779660
  -0.4159608   1.0809975  -1.2195164   0.1449534   0.0022646  -0.2744677
  -0.5404139  -0.3340386   0.0888428   1.2219238  -0.4338378   0.9817246
   0.3269965  -0.0700553   0.2208880  -0.3541490  -0.1039666   0.0725604
  -1.3397940  -0.7863770   0.2200925   0.2913409  -0.1401752  -0.0820069
  -0.1035522  -0.2971489   0.9966778   0.2577692   1.5117350  -0.3040316
   0.0977225   0.2700221   0.0262603   0.6931192  -1.7507663   0.7569247
  -0.3342493   0.6106678   0.4397266  -0.1161316   0.2727675   0.1201339
   0.8506568   1.4184406  -1.2758274  -0.2666191   0.7494118  -0.4267870
  -0.3584064  -0.0636150  -0.2562529   0.3535831  -0.7412113  -0.8660505
   0.8451601   0.1913937  -1.5090708   0.3674869  -0.1145760   0.2205647
   0.3694153  -0.4717803   0.2101199  -0.6465430  -0.2918860   0.4873243
  -0.1093630   0.1834090  -0.2767383   0.8868790  -0.7312211   0.8655443
   0.9306766  -0.3857785   0.0379827  -0.2649117  -0.2559946  -0.1040057
  -0.3836749   0.2390202  -0.1712328  -0.0701223  -0.2694780  -0.1325115
   0.2084826   0.2602387  -0.2475766  -0.5924166   0.9997932   0.1833828
  -1.1601503   0.1855182   0.2507082   0.1889349   0.1676139   0.1537027
  -0.2884438  -1.0375532  -0.2154780  -1.3757334  -0.7062600  -0.5987500
  -0.0806565  -0.1883216   0.2237318  -2.1198771   0.7299031   1.0901410
   0.5605538  -0.1628466   0.1571804  -0.1561914  -0.1637673   0.0550136
   0.9317140  -0.9837856   1.3306525   0.0780562  -0.4520891   0.6229626
  -0.1724209  -0.2493734   0.3691501   0.3165734   1.0622696  -0.6082024
   0.5594713   0.3706274  -0.1549724  -0.1403132   0.0809058  -0.2977491
   0.0677895   1.0015323   1.0618483   0.3382615  -0.3013406  -0.0445620
   0.5351287  -0.1374549  -0.0872053  -0.3640316   0.2849092   1.3561255
   0.1671547   1.3473825   0.3752614   0.1445273  -0.1210963   0.1289790
   0.8388809   2.1283064  -0.6596097  -0.9670584   0.1972471   0.0898130
  -0.2391658  -0.1655061   0.0003607  -0.1005474   1.1173089   0.3010856
   0.2842697   0.2847656   0.3995303  -0.0433714  -0.1327811  -0.1879515
   0.1952829   0.5613668  -1.0675714   1.3782495   0.5600918   0.3625499
   0.1742290  -0.1936245  -0.0320625   0.6854313  -0.1453109   1.1916450
   0.2743484   0.0125845  -0.3964397   0.0800391  -0.2011721   0.1879572
  -0.2769338   0.9422947   0.1085254  -0.1634367   0.4163051   0.4046561
  -0.3595774  -0.1575192  -0.0578113  -1.4863809   0.5772662   0.2579159
   0.5930609  -0.0246893  -0.1110509  -0.2958590  -0.0815275   0.0475265
  -0.6436790  -1.4114379   0.5739078  -0.2414234  -0.5672823   0.7590124
   0.1371923   0.3398042   0.1933304   0.1903339   1.3019143   0.5534972
  -0.5227390   0.3521874  -1.5242129  -0.2705924   0.0965684  -0.0539977
  -0.9760146  -0.1785277  -1.0491993  -0.0631626   0.7731013  -0.2421893
   0.2055085   0.3203826   0.4071676  -1.2116109  -0.2155283  -0.4784146
   0.2105527  -0.1815146  -0.0616921  -0.1435735  -0.2102855   0.1865871
  -1.2507676   0.2987685  -0.2680186   0.0927474   0.6027401  -0.3516968
  -0.1640697   0.1166196   0.3198326  -0.3374040   0.7834795  -0.2190754
   0.0470875  -0.2120392   0.7528306  -0.0086644  -0.1595012  -0.0978701
  -0.5910619   1.0289488   0.3386124   0.3747771  -0.1120999  -0.9492949
  -0.0108538  -0.1874570  -0.1567690   0.1596786  -0.9210562  -0.1620258
  -0.5778347   1.2591168   0.0662327   0.0743434  -0.2260127  -0.0052068
   0.6815930   0.5871455  -0.5137373  -1.0618810  -1.2735132   1.4057157
  -0.5370291   0.2312362  -0.4385133   1.3467135  -0.1386273  -0.4862713
  -0.5065803  -0.5999354  -0.4356742   0.2206459   0.2139823   0.3727017
  -0.8148041   0.2318996   1.3048780  -0.7631904   0.1942290  -1.0478150
   0.2229653   0.0244715  -0.2180191   0.2160497  -0.5394633  -0.2893438
  -0.7368910  -0.4192608   0.5325550  -0.0721589  -0.4722975   0.0830782
  -0.9499245   0.7892858  -0.4016965   1.0339688  -0.3216901  -0.4266359
   0.2028308  -0.1976697  -0.1264130   0.9741977   1.0306347   0.5489894
   0.5746512  -0.4463815   0.4960306   0.2244332  -0.0333916   0.1759283
   0.3005552  -0.2321183  -0.2510266  -0.0037664   1.2825442  -0.3030024
  -0.1123408   0.3332124   0.1701341  -0.3264813   0.1328871  -0.0975795
  -0.6833485   2.0381052  -0.4628935   0.0085276   0.1440470   0.0834338
   1.2985436  -0.7446660   0.3840971   0.0956349   1.0102056  -1.8488423
  -0.0387222  -0.4012451  -0.2007937  -0.3673448  -0.0548095  -0.0857373
  -1.0180725  -0.6964320   0.3824218  -0.0224133   0.0843131   0.1559096
   1.3398558   0.6766710  -0.2648205   0.7168833  -0.3793350  -0.1241948
  -0.1199466  -0.1870091   0.2394432  -0.5344154   0.6425642   1.3465028
  -0.8075474   1.1488278   0.1923825  -0.1063448  -0.0824431  -0.0204518
  -0.5499373  -0.4614094  -1.3262501  -1.2398035   1.8380437  -0.3815366
  -0.2481389  -0.0328462  -0.2483325   1.0314106   0.2843984  -0.1419187
  -0.0114526  -1.0421249   0.0344788  -0.0835276   0.2453263   0.1203951
   0.1518113   0.3554489   0.6016615   0.3982598   0.1374757  -0.5142505
   0.1238281  -0.1578392  -0.0331985  -0.0146240  -0.0041049  -0.9950757
  -0.0230377  -1.1570938  -0.8957872   0.0798205   0.1406812   0.2243055
   0.1104343  -0.6722569  -0.2136253  -0.7222913   0.6304644   1.2222852
  -0.0303970   0.0884547   0.0342632  -1.8098935   0.2270916   0.6105022
  -0.8820593   0.3041943   0.7659840  -0.1783844   0.0340334  -0.2315044
  -0.5067605   1.2594746  -1.5585386   0.1753479   0.5788471  -1.0187435
   0.1269556  -0.1760301  -0.0165400   1.1267359   0.1177051   0.6346097
   1.3060921  -1.2305850   0.6094599  -0.3353063  -0.0339748   0.2519510
  -0.7404692  -1.2000792   0.5387434   0.1639130  -0.6486194   0.1592785
   0.2115710  -0.4694666   0.0995202   0.5017808  -0.2890993   1.5389465
   0.6677652  -0.6774382  -0.7461977   0.1269168   0.2283130  -0.0803487
   0.1566668   0.4473680  -0.0209225   0.6211266  -0.7571294   0.4747174
  -0.0937004  -0.0470424   0.1071064   0.5366427  -0.5755065  -0.6197867
  -1.1184722   1.0256526  -0.5993731  -0.3014167  -0.0231530  -0.0677384
  -0.9547114  -0.6029983   1.1249581  -0.0412808   1.0668183  -0.6012657
  -0.0064424   0.3844501   0.0683340   0.9603032   0.4439907  -0.1004924
  -1.3621368  -0.5287681  -0.0935047   0.0508304   0.2672418  -0.1111149
  -0.4669406  -1.2112045   0.3717520   0.7581116   0.6460916   1.1156580
   0.4110290   0.0267424   0.0649363  -0.2033035   0.0098074   0.5507566
  -0.3007100   0.0565791  -0.9224432  -0.0401034  -0.4403896   0.2442120
   1.8327897   1.4760143  -0.2317464   0.2191498  -0.3311606  -0.5880146
   0.0338364   0.1628913  -0.2779511   1.0846602   0.2866197   0.8025852
   0.6293174   0.6975935   1.1150535   0.2968036  -0.0982620   0.1399424
  -0.3406819  -1.2339643   0.3202551   1.0799144  -0.1386265  -0.2377021
   0.1060907  -0.2371121  -0.2161479   0.2147507  -0.5061152  -0.2390095
   0.5554097   0.4240590  -1.4337752   0.1580204   0.0726226   0.1123891
  -0.7622138   0.5884707  -1.0965793   0.6845153   0.1393990  -0.5176302
  -0.4575025   0.4246161  -0.2359140   0.1305424   1.3235129  -0.7847672
  -0.3857404   0.6123671   0.1946403  -0.0047310  -0.1622530   0.0675312
  -0.3890293   0.2408393   0.4866500  -0.7702545  -0.0530526   0.6080783
   0.0103430  -0.1248816  -0.0347459  -0.7747578   0.3746619   0.4176909
   0.3647607  -0.2134927  -0.2038206   0.0340729  -0.1266839  -0.1394272
  -1.2255116  -0.7015156  -0.1531544   0.6125270   0.1829631   0.6279378
   0.2143866  -0.0834924  -0.3500443   0.5919610  -1.9953014   0.2372145
  -1.5833140  -0.1639044   0.5111592   0.0232416  -0.0468905  -0.3685397
  -0.3471360   1.1062925   0.5306573  -0.0811735  -0.1001145  -0.8612663
  -0.3743395   0.3485954   0.4445207   0.0254234  -1.0725107  -0.5223713
   0.3380554   0.2923706  -0.0299139  -0.0506934   0.0515879  -0.3616627
  -0.6240869  -0.3602807   0.3864734   0.1109857  -0.7135982  -0.8720581
  -0.1596134  -0.1799574  -0.1955406  -1.0806010  -1.4461487   0.1931371
  -0.6763838   0.9698994  -1.0174369  -0.4327286  -0.0687203  -0.1421199
   0.7534641   1.4402833   0.5113744  -0.3524855   0.4382402  -0.2366590
   0.0117696  -0.1321018  -0.0254646  -0.6053140   0.9490733   1.5961534
  -0.1848290  -0.4168403   0.5832580  -0.0452759  -0.2459774   0.2096959
   1.0438052   2.2440760  -1.1831530   0.1397648   1.5380418  -1.0957962
   0.0126047   0.1339120  -0.2246202   0.1202564  -0.6557618  -0.4530191
   0.5071399  -0.5762896  -0.8225589   0.0450933   0.1535250  -0.2168535
  -1.0051074  -0.8448386   0.7301460  -0.1891379   0.0984536  -0.7226266
  -0.0907583   0.0336665   0.0980780  -0.0729352   0.8221116   0.6228659
  -1.0566881  -0.2186427   0.1477498   0.2772282  -0.3328265  -0.0824908
  -0.6415471  -0.4991685  -0.7456169  -0.3967872   0.0101440  -0.8497430
   0.1774622  -0.0558040   0.1002508  -0.0168852  -0.5768282   0.5070677
   0.5087377   0.1822905  -0.5611293   0.3340279  -0.2115051   0.0060557
   0.4880124  -0.2221439  -1.0264136  -0.8251071   0.5229862   0.8960511
   0.0517285   0.1144395  -0.0828188   0.0906715   1.2371678   0.9048694
   1.7018558   0.4689094  -0.4474949   0.3202335   0.0449757  -0.1657167
   0.2131764   0.1959620  -0.0724450  -2.0011539  -0.2845810  -1.1917047
  -0.0582397  -0.1379975   0.1641792   0.1681035   0.2544876  -0.3570480
  -0.4404137   0.3003548   0.8163528   0.2930539  -0.3090430  -0.0263595
   0.3755739  -0.7516539   0.8509630   1.5099434  -1.9123799   0.2607736
  -0.1617066   0.1124571  -0.2263063   0.8209224   1.5110120  -0.5525808
   0.5324248  -0.3885252   0.5837818   0.0104753  -0.0641045  -0.1736165
  -0.3967867   0.3313619   0.9016666   1.8106249  -0.2972962   0.4396639
  -0.2659211   0.1993993   0.3344252   0.4664182   0.5592907   0.3858081
  -0.0725657  -0.1755054   0.5972772  -0.1274899   0.0938191   0.1057933
  -0.5779676  -0.4706744  -0.0608507  -2.1432980  -1.0430765  -1.5055153
   0.2083073  -0.2020212  -0.2637397   0.8792183  -0.3447956  -0.3025632
   0.0948359   0.4412636  -0.2765058  -0.0305593  -0.2832893   0.0688525
   0.1402774  -1.5747841   0.9778096   0.2267185   0.9845219  -1.6689653
   0.1369057  -0.1798534  -0.1678338  -0.6889005  -0.9196750  -1.2781077
  -0.8025920   0.8786388  -0.1998924  -0.3359713  -0.1703588   0.0155953
  -0.7631085   0.1773316  -1.6921498   0.9362591  -0.3425937  -0.7926889
   0.0299668  -0.0738687  -0.1803949  -0.8287849  -0.2670709  -0.6074151
   0.6014388   0.2762732  -0.5965525   0.1179576   0.0386383   0.1111182
   0.5304384  -1.0146755   0.3050759  -0.5050730   0.0560880  -0.9638122
   0.2424080   0.1559652  -0.0053166  -0.3953299  -0.0520850  -1.4696634
  -0.0724744   0.6912444   0.5680248  -0.6453502  -0.2285385   0.3183116
  -1.0975181  -0.2571703   0.0603908  -0.5088200  -0.1527167  -1.4687872
  -0.0662213  -0.0202970   0.3251914   0.2321559  -1.2160332  -1.0054988
  -0.4279479   0.0696952   0.8376903  -0.1625528   0.1060186   0.0785978
  -0.4513640   0.6613935   0.1822587   0.5327107   0.0823437   0.8329667
   0.3900785   0.0561584   0.0226254   1.0045315   0.2431740  -0.0121801
   0.4458675   0.6824708  -0.0957527  -0.2089945   0.0635411   0.1382376
   0.5070418   0.1036516  -0.2862629   0.2414871   0.7656015  -0.2699829
   0.0078514  -0.0653037   0.0648954  -0.6740707  -0.5086509  -0.9975152
   0.0556486  -1.4201043  -0.5499275   0.0458486  -0.1647007  -0.1891196
  -0.0130380  -0.2051739  -1.5852299   1.1611556   0.3015447  -0.0101688
   0.1767525  -0.3054126   0.0572386  -0.1680242  -0.6357909  -0.1948956
   0.5342051   1.6509770  -0.0482668   0.2128182   0.0974401  -0.1227211
  -0.5664778  -0.0071685  -0.3885219   0.7513973  -1.0399672  -1.4918767
  -0.0949558   0.1770427  -0.1323407   0.4901739   1.1662432   0.1349598
  -2.5491226   1.0143557   0.0425284   0.1886269  -0.0588043   0.2198542
  -0.3381395  -1.2235496  -0.5907012  -0.4628364  -0.3053217  -0.2219312
   0.3020221  -0.2493238   0.3203391  -0.9010008  -1.0526357  -0.1554152
   0.7394194  -0.3431733  -0.4335781   0.0710147  -0.0164092   0.0816230
  -0.0397463  -0.3182973   0.9180538  -0.2975018  -0.3646172   0.6414924
  -0.1657784   0.0216945   0.1151179   0.5163530   1.4416196   0.4145896
   0.6537246  -0.9358287  -0.0953312   0.1684977  -0.1609902   0.0146997
  -0.4140181   1.1717860   0.7861570  -0.6692408  -0.3162232  -0.0873178
  -0.1114363   0.0118937   0.0777662   1.0773035   0.0466791   1.5156069
  -0.5521593   1.1239611  -0.5131091  -0.0017386  -0.0551908  -0.0594137
   0.4920529   0.8536983  -0.4475524  -0.2270349  -0.5024765  -0.3958643
   0.5110132  -0.3393826   0.0252157  -0.1079094   0.0347092   0.6092145
  -0.1243020  -0.6606491   0.1394113   0.2083249  -0.1166820  -0.2379081
  -0.3114153  -1.1050930   0.7682277  -0.4673506  -0.3140818  -0.1319733
   0.0143892   0.2999639   0.3187922  -0.5783066  -0.6514315   0.4841477
   0.3268234   0.5282963  -0.4181177  -0.2719130  -0.2155651  -0.2010055
   0.6975960  -0.2082830   0.1777436   0.5374960   0.1621972   0.3129656
   0.2926741   0.0546729   0.2440925  -0.2892908  -0.6164376  -0.1898875
   1.0181106   0.0986356  -0.4542275  -0.0126152  -0.1017719  -0.0257968
  -1.7029600  -1.2444522   0.4635506  -0.0124555  -0.7215005   0.5110949
  -0.1290202  -0.1141882   0.2086466  -0.1524027   0.3988935   0.8510019
  -0.0076240   0.3894807  -0.0693767   0.2698233  -0.0819402   0.2271857
  -0.5243864  -2.0888799  -0.2703200   0.4624501  -0.3171020  -0.6090708
  -0.3446664  -0.0654784   0.2516876   0.2639506  -0.7014482  -0.1735540
   1.0014459  -0.4248687   0.2142643   0.0110139  -0.2467689   0.0384563
   0.0881019  -0.6190425  -0.9362092  -1.4079203  -0.9488010   0.4147294
  -0.0016066   0.1460920  -0.1254981   0.5750678   0.1670825   0.5273684
  -1.2493866  -0.5689171   0.0215161   0.0310526  -0.1031722  -0.0705270
  -0.6272364   0.3487844  -1.1450975   0.3817966  -0.7266818  -0.1168074
  -0.1454584   0.1011323   0.2557445  -0.2686373   0.1884705  -0.3417455
  -0.9737382  -0.0442615  -0.1401161   0.1752692  -0.0512525   0.0452612
  -0.5705493   0.8596773   0.8280013   0.7534252   0.7637966   0.0173622
   0.0899852   0.1123961   0.2297406  -0.7971870  -0.7813656  -0.5221096
  -0.5267375   0.6730158   0.3638510  -0.1222774   0.1232228   0.1801253
   1.7622447  -0.1159780  -0.0851487   0.5664023  -0.5106007  -0.5094154
  -0.0607402  -0.0961659   0.1466671   0.5385154   1.3206553   0.3704870
   1.2792203   0.0283134  -0.2319600   0.1024138   0.0828289   0.1675009
  -0.3103665  -2.3862106  -0.0481283  -1.3143007  -1.8436559  -0.1426456
   0.2786431   0.1125070  -0.0759129  -0.2952082  -0.7413737  -0.1456707
   0.9102631  -1.0774134  -1.1651912   0.1167890  -0.1827136  -0.0892897
   0.1720708   0.1587420   1.0815785   0.1540290  -0.3229839   0.2509895
   0.2853517   0.0298329   0.0315968  -1.8208335  -0.4222646  -0.8210841
   0.1783650  -0.2929752   0.2262230  -0.4315805   0.4241785  -0.2007269
   1.1392920  -0.4933959   1.0975221  -0.3316086   0.0776114   0.7059564
  -0.0860727  -0.2474377   0.2708797  -0.3447410   0.2628070  -1.4146831
  -0.8628172  -0.3374703   0.1491309   0.0593331   0.1538135  -0.1346787
   1.9865011  -0.8610301   0.7484909   0.5053704   0.0677493  -0.2864412
   0.3010174   0.1961160   0.1631455   0.3013934   0.2534516  -0.2316178
   0.8452374  -0.4023650  -0.8970800  -0.0790981   0.0019501   0.1611815
  -0.8305093  -1.3056335  -0.8093844   0.8637701  -0.9238762   0.7855094
  -0.3058650   0.2779052   0.1820625  -0.5620731   0.0786193  -1.2952496
   0.3870467   0.1093382   0.5368384   0.1281185   0.1479671  -0.0017755
   0.4405312  -0.9792156   0.7496701  -0.1741070  -1.5396259   0.0145659
  -0.1595260  -0.0870669  -0.1946249  -0.2685071   0.4545013   0.2358755
   1.0462150  -0.9920223  -0.2017875   0.1168896  -0.0262051  -0.2999343
  -0.2507455   0.2161638   1.9994463   0.5482862   0.5646885   0.3263358
   0.1060312  -0.2776828  -0.0015938   0.2698194  -0.9116200  -0.0484614
  -0.6472747   0.5340660   0.7174770   0.0335091   0.1917818  -0.2967453
  -0.1791795  -1.1426206  -1.4657950  -0.4585173   0.5170235  -0.3360166
   0.1150981   0.1341473   0.1611741  -0.6713636   0.2114994   0.7780140
   1.0645542  -0.1890791   0.7760233   0.2410301   0.0133365   0.1601679
   1.4691663   1.5784991   0.4459861  -0.4245364  -0.7635925   0.4569441
  -0.1317271  -0.1665501  -0.0627593  -0.6025725   1.1022453   0.2216455
  -0.5332590  -0.0652809  -3.0459818   0.1011468  -0.1952423  -0.3165329
  -0.4520988   1.3127310  -0.5527164   0.4186003  -0.9394933   0.1976833
   0.0312579   0.1483390  -0.0878010  -0.9318861   0.0219896  -0.6380136
   0.0825186   0.3853989   0.5400061   0.1074897   0.3148098   0.1275678
  -0.1040936   0.2830425   1.4147979  -0.1893211   0.6201835  -0.1024418
  -0.0923793   0.1265963   0.1653985   0.1358138  -0.0399892  -0.3923648
   0.1663441   0.8912767  -0.0580612  -0.5889483  -0.1436448  -0.0217746
  -0.0648906   0.2060800  -0.3864047   1.1428720  -0.4308307  -0.1001717
  -0.3792502  -0.0463955   0.3068664   0.6621332  -0.5742430   0.1088442
   0.4154159  -0.7223516   0.4327763   0.1207363   0.0427760  -0.0911897
   0.0058892  -0.2879436  -0.0927425  -0.3626623  -1.4238710   1.3083708
  -0.0243499   0.0620367  -0.2910620   0.7551812   0.5982462  -0.8740944
  -0.2707962  -1.0564289   0.7001074  -0.1574260  -0.0470728   0.0488587
  -1.5833511  -0.3038786   0.8636650  -0.4684231  -1.3106898  -0.7086923
   0.0580832   0.0575440   0.0013393   0.3715986   0.1659063  -0.5561883
  -0.2219684   0.1620662  -2.0140663   0.2478868  -0.5274392   0.0886987
  -0.2998037   0.5607316  -1.5868644   0.7767230  -0.1768126  -0.7955182
   0.4196122  -0.2544366  -0.1566673  -1.6379093   0.4417451  -1.9295968
   0.7960074   0.7036724   0.2208675  -0.4564777   0.1458048  -0.1427869
  -0.0590435   0.9097180   0.4073322   1.0340332   0.0200470  -0.1159848
   0.1468020   0.3061478  -0.3152704  -0.6714833   0.9262207   0.3624680
  -0.8106269   1.3955801   0.0463749   0.0517370  -0.0017920  -0.0419588
  -2.6194211  -0.1026930  -0.8608930  -0.6297480   0.3011345  -0.1438463
  -0.0983698  -0.1531100  -0.1896961   0.6878328   1.6546808   1.0662174
  -0.5827074  -0.0945917  -0.7927785  -0.3049781  -0.0391858   0.1295438
   0.7019385  -0.4488931  -0.1890607   0.5822137   0.0528120  -0.0183416
   0.1707543  -0.2978436   0.2004036   0.8090785   0.7016733   1.4635140
  -0.1974940  -0.4691889   0.5506288  -0.0538720   0.2876218   0.2273873
  -0.5629758  -0.2685411  -0.2899882  -1.0443171  -0.5801512   0.3182843
  -0.1174377  -0.1767360   0.2165458  -0.1911921  -0.0680074   0.4259933
  -0.0280427   0.6472638   0.2351315   0.1782007   0.1191872  -0.0027589
  -0.9276461  -0.9093050   0.4284223  -0.1927672  -1.0171016  -0.5538271
   0.3772769  -0.0790238   0.1745716  -0.6514653   0.2604107   0.5560196
   1.0591403  -0.4145792   0.5968927   0.0727981  -0.0760611   0.2182760
  -1.2661202   0.8065607   0.3841645   1.0263443  -0.7187717   1.0568514
   0.1462350  -0.0251709   0.0376647   0.4044674  -0.2147693   0.6755345
  -0.1318925   0.5536507  -0.2954644  -0.0691148   0.4488535  -0.2825491
  -0.2724956   0.2556778   0.2430954  -0.0102178   1.1046664   0.9872002
  -0.0883776   0.0876276   0.2010522   0.0988279   0.6255838  -0.2399966
   0.2319824   0.2218027  -0.5893755   0.0483397   0.1065551  -0.2039506
   0.2308504  -1.3560862   0.6178190  -1.0487864  -0.7471098   0.9248234
   0.3363059  -0.1657760  -0.2302952  -0.3463259  -0.6878370  -0.7305814
   0.2466258   0.5406181  -0.8733840   0.1570933   0.1078935   0.4994664
  -0.3810944   0.6931041   0.5333417   1.2434172  -0.5236208  -0.0143685
  -0.0448427  -0.1298250  -0.2106427   0.7078258  -0.1499945  -0.3115434
  -0.3087437   1.0905864  -1.0678671   0.1390831  -0.3016911  -0.1384248
  -1.0543106  -0.5636340   0.6327995   0.3602054   0.2509091   0.4883807
   0.0576760  -0.0923307   0.1407593   0.4258376  -1.5554276   0.7416409
  -1.9352394  -0.2925336  -0.6445974   0.3452490  -0.1993916   0.1514736
   0.5881752   0.2122920   0.5307275   0.9482650  -2.1115441   0.4390831
  -0.3152033   0.1684943   0.2526712  -0.6733983  -0.5731474   0.5162211
  -0.2489663   0.1876100  -1.2875865   0.1449154  -0.0935259   0.1423764
   0.5829732  -0.3499405   1.2653274  -0.0848689  -0.5544216   0.8444844
   0.2274287  -0.0867681  -0.2699176   0.5268391  -0.3978964  -0.5239288
   0.0862500  -0.3098557  -0.6207801  -0.0993859   0.0700291  -0.3744495
   1.0725084   0.4451861   0.7703858  -0.7208232  -0.0579468   0.7049214
   0.1576667  -0.1398048  -0.0707014   1.0122622  -0.1636022   0.3727976
  -0.9489667   0.0401447   1.3883628  -0.1428613   0.2429884   0.1596630
  -0.7091848   0.2153118   0.3595685   0.3777417  -2.3011492   0.0993775
  -0.2500569   0.0852673  -0.2202758   0.1783581  -0.6236896  -0.9250393
   1.1537744  -0.4837311   1.7779693  -0.0799055   0.1970893  -0.0597476
   0.0953247   0.0396409   0.4583242   0.4089732  -0.1650172   1.0489337
  -0.0772348   0.2970457  -0.1238196   0.9799690   0.3306069   0.5970168
   0.1817563  -1.0323687   0.1709150  -0.0682967   0.3663221   0.3887837
   0.4610383  -0.6619093   0.6228917  -0.3321371  -0.4447661   0.9540179
  -0.0664678   0.0967096   0.3183086  -0.4234748   1.3251907  -0.3431779
   0.4159007   0.2778237  -0.0470254   0.2150608  -0.0052087   0.1196886
   1.2121789   1.0555785  -0.9654870  -0.2270575  -0.2089895  -0.1654688
  -0.0416280  -0.2190627  -0.0233677  -1.1418599   0.6103259  -1.5292917
  -0.0871363  -0.9622117  -0.6016754   0.0075714   0.3609892   0.1213730
   0.1991983  -0.7572783   0.4635141  -1.1404169  -0.6809154  -0.3646620
  -0.0977781   0.0548016   0.3074750   0.2637015  -0.5972883   0.1960266
  -0.8585113  -0.4576126   0.1127557   0.0673969   0.2363186   0.2045520
   1.2620923  -1.9417588  -0.1569144   0.0259421   1.6394590   0.6974236
  -0.0223446   0.1210075  -0.3314784  -0.3842270  -1.2298960  -1.2862543
   0.8653762  -0.7197353   0.1978408  -0.0894674  -0.0066996   0.0172510
   0.5855149   1.2533765   0.9686340   0.9012745  -0.3349905  -0.6554664
   0.2897995  -0.2670021  -0.2281581  -0.3157163  -0.3906424  -0.0474903
  -1.4008245  -0.3139172  -0.7992908  -0.2622715   0.0888859   0.1405783
   0.3210076   0.8859444   0.7137927  -0.4502800  -0.7091233  -0.1498749
  -0.0370362   0.0675112  -0.1140816  -0.3071179   0.7471479  -0.1372434
  -0.7830768  -0.5060441   0.7857936  -0.0658186  -0.2418766  -0.2437320
   0.2073686  -0.2147585  -1.0101490  -1.3900427   0.5637934  -0.1412907
  -0.0375020  -0.2527018   0.0793773  -0.0072719  -0.5335786   0.3408200
  -0.4921975   0.9164652   0.6103277   0.1584861   0.0271696  -0.1247088
  -1.4590575   1.8030987  -0.5542753  -0.5015518   0.0338973  -0.2068486
  -0.2477409   0.0479658   0.1817405   0.3931132  -0.4466481   0.1460706
   0.3604815  -1.5707408   0.5455412   0.0344331   0.0663610  -0.0686042
  -1.8835182  -0.5934913   0.4042882   0.0554106  -1.3086982  -0.4188005
  -0.0202333   0.1269917  -0.3148652   1.1012194   0.6620357   0.3428430
   1.1383886  -1.0393176  -0.7092476   0.4454543   0.1779190   0.0684732
  -0.1604244  -0.8432640   0.2535208  -0.1769754  -0.4015681   0.2539948
   0.0211888   0.0478521   0.2315608   1.0721210  -0.9488196   0.3639978
   0.0316832  -0.3264494   1.1494323  -0.1774907   0.0554460   0.1789548
  -0.5962796   0.3409953  -0.7342588  -0.6816818  -0.5281363  -0.0001892
   0.2799047   0.0831366   0.2998144   0.2821245  -0.8503016   0.7937641
   0.2762161  -0.4686617   0.6104034  -0.2977207   0.0136079   0.3995317
  -0.4632671  -0.5766295  -0.6053306  -0.7517859   0.5761672  -0.0808113
  -0.0511441   0.0236734  -0.2351892   0.7930705  -1.3490759  -0.4354312
   0.2270665   0.3904194   1.0428572   0.2501848  -0.0086019  -0.3291904
   1.4045310  -0.2551339   0.2683599   0.3834733  -1.1486497  -1.4502573
  -0.1640089   0.0235489  -0.1380430  -0.0489446  -0.3120124  -0.1830806
  -1.4155638  -1.3528784   0.5615878   0.1827894  -0.2019938   0.3787402
  -0.9903036  -1.1663871  -0.5288119  -0.5127173  -0.0343891   0.0677114
  -0.1508080  -0.4613780  -0.1015940   1.0379466  -0.6600433   0.9426823
  -0.1416900  -0.1683054   0.6277957   0.2562769   0.2240241   0.1667950
  -0.3503274  -0.3675630   1.2694451  -0.0064304  -0.0831909   0.4918359
   0.2337166   0.0765125  -0.0651459   0.2821008   0.9006026   0.5445134
  -0.5355577  -1.1178184  -0.5308756   0.0443742   0.1195491  -0.2247500
   1.2387276   0.9396612  -0.5122238  -1.5394241   0.2984811   0.3432073
  -0.1404071  -0.0859638  -0.2176533  -0.2511390   0.5914461  -0.4405611
   0.5739042  -0.4528811  -0.0842720  -0.0898664   0.0491811   0.0799718
  -0.3574500  -0.0136828  -0.1418947  -1.9594507   1.7253169   0.6735945
  -0.0689776  -0.2019897   0.2584409   0.4333842  -0.6773627   1.0209384
  -0.7604724  -0.5582862  -0.7343234  -0.1219058   0.0669663  -0.1759638
  -0.2476018   0.5773347  -1.2515949   0.7437393   0.8579663  -0.9901547
  -0.0916144   0.0226838   0.0843221   0.4254768  -1.4078476  -1.0116882
  -1.3076796  -0.5857678  -0.7628057   0.1493084   0.0941280  -0.0099546
   0.8850238  -0.8621515  -2.3541143  -0.1800198   0.3519406   1.0373690
   0.1763089  -0.0398327  -0.0832183  -0.9147904   0.6362340   0.2258295
  -0.2098487   0.3141081  -1.0503423   0.2122445   0.0547807  -0.1268949
   1.4834313  -0.5973479   1.5592562  -1.8815383   1.0811806   0.1977118
   0.3233189  -0.1196951  -0.2072302  -1.0400521  -1.2517191  -0.8067423
   0.0643632   0.6149983  -0.6685464  -0.1044605  -0.3114104   0.2465265
  -0.4089519  -0.5588493  -0.2036497  -0.1426912  -0.2637130   1.1192771
  -0.0431182  -0.2506770   0.1369082  -0.7328706  -0.9485804  -0.4670979
   1.0469862   0.9336615  -0.0531628   0.0526363  -0.4149168   0.1112055
   0.5213235  -0.0552922   0.9751577  -0.7462879  -0.2295408  -0.5921668
   0.1359766   0.2330146  -0.0282023  -0.4848064  -0.6030489   0.2258789
   0.4318619   1.2981474   1.0747875   0.1930402   0.1400639  -0.0044174
   0.2496507  -0.4719598  -0.2045306   0.6923651  -1.5932056  -0.4108760
  -0.0974513  -0.1362613  -0.1933209   0.8433709   0.6625822   1.9987332
   1.5099069   0.3728535   0.3513499  -0.0158035  -0.1426070   0.0677650
  -0.1184044  -1.0928559  -0.7737029   0.7249987  -1.1131697   0.2708894
   0.0032723  -0.0938747  -0.0384773   0.2867181   0.5068833   0.5826845
  -1.0166544  -0.7255596  -0.6526889   0.2899855   0.1664747  -0.1875122
   0.4114879  -0.4790378  -0.0406995  -0.6651739  -0.0685422  -0.6404223
  -0.1062349   0.0480984  -0.1076997  -0.4423092   0.9783765   0.3432619
   0.0070748  -0.0147604  -0.2300501  -0.1845011   0.2397516   0.2970970
   0.1710762   0.9661404   0.7509084  -1.6433451   0.5138622  -0.4341414
   0.0087002  -0.0454195   0.1648508  -0.3119898  -0.5912136   0.3365209
   0.4927916   0.3808343   1.5535708   0.5772284   0.0833288   0.0739301
  -0.6167840   1.3271839  -1.2625794   0.1258722   0.4546837   0.4482999
  -0.1170108  -0.4722109   0.2476322  -0.1191538   1.0617371  -0.9710888
  -0.0618296  -0.4518974   1.6837340  -0.0248612  -0.1971293   0.0048047
   0.3734037   0.2053164  -0.7884045  -0.6451090   0.8464944  -0.6195820
   0.2400242  -0.0696690   0.0794365  -1.4139610  -0.1444610  -0.5571871
   1.0909417   0.4338809   0.0390404   0.2801088  -0.0240522   0.0044105
  -0.8010205  -0.9538681  -0.6042509   1.0303633  -0.0076412  -0.4045775
  -0.1928683   0.1591799   0.0994366   0.1037639  -0.3386238   0.4949450
  -0.3020345   0.2406339  -0.5617417   0.0599971   0.1123603   0.1007102
   0.7506487  -0.1807115  -0.8779640   0.1913658  -0.1667211   1.3559724
   0.2496303   0.0724152   0.2853880  -0.8432033   0.1072434  -0.6513318
   0.0324548  -0.9623380  -0.0510718   0.2380216  -0.4132493  -0.1898643
  -1.1441015   0.0964842   0.7017967   0.1874171   0.2054601  -0.4285362
  -0.0254823  -0.2723500   0.0713638  -0.9823387   0.7167129   1.5599143
  -0.9771617   0.3791674  -0.0104620   0.1560299  -0.2066947  -0.1885129
   0.5811105  -0.4535931  -0.1503282   0.6849840  -0.2960520  -0.1295155
   0.1163073   0.0968820  -0.0740962   0.5249475  -0.8414022   1.4781526
  -0.2218497   0.7436073   1.0143660  -0.0000499   0.0386247  -0.3026588
  -0.4582712   0.6674417  -0.9623136   0.2942932  -0.0693297   0.2648926
   0.1780044   0.0312941  -0.2996678  -0.3564670  -0.1377934  -0.5068269
  -0.0463313   0.9728507  -0.7432328   0.2740599   0.0764459  -0.2766007
   1.5768563   0.1728943  -0.1655960  -0.0007086   0.1565833  -0.5093621
  -0.0038912   0.1647295  -0.2691889  -0.9969145   0.8231269  -0.8172388
  -1.3282561  -0.1408307   0.2372597   0.2302972  -0.2353988   0.1217170
  -0.1611579   0.8802826   0.2686597  -1.3491056   0.4929490  -0.5530718
  -0.4263459  -0.1676422   0.1321213  -0.2647554  -1.1326831   0.9795040
   0.2868904   1.6069631   0.3687730  -0.4226393  -0.2163366   0.0367534
   0.4516277   1.1087057  -0.4390817   0.6454405   0.6538004  -0.2662215
   0.0380656   0.1697832  -0.4702215  -0.1147578   0.1001443  -0.5945795
   0.1231246  -0.8807675  -1.1608998  -0.2867336  -0.0997399  -0.1724158
   0.8463595   0.8084167  -1.7796081   0.0964447   0.3907595   0.2407062
  -0.5812241  -0.2179688   0.0586494  -0.7180535  -1.4260079   0.6504987
  -0.2298631   0.6293833   0.0499721   0.1422365   0.0483583   0.1628808
   0.3413736   2.1413711  -0.9641782   0.7721351   1.5594405   0.8448917
   0.0401446  -0.0540940   0.1594256   1.5951613   0.8481657  -0.9157276
   0.3977874   0.1190693   0.6263111  -0.2454477  -0.1239336   0.0335962
  -0.0937075   1.4785962   0.7567942  -1.2481521  -0.3115323   0.1011730
   0.0196649  -0.0205989  -0.0271495  -0.1294034   1.5988552   0.4924610
  -0.5213322   1.2183778  -0.9884312   0.0704445   0.1500886   0.0324279
   0.3369074  -1.4177498   0.6645225   0.2718908  -0.0816764  -0.9365454
  -0.1206026  -0.1311837   0.1006146  -0.8324565  -0.0541177  -0.9715000
  -0.1289399   0.2252012   0.7021270   0.0721966  -0.0547223  -0.2440325
   0.3107989  -0.3561212  -1.2884416   0.2799863  -1.8793972  -0.1072634
  -0.0817154  -0.0700572   0.3163455   1.6111551   1.1311313  -0.1240560
  -0.0521584   0.9534708  -1.5105320  -0.1526597  -0.0637808   0.0607824
   0.7277104  -0.1604571   0.4566837  -0.3406897   1.0551549  -0.0847892
   0.0227709  -0.1338908   0.0985827   0.9696619   0.1208380   0.5188176
   0.0064079   0.3745230   0.5366688  -0.2758047   0.0223574  -0.2993483
   0.8815652   0.5948117   0.8448829  -1.0068279   0.4778407   0.0795359
   0.3265324  -0.0591567   0.0171314   0.4867179   0.7355426  -1.0279979
  -1.6090854  -0.4849972  -0.3195416   0.0543146   0.1411135   0.1498387
   0.7647102  -0.3484760  -0.1654901  -0.2773441   0.2095757  -1.3093695
  -0.0173403  -0.3329005  -0.1815006   0.4517225   0.3221310  -0.1291826
   0.7925412  -0.0664281  -0.4048437   0.0661068   0.0076993  -0.0792149
  -0.7375049  -0.1575841   0.7560432   0.8659438  -0.4774833   0.5809912
  -0.3020723   0.1500902   0.0763956   0.1404878   0.8781106  -0.0824014
  -0.4613406  -0.8718782   1.6121653  -0.1418117   0.1198021  -0.1587420
  -0.4262073  -0.5345649  -1.0397312   0.4302991   0.1759505   0.5305219
  -0.3368173   0.1496584   0.0282095  -0.3441124  -0.0762023  -1.6989122
   0.8741768  -0.6651293   0.1167393   0.3275618   0.0216562   0.1532796
  -0.9331846   0.4317134  -0.5282769   1.6097000  -0.6106878   0.0654930
  -0.1083875  -0.1505842  -0.0780220  -0.9110761   0.1903231   1.2062543
   0.0906732   1.4573847   1.2643475   0.0051783   0.0084708  -0.0494657
  -0.7283167   0.0570289  -0.2159482   0.8165039   0.6620101  -0.0257563
   0.0995862   0.0020528   0.0927295  -0.7077580   0.6619621   0.5921611
  -0.0317083   1.4583180   0.1819810  -0.0388926   0.0117826   0.2435587
   0.3275835   1.1370084   0.4843469  -0.4891305   1.0201095  -0.3854037
  -0.1231506  -0.0041781   0.0243359  -0.7159231  -1.5538765   2.2489645
   0.1474494  -0.0383891   0.2441008  -0.0963308   0.0445555   0.3903488
   1.3047431   0.2039701   0.4099072  -1.7812092  -0.2690755  -0.1598790
  -0.1189648  -0.1456713  -0.1166591   1.2316647  -0.2006392  -0.2499226
   0.8150178  -1.5505942  -0.1221781  -0.1590974  -0.1522947   0.2809658
   0.1391884  -1.2995022   1.1480818  -1.2435107  -0.7418219  -0.1294152
  -0.1076226   0.1386726   0.2422111   1.6025917  -0.4996474  -0.5149424
  -0.0300610   0.6384890   0.1924273   0.0708469   0.1744852  -0.0172280
   0.0422954   0.6055524  -0.0211649  -0.6223974   2.2840636  -1.0908000
   0.1322492  -0.4008933   0.0652697  -0.0188948   1.1093188  -0.7220329
  -0.4010140   1.2851730   0.3306771   0.0063714   0.0899680  -0.2945156
  -0.2139284   1.6335246  -0.8990727   0.2689554   0.6265649  -0.5486605
   0.0539680   0.0589850  -0.0972802  -1.5420532   0.8379053   0.0465184
   0.3608671   0.2430248   1.2303050  -0.3338538  -0.1336800   0.0008171
  -0.7154023  -0.1765777  -1.0872290  -1.2386391  -0.1854833  -0.3044727
   0.0402708  -0.0492892  -0.0792082  -2.1991215   1.3578643  -0.1293497
   0.6868968  -0.7659024   0.5667922   0.2464722  -0.0284784  -0.2361528
  -0.1832367   0.4407557   0.3275960   0.5315243  -0.4798343   1.1018145
  -0.1630907  -0.0084775   0.1985053  -1.0353649   0.6111704  -1.1360261
   0.0291107  -1.2813575   0.7465091   0.0043205   0.0716432  -0.3121761
  -0.8589496   0.2268906  -0.8053456  -0.9959415  -1.6542252  -0.0360572
   0.3671588  -0.1074596   0.2237155   0.9332672  -0.2164702   0.3119950
   0.2393191  -0.2967071  -0.5267565   0.1443822  -0.1374038   0.0018869
   0.0316321  -0.3889570  -0.9349789  -0.8609074  -0.6456966   0.1527388
  -0.0039698   0.0097818   0.0621608  -0.4399881  -1.7835952  -0.1216614
  -0.5432077   0.4136002  -0.1282985  -0.0171471   0.0837758  -0.0655676
  -1.1904029  -0.4226960  -0.3982188  -0.9132371   0.6813504   0.3843274
   0.2420996  -0.1006257   0.2267014  -1.1180031  -0.7364041   0.0139219
  -0.5162705  -0.5921916  -0.4608871  -0.1457144   0.0704240  -0.2063613
  -0.4459642  -0.5227203   0.1838563   0.1249124   0.2746528   0.4515188
  -0.1025155   0.0984747   0.3797438  -0.6863200   0.4068819  -0.5041840
   0.3988869   0.3965320  -0.3422649   0.0052714  -0.0222099   0.0724793
  -0.5117578  -0.1430437   0.8973296   0.7062833   0.2771129  -0.0152187
  -0.2420489  -0.1198594  -0.1812635  -0.0650405  -0.5481890   0.9228851
  -0.2835608  -1.4820603  -1.0274276  -0.0195872   0.1002839  -0.0934306
   1.2271197  -1.3922055   0.1115629   1.0455084   0.2603000  -0.5553110
  -0.2578369   0.2285184   0.0401710  -1.3825924   0.2037784  -0.4621990
   0.8434635   0.0107353   0.0877301  -0.0468079   0.3468782  -0.3524508
  -0.6974354   0.2974984  -0.0545939   0.0153684   0.2866732  -1.1364161
  -0.0770915  -0.1769080  -0.1431935  -1.4276315  -0.3387127  -0.4759676
  -1.1539488   0.1446743  -0.2512306  -0.4108104   0.0001111  -0.0421745
  -1.1240530   0.3277177  -0.5695494  -0.0105284   0.6270380   0.6333054
  -0.2243354   0.1924136   0.1496849  -0.3230025  -0.7232030  -0.5493770
   1.1369027  -0.1616243   0.8352532  -0.2350614  -0.3081355  -0.0852077
  -1.0704142   0.9372684   1.4078982   0.2866428  -1.6153406   1.1223272
  -0.2740850  -0.1904171  -0.1955922  -0.5873306   0.7651499   0.7196889
   0.1515050   1.5380549  -0.0570711  -0.0424836   0.0764622   0.0843978
  -0.6364676   0.2240248  -0.1820552   0.1797480  -0.4923858   0.3144610
  -0.1510225   0.0036680  -0.2246319   0.6992126   0.2990506  -0.6637787
   0.3476333  -0.0016338  -0.8564625   0.0536192  -0.0784662   0.0007762
   0.2515928   0.4913559   1.0162560  -0.1438126   0.6648288  -0.4879706
  -0.2625028   0.1419907  -0.0692478   0.6910101  -1.3466303   0.0202182
   0.3828312  -1.0510623   0.3982578  -0.0184706  -0.1143090  -0.0478136
   0.2646855   0.4013798   1.3569844  -0.9733862  -0.1782323   0.7611045
  -0.0437828   0.1787485   0.0705566   0.2792346  -0.1193825   0.8706431
  -0.4128551   0.0936224  -0.5629401  -0.0371601   0.0266082  -0.2763287
  -0.2519838   0.8758656  -0.5206411   0.2963040   0.1160698  -1.0447739
  -0.1499708   0.0175680   0.1397466   0.4361561   0.0925871   0.2574991
  -0.6397428   1.1485257  -0.3476948   0.0532435  -0.0458326  -0.1831081
   0.7779888   0.1196394  -0.2254033   0.6946984   0.3902229   0.7820003
   0.2769959  -0.0516862  -0.2189823  -1.2479052   0.4739114  -1.4182691
  -0.2987090   0.3637261   0.2016509   0.0002663  -0.2908861   0.1491660
  -0.4599801   1.0505436  -1.6871635  -0.6963107  -1.6169397   0.7567612
   0.1619282  -0.2530558   0.0650973   0.1566833  -0.2818661   0.1623838
  -0.9432467   0.9852302   0.2948783   0.5010215   0.1344673   0.3264602
  -0.0588807  -1.1225158   1.2940592   0.5028751  -0.7873480  -0.6570056
  -0.1098179  -0.0780535  -0.2317489   0.8521868   0.6332643  -0.9262160
  -0.0702920  -0.3828899  -0.1958999   0.1042328  -0.0365535   0.0204093
   0.0958498   0.1486421  -0.5966211  -0.5523818   1.0468843  -0.2420700
   0.0157693   0.3188188  -0.2736208   0.1889441  -0.3574578   0.5892115
  -0.4215095   0.1964172   0.3096733   0.1813109  -0.2921013   0.1969394
   0.0842811   0.2596643  -0.0629294   1.3641399   0.3016665   0.8817156
   0.0052091   0.1799938   0.1309546   0.4334381  -1.4783791  -1.1191258
  -0.0635233  -0.5800057   0.5996385  -0.1132155   0.0123869  -0.0897454
   0.7806883  -1.0837654  -1.2499460  -0.5021956   0.6953202   0.5893472
   0.0546129   0.3661412  -0.0781613  -0.5176336  -0.1977823  -1.1290325
   0.8259534  -1.3284916  -0.4043278  -0.0126614   0.0581807   0.0393924
  -0.6453408   0.5141066  -0.0816477  -0.6364750  -0.4231467   1.3142662
  -0.0134107  -0.0862668  -0.1653575  -0.3518557   0.4862922   0.2976842
  -0.5043224   0.6895090   0.3631311  -0.1285094   0.0822801   0.1431292
   1.2084560  -0.4009365  -0.6015456   0.7169143   1.9183488   0.6363049
   0.2041749  -0.0163121  -0.1184305   0.4822466  -0.5333766  -0.5538517
   0.7330194  -0.5404827  -0.0430614  -0.1298831  -0.2012517  -0.0769971
   1.4020549  -1.4111181   0.1874484  -0.5640928  -0.5520670   0.6143908
   0.1354343   0.1323102  -0.1443501  -0.2517760  -0.1325406  -1.1674890
   0.2195223  -1.0368944   0.7260927  -0.0188024   0.0202774   0.0624489
   0.1432923  -0.3697537   0.7695491   0.1750080   1.1316196   0.3349362
   0.0075423   0.1409738   0.0674245   0.2393267  -0.2000634   1.1610592
  -0.4906104  -0.1067047  -0.3179320  -0.1767961   0.0507453  -0.2322286
  -0.7738394   0.5422391  -0.6831556   0.8464634   1.5034636  -1.5931738
   0.1273386   0.0896806  -0.0259246   0.6501792  -0.1260570   0.2548695
   0.3983844   0.8319917   2.4210854  -0.0915318  -0.2208418  -0.0484401
   0.6657648   0.7683580  -0.4793779   0.3855570   1.2450530   0.7020756
   0.4361350  -0.0357221   0.1416437  -0.5279170  -0.5524740  -0.2373294
  -0.9606040  -0.2045594  -0.4935315   0.2649427   0.2364210  -0.1435394
  -0.9002393   0.5571376   0.2089215   0.5094541  -0.5256719  -1.6365076
  -0.3801427  -0.0373764   0.0954315   0.9335439   0.3210576   0.2906656
  -0.2643211   0.5553353  -0.3371577   0.0666606  -0.1702941  -0.0837673
  -0.1522084  -0.0689899  -1.0879109  -0.5856043  -0.3781959   0.5406327
   0.0568533   0.1246231   0.4738747   0.6667419  -0.9276555   0.1172061
   0.2485100  -0.0577257   1.4130450  -0.0595653  -0.1935645  -0.0263061
  -1.1321782   0.2586383  -1.1656395  -0.2540647   0.5826594   0.8304382
  -0.1212479  -0.0960920  -0.0322848  -0.3047732  -0.4184298  -0.0036125
   0.1902340   0.5758502   0.0364402   0.3610598  -0.3901456  -0.4031943
  -0.1848069  -0.8805152   1.9875640  -1.2733247  -0.0693639  -1.3224305
   0.3647347   0.0547870  -0.2357109   0.1614931  -0.5825864  -0.3989486
  -0.0141180  -1.4140950   0.5402066  -0.0055254   0.0235633   0.2046665
  -0.8388683  -1.3512356  -0.3497090  -0.0674762   0.6390414   0.0546333
   0.0253211  -0.1540028   0.1501629  -0.2275643  -0.7752863   0.1350652
  -0.6860310  -0.1807022   0.9864469   0.0727616  -0.1250118   0.0746794
  -0.8090082   0.2692553   0.2254132   0.1792682   1.0870579  -0.8515441
  -0.3168545  -0.1455612   0.3091703   0.6355908   0.3605996  -0.2073869
   0.8369959  -0.1488267  -1.4028943  -0.0512027   0.1130048  -0.1037659
  -0.8654548  -0.6301970  -1.0446205   1.0216432  -0.6520022   0.5620092
  -0.0597311   0.3565479   0.2724691   0.7877164   0.6677075   0.8982815
  -0.8690063   1.1690940   0.6499970   0.0701899  -0.0406425   0.2858487
  -0.0182651  -1.0941556   0.0537634   0.1257915  -1.4276686   0.1644105
  -0.0709393   0.0671631  -0.2659096  -1.3720253  -0.5705429  -0.1096601
   0.2965738   0.6489558   0.1831995  -0.3074652   0.2495058   0.0906086
   0.4810672   0.0699746  -1.3034022   0.4849053   1.0212873  -0.2274127
  -0.2292382  -0.1254069  -0.1775589  -0.7401083  -0.1090266  -0.0019143
  -0.1060142  -0.1099554  -1.1380418  -0.0874434   0.0329574   0.4344031
  -0.3831804   0.3567351   0.8395723   0.5709816   1.4993957  -0.7268607
   0.0307006  -0.4995603  -0.1981285  -1.2070286  -0.0891000   0.2607314
  -0.3474516  -0.2335524  -0.2150761   0.2787995  -0.0090017  -0.0966351
  -0.4718295   0.1263389  -0.1939175   1.0109283  -0.2476547   1.5261721
  -0.2125727  -0.1109540   0.0370777  -0.4191340   1.0735292  -0.7066051
  -0.1570058   0.6935314  -0.4569692   0.0860036  -0.0804086  -0.0509289
  -2.0166684   1.3465910  -0.4404296  -0.5059233   0.1224344   0.9618219
   0.1959791   0.2616459  -0.3217188   1.6122548  -0.1853120  -0.3102513
  -1.2197297   0.2406790  -0.5659534  -0.2105110  -0.1343659   0.1501429
  -0.0583552  -0.1526746  -0.2683349  -1.7580291   0.8835134  -0.4528635
   0.1640631   0.0166882  -0.6246383  -0.2200597   0.0790991  -0.4477265
  -0.7616269  -0.3345439   0.9827104   0.4298047  -0.4734712   0.3039478
   1.0522165  -0.0659157  -0.0509772  -0.8335902   0.7485731  -0.0131204
  -0.1318675   0.2612137  -0.0932943   0.4678899   0.1560370   0.2536734
   0.4864225  -1.0091280   0.9566443   0.1149984   0.1319885   0.1276554
  -1.1621378  -0.5659781   1.2771171  -0.3527420  -0.4150286   1.2872332
  -0.1313339  -0.1272834   0.4936754  -0.6717363  -0.6246437   0.7817004
  -1.8255924  -0.6439450   0.1143544   0.1008576  -0.1071603  -0.1211187
   0.4099925   0.4579223  -0.4768084   0.2815918   0.7788639   1.2192034
   0.6060140   0.3407898   0.1259014   0.1333296   2.2179006  -0.8603424
  -0.4809729  -0.9394804   0.8574354  -0.2743588  -0.1122547  -0.0486007
  -0.0386798   0.4798598   1.1855269  -0.6091809  -0.3249306  -0.4943924
   0.2995550  -0.0158512  -0.0645630   0.4253239   1.3099519   0.0030154
   0.0237016   0.3480599   0.5426133   0.1393145  -0.5409053   0.0623824
  -0.4834993  -1.9361701  -0.1377234   0.8014397   0.4768451   0.3431871
  -0.2664511  -0.0539068   0.1247138  -0.0580979   0.0690553   0.5932690
   1.6566269   0.0129709   0.4861931  -0.0255488  -0.1977438  -0.0801681
   0.7218764  -0.3946700   0.0565447   0.3252989  -1.2494618   0.4212450
   0.1031336  -0.1488065  -0.3292632  -0.4411899  -0.0470167   0.1873091
   0.0218342  -1.2092399  -1.1689503  -0.2422826  -0.2265028   0.0117162
   0.0922382   0.0761823  -0.4363791   0.2249255   0.0240688   0.2419750
  -0.1372449  -0.3990618   0.0452163  -0.1311225  -0.4305637   0.7743507
  -0.1385418  -0.3325956  -0.3150748  -0.2697047  -0.0544331  -0.0947389
   0.0100263   1.2166975   1.1640547   0.0040604  -0.3498349   0.4981287
   0.0737794   0.0063712   0.0205947   0.0487673   0.0049657  -1.4640091
   0.0013347  -1.7620124  -0.3512384   0.1011688  -0.1291087   0.3365060
  -1.2697685  -0.3491635  -0.4693314  -0.3735602  -0.1257179   0.7022015
   0.2896626  -0.3120760   0.1279016   0.0814170   0.2091639   1.7227581
   0.6469648   0.1443167   1.4064484   0.1412417  -0.0802260   0.0343924
   0.5845565   1.2456176   0.8738171  -0.4740778   1.3476122   0.6820258
   0.1140422   0.3821679  -0.0342702   0.2993123  -1.7850905  -0.6680108
  -1.4999849   0.5233139  -0.3664540   0.0002546  -0.4345812   0.2467124
  -1.7369081  -0.9620878  -0.8147896   1.5421972   1.0312376  -0.2147042
   0.0409550   0.2145390  -0.3344505  -0.1748875   1.3153169  -0.9964162
   0.3425552  -0.8954539   0.8920576   0.0061850   0.0185727   0.1748171
  -0.3558565   0.1898601  -0.4757969   0.0854406  -0.8364050   0.0403784
   0.0297926   0.1330353   0.1342789   0.1492402   1.5183464   0.4556912
   0.1452070   0.8029755   0.7035730  -0.3174726   0.1251147  -0.1133622
  -1.6128807  -1.3790345   0.5268810   0.0894379   0.2240302   0.3250942
   0.1512020   0.1138304  -0.0624602  -0.6456007  -0.4848863   0.2639722
  -0.3622290   1.3303378  -0.6705307   0.0920787  -0.3703161   0.0864846
  -0.4195923  -0.0823829   0.2386042   0.2638572   0.2092368  -0.4228075
  -0.1217426   0.2050602   0.1420752   2.5206890  -0.3489833   0.5558523
  -0.3112358  -0.7360186   0.6316617   0.0632319  -0.1028083  -0.1154774
   2.7104994   0.3039499   1.1215175  -0.2955623  -0.8872548  -0.2582732
  -0.2419350   0.0769458   0.0940697   0.1046567   0.8890994   0.1506718
   0.0631765  -1.0033926   0.4148883  -0.2779690   0.1313153   0.0764963
  -1.8814539  -0.6377640  -0.0279002   1.5953362  -0.8806977   1.3241869
  -0.2345261   0.2325049  -0.0155015   0.3730360   2.0156132  -0.4402345
  -0.4432245   2.7522409   0.9090899  -0.1660032  -0.0443446  -0.0400877
  -1.0475232  -0.0349018  -0.7500270   0.8789086  -0.6362354  -0.8126121
  -0.2034186   0.0162449   0.1392398  -0.7680942   0.1218629  -0.1198266
  -0.6456026   0.7818975   0.8273975   0.0142753   0.0686873  -0.0088169
  -0.0446919  -0.3636977   0.0457423  -0.3876439  -0.9763134  -0.5483618
  -0.3748853  -0.2793719   0.1698707   0.8280071  -0.1292317   0.3679528
  -1.5757710  -1.0850265  -0.5226500   0.0654025   0.0319950   0.0590867
   0.4153068   0.9831996   1.1765384  -1.5508361   0.7670836  -1.0399938
   0.0990555   0.0381607   0.2636022  -2.2934481  -0.5447484  -1.1926467
  -0.9702520  -0.2272494   1.0256225  -0.1177863   0.1422238   0.2484780
   0.2854447   0.5133390  -1.2302848  -0.0335593  -0.7084202   1.1074505
  -0.0622301  -0.1179767  -0.1287040  -0.9723484   1.2601550  -0.4570463
  -0.2073485  -1.1783548  -0.7071915   0.0912594  -0.2234539   0.0160970
   1.1858264  -0.5027961  -0.0056486  -0.1860024  -0.2634697   0.4264123
  -0.2611605  -0.2201200  -0.1056601  -0.0451383   0.4343155   0.1109836
  -0.0850483   0.5465587  -0.7334658  -0.2003722   0.0806078   0.1132064
  -0.5436926   0.2575725   0.9332362  -0.9242220  -0.2961667  -0.7279627
   0.0860146   0.0586529   0.0740860   0.1278807  -1.0816010   0.6260395
  -0.0740918   0.6638105   0.1445278   0.0142543   0.1632145   0.1370761
  -0.5728891  -0.3261220  -0.2712730   0.3720043   0.7599721   1.6333515
   0.0627491  -0.2668734   0.3380151   0.1774876   0.3305551  -0.4086433
  -0.1218905  -0.0683226   0.3893873  -0.2886858  -0.0269883   0.1894971
  -1.0856140  -0.4098951  -0.5377225  -0.0577943   0.6128612   0.1859735
   0.1384223  -0.1557173  -0.0527811  -0.1115344  -0.7572026   0.4844064
   0.4243710  -1.2581028  -1.5646287   0.1543870  -0.0061926  -0.0261477
   0.3538149  -0.0459757  -0.9659890  -0.0272237   1.0833205   1.1594514
  -0.2301248  -0.1448191  -0.0410099   0.0193672  -1.4309991   1.5976640
   0.7554614   0.0820945  -1.3684254   0.1576985   0.4640166  -0.3825466
  -0.6778067   0.4492741   1.6522550  -0.9493465   0.5954054  -0.3298140
  -0.0082027   0.0664632  -0.1402322   1.7625803   0.1568050   1.5327047
  -0.2877057  -0.8195295  -0.8570426   0.1057798  -0.2588139   0.1362635
   0.2286297  -0.4104989   0.2390614   0.0581773  -1.9116303   1.4932165
  -0.1498972   0.0007257  -0.0882764   0.7150874  -0.3305079  -0.9838642
  -0.6109695   1.0504843   0.6302301  -0.0644821   0.2379851  -0.1089073
  -0.2937148  -0.4958958  -1.0131138  -0.1032777  -0.5421328  -1.3496090
  -0.3108878  -0.3605836   0.0189568   0.0178073  -1.3991757  -1.0115147
   0.5275919  -0.9165518  -0.4122236   0.0333714   0.0669191   0.2991387
   0.7784157   0.0983654  -0.0555564  -0.0039618  -0.3069051   1.3298043
  -0.3558018  -0.0896290  -0.2785101  -0.0694976  -0.2120986  -0.8163951
   0.6868714   0.4682111  -1.1727391  -0.1376466   0.3146969  -0.2414956
   0.3171637  -0.2313669  -0.5324813   0.8409234  -1.0165328  -0.5584526
   0.0425583   0.0211507  -0.2532443  -0.1492033   0.0842666  -0.7585872
   0.8016845  -0.1475791   0.4486678   0.2557936  -0.3342603   0.2854725
   1.0748007  -0.9788346   0.1866483  -0.5365968   0.1073279  -0.1797292
   0.0888608   0.1175846   0.1282278  -0.2911502  -1.4036833  -1.3362589
   0.8368321  -0.0090120  -0.2368403   0.2218454   0.0715392  -0.1249196
   0.2451248   0.3106588   0.0522199   0.2759128   0.3657427   1.9122286
  -0.1657369  -0.1301113   0.1630700   0.6329500   0.1636597  -1.1091673
   0.2135099   0.2643855  -0.1700703   0.3065614   0.0984212   0.1211412
   0.0935406  -0.2062331   0.2409412  -0.2908783  -0.6985274  -0.7748141
   0.3780443   0.3899430   0.1142815  -0.8055328   1.0532606  -0.3951355
   0.3020109   1.0010280   0.3990562   0.0116096  -0.2355100   0.1025430
  -0.5117196  -1.0399683  -0.4202382   0.7896396   1.3792658  -0.7488968
  -0.1503226   0.2193056  -0.0135434   0.1978865  -1.1121268   0.3216243
  -1.3062827  -1.0501333   1.5872861   0.1127097   0.0919104   0.0134263
   0.2814599   0.0802871  -0.1261959   0.5763374  -0.5401506   0.6084778
   0.0262598   0.2567558  -0.1253640   1.5252910   0.5864395   1.3552323
   0.2011980  -0.3488065  -0.1459411  -0.0984053  -0.0950410  -0.0618300
   0.8712634  -0.0676084   0.3030872  -0.9215556   0.7145656  -0.3079100
   0.2062400  -0.0565219   0.0850589   1.3115627  -0.0742869   0.8643436
  -0.1998657  -0.5619746  -0.3199409   0.1742832  -0.1226566   0.0417992
  -0.3820960  -0.3454220  -1.3495013  -1.7296010   0.1400834  -0.6613481
   0.0263942   0.2041826  -0.0170863  -0.2769890   0.0216495   0.5604190
   0.6451074   0.1974727  -0.0185397  -0.0096582  -0.2983966   0.1115743
  -0.5532185  -0.0359206   0.6712274  -0.3743335   0.7030566   0.8074264
  -0.0742834  -0.1231203  -0.0259904  -1.2896412  -0.8828027  -0.0838029
   0.0626258   0.0066362  -0.4739049  -0.1467286  -0.0240723   0.2767512
  -0.9589047   0.3113324   0.4651261  -0.2056597  -0.0056088  -0.6688325
  -0.2000018   0.4087767   0.2130389   0.1793699   0.7142663   1.1550687
  -1.1073227   1.2267437  -0.8004129   0.1208565   0.2372618   0.2309594
   1.0482791  -0.0743192  -0.3304663  -0.2596349  -0.2211045  -0.5846491
  -0.1926275  -0.0667437   0.0310822   0.1403679  -1.3618921   0.0488053
  -0.9981762  -0.2965263  -1.4337029   0.2375587   0.2211696   0.1954598
  -0.3270391   0.2954163   0.3549289  -0.2012084   0.0206457  -0.1988143
  -0.0177141  -0.0653836  -0.1404754  -0.2673849  -0.5992385   0.7639625
   0.1733222   1.0842030   0.5710945  -0.3063373  -0.1086063   0.2346706
   0.2101875   0.6880715   1.0497556  -0.2992323   1.0064132  -0.7355272
   0.0935958   0.0964694  -0.0140497  -0.8952149   0.2770882  -0.4662522
   0.3840689  -0.3654152   0.1266579   0.1972494  -0.1453299  -0.1934521
  -0.2006446   0.9188808   0.5509526  -1.0031923  -0.6390233  -1.1533340
  -0.0809772  -0.2256594   0.0587914   0.7678125  -0.1226247   1.3127080
   0.4211834  -0.4876185  -0.8497523   0.3019434  -0.3297386   0.3754406
   1.1054887   0.7747405  -0.3771311  -0.3205527  -0.0830409   0.3163141
   0.3417254  -0.3733702  -0.0230554   0.5062841   0.8176675   1.3339422
  -0.6579368   0.6802770   1.2404269   0.1268910  -0.1634576   0.1129958
   0.0609477  -0.3239461  -1.0814073   1.3102138  -0.7732778   0.9786812
  -0.0047102   0.1690638   0.1663000   0.6387290   0.2412730   0.6556384
  -0.1642364   0.4869533   0.6719745   0.1586279   0.1912474   0.2544592
  -0.9250385   0.1720903  -0.7713987  -0.1001896  -0.7533792   0.6594394
  -0.0303654  -0.0806559   0.3090023  -0.2806684   1.7631222   0.9174140
   0.2018527  -0.6440351   0.5125839  -0.2064482   0.1433376  -0.0558662
  -0.2143599   0.0996966   0.5287111  -0.7845631  -0.6343904  -0.2131826
   0.1482132   0.0696187   0.2528643   1.7240021  -0.1024895   0.5557025
  -0.2839753  -0.0940292  -0.0801132   0.2367200   0.0602677  -0.0302605
   0.3818972  -0.2806264  -1.1578765   0.5211495   0.0440835   0.3944908
   0.2957953  -0.1945383   0.1245703  -1.0843328  -0.2999745  -0.4517161
   0.7137397   0.1676239   0.4775094  -0.3339421   0.0845976   0.2707095
   0.1738001   0.6581436   0.2745634   0.9696640  -0.8302754   1.0729569
   0.1503998  -0.1011689  -0.1119527   1.2723683  -0.6194638  -0.0315267
   1.7856918   0.4287095  -0.1488684   0.4187793  -0.2103985  -0.0056040
  -1.2736656  -1.0404673  -0.3832736  -0.7521335   0.3436644   0.1529084
   0.4363171   0.1038368  -0.0679222  -1.0200955   1.2740885  -0.4069036
   1.6649536   0.1827137   0.8945389  -0.1833725  -0.2319602  -0.1984598
   1.5399629   0.3557574  -0.4302006   0.1991936   0.7388227   1.0302555
   0.0342132   0.2337889   0.1531553  -0.2052665   0.2693198   0.3640243
  -0.1173895  -0.1458357  -0.1466386   0.1348631  -0.0697921   0.2371918
   0.7874752   0.6841627  -1.0317830  -0.1441616  -0.8550065  -0.3831855
   0.0015917  -0.0163853  -0.1355098  -0.3903106   0.5446405  -1.6125060
   0.0693374   0.3062036   0.1226537  -0.2574089   0.0207901  -0.0487310
   0.1206734   0.4414627  -0.0593237  -0.2207450  -0.1388819   0.8145571
  -0.2536313   0.1808755   0.1426081  -1.9610952   0.0867823   0.1471304
   0.1337713   0.4718930  -0.9596643   0.0138744   0.0786760   0.1469496
   0.3325418   1.0370811  -1.0484627  -0.4689366  -0.6171430  -0.9632084
  -0.1697530   0.2889936  -0.0994376   0.0985166   0.0762378  -0.0575520
  -0.2559859  -0.1275494   0.1139536   0.1681427  -0.1662721   0.0279911
  -0.3398515  -0.4679033  -0.0977261   0.3679310  -0.3072925   0.2292867
   0.0188733   0.1345227   0.0157973  -1.5989929   0.3974617   0.1979431
   0.4446755   0.2632664   0.3473113  -0.0087702   0.2920083   0.0624879
   0.3716215   0.7889871   0.1684034   0.3124660   0.0297203   1.1319828
   0.1456067  -0.0137993   0.1106037   0.0572812  -0.1191445   0.4855300
   0.0985905   0.0219216   1.1074785  -0.0845442  -0.1754637  -0.1715528
   1.1109901  -0.1524011   0.7884934  -1.5941524  -0.2517711  -0.0527473
  -0.2178234   0.1724826   0.1465981   0.7308497  -0.3996781  -0.9137558
  -0.0778568   0.1058623   0.5769224   0.3478847  -0.2800299  -0.0078082
   0.7232899   1.2274717  -0.3634100  -0.3298142  -0.3735982   0.0970619
  -0.0831504  -0.0486056  -0.3834450   0.4898461   0.5991156   0.2792719
  -0.4162930  -0.4645713  -0.0168983  -0.1194496  -0.0719098   0.4204093
  -0.3179072  -0.4689889  -0.1231156  -0.4596063   0.1365639   1.7366074
  -0.0278700  -0.0496894   0.2241605  -0.0065390  -0.0238810   0.4150630
   0.2765892  -0.5557823   0.0113208   0.2796319   0.0702910  -0.0428631
  -0.2245200   0.1926650  -0.6073337   1.4253402   1.4792023  -0.1240995
   0.0751620  -0.0646471   0.0774661   0.3056236  -0.3900163  -0.6167976
  -0.0194787   1.9145995  -0.7131691  -0.3894105   0.0343675  -0.1947272
  -1.4128247   0.2018099   0.8093145  -0.3616862  -0.3393699   1.0003679
   0.1816092   0.1829232  -0.2740166   0.5261871  -0.1312178  -0.3658222
   0.5540824   0.2119012  -0.1331304  -0.2786305   0.1287988  -0.2097066
   1.0435619  -1.0887741   0.6398607   1.0108309   1.2051056   0.3970850
  -0.3195527   0.0247954  -0.1617361   0.6211217  -0.3579001  -0.5138007
   0.3579332  -0.2645273  -0.4166133  -0.2026538   0.1413403   0.1599559
  -0.8065809  -0.4751914  -0.0870198  -0.6024922   0.9730947   0.8636529
   0.0033407   0.4413168   0.0307986   0.6302545   0.0947585  -0.6167771
  -0.2095082  -0.3380290   0.3799107  -0.0265190   0.1285941  -0.0842052
   0.6036360  -0.8911112   0.8828264   0.0377547  -0.5616170  -1.0806636
   0.2755814   0.0983121  -0.0193139  -0.0529934  -0.2610461   0.3602715
  -1.1142759  -1.2568455   0.6347318   0.2881792  -0.0485510  -0.0542373
   1.2735571  -0.2410619   1.7565508  -0.2592233   0.0397758  -1.1730938
   0.0580952   0.0617989  -0.0740052  -0.1409955   0.6080077  -1.1099507
  -0.5561319   0.5089550  -0.4019122  -0.1472961   0.0799971  -0.1321854
   0.2073197  -0.1496497  -0.5435354   1.0394953  -0.5232272   2.4494015
  -0.0941135  -0.0383535   0.0690439  -1.7134038  -0.4558886  -0.4202608
  -1.3193487  -0.9421785  -0.1056644   0.0638512  -0.0997479  -0.0075485
  -0.9197778   0.6373552   0.4420631   0.4122911  -0.3024008   0.0072520
  -0.0013056   0.0958660   0.1534065   0.0623317   0.4412898   0.9788081
  -1.5689058   1.4785012  -0.6933085   0.5117591  -0.2386418  -0.2956947
  -0.7160402  -0.1630283   0.0539203  -0.2756257   0.0806812   1.7127693
  -0.2160012   0.2381205  -0.6297401  -1.0664749   0.4453887   0.7333697
  -0.6235777   0.0339029   1.3881179  -0.2185673   0.1196878  -0.1378730
  -0.0142910  -2.2167731   0.1682176  -0.9306388  -0.6910554  -0.1990777
   0.2613618   0.0064633  -0.2901132   0.6800329   0.3344887  -1.3498181
   0.0330957  -1.4091626  -0.4228990   0.0121130  -0.0444782   0.3132697
   0.4165189  -0.1348911  -1.4559777  -0.9817191   0.7172402  -0.4884940
  -0.0148965   0.1117611  -0.0186843   1.6276593   1.1298713   0.1160548
   0.9481098  -0.0594777  -0.1291701   0.0774720  -0.1570536   0.2345891
   0.5111040  -0.2218005  -0.7975975   0.0838096  -1.1574154  -0.7524177
   0.1810893   0.0876545   0.1614442  -0.7281910   0.6340483  -0.5639202
   0.1603816   0.0207295  -1.3256512   0.0752621   0.1105215  -0.2458025
  -1.3455035  -1.8712307  -0.2340548  -0.7200009  -0.6949500  -0.4474118
  -0.0070386  -0.1935006  -0.0337164   0.0670134  -1.7972533   1.5294341
  -0.5295588  -0.0382450  -2.1171203   0.2302799  -0.0384628   0.1286853
  -1.0234317  -0.2922234  -0.9431695  -0.9073820   0.9916855   1.8393597
   0.1516386  -0.0036280  -0.0924646  -0.3810063   0.2197336  -0.6038576
  -0.1828357   0.9059737  -0.0229300   0.2704820   0.1313044   0.0442498
  -1.9179309   0.0305859  -0.6008802  -0.5769204  -0.3762188   1.0753858
  -0.2359370  -0.0414342  -0.1433110   0.9706317   1.2689024  -0.4053942
   2.0458222   0.6457168  -0.1292984   0.1227587  -0.0473953  -0.0914484
   2.0854798  -0.7796373  -0.6920219   0.0020236  -0.2197005   0.3437133
  -0.2786942  -0.1317923   0.1620691   0.6548866   1.0971929  -0.5889887
  -0.7518717  -0.4940153   0.5192665  -0.0564917  -0.0126408  -0.1379290
   1.0073013   0.7817750   0.2531025   0.0849406  -0.2956881  -0.2537755
   0.2951715   0.0329934   0.1235331   1.7132025  -0.1125345  -1.0766740
   0.0826386   0.3672452  -0.3095993   0.1878736   0.3297143   0.1357109
  -1.4464399  -0.5348629   1.8631360   0.6538418   0.3971756  -0.5294212
   0.1224135  -0.0612021   0.0049022   0.0976220  -0.2662397  -0.7176932
   0.3583976  -1.1099066   0.7073497  -0.2693782   0.1820948   0.4484026
  -0.0822724   1.0476247  -0.3442858  -1.0068877   0.3164458   0.0821138
   0.0012452   0.2484485  -0.0930393  -0.5944021  -0.7826366   0.2337649
  -0.5637637   0.3945640   1.1846105  -0.2473530   0.0459093   0.1673328
  -0.7439738   0.0524956   0.1625544  -0.7015536  -0.0873841   1.5285783
   0.1699248  -0.0567999   0.1393313   0.4633583  -0.3793462  -1.2571057
  -0.3927131   1.2801963   0.3996138   0.2526569  -0.0061256   0.0056063
  -0.5988108  -0.6618288  -0.4316546   0.1586453  -1.1430975  -0.2595328
  -0.1912389  -0.0843570   0.2881121   0.2584909  -0.6966158  -0.2293245
   0.3804779  -0.4702939   0.5465027  -0.3150591  -0.1162878   0.0416625
   0.7042042   0.1337365   0.6335269  -0.2794953   0.6980581  -0.4626899
  -0.2499525  -0.0845568   0.0146041  -0.6732139  -0.8880685  -0.7107311
   0.0562039   1.0149976  -0.1343997   0.0168279  -0.1405928   0.0505587
  -0.4558600  -0.2002338   0.5086392   0.5013980   0.3585023   0.1495547
  -0.3441628  -0.0271034   0.3159021  -0.2341689   0.5164734  -0.5106271
  -1.1536075  -0.0469615   0.4016881   0.0006102  -0.0012232   0.1459750
   0.5193107  -0.9783087  -0.0517801   0.7017823  -0.7985497  -0.9685024
  -0.2482682   0.1620204  -0.1743911  -0.6417295  -1.2577266   1.5376034
  -0.0967217  -0.0662355  -0.2462020  -0.1192272  -0.0381627   0.0033022
  -0.9649943   0.6284036   0.8350502  -0.2462410  -0.1737224  -0.3432321
  -0.0406978   0.3611908   0.1142450  -0.5785523   0.7669766  -0.4945362
   0.2185391  -0.5025299  -0.1177275  -0.0915781   0.0029369  -0.1246005
  -1.5596579   1.1567419   0.1012962  -0.7678621   0.1569731  -0.2901497
   0.0102501  -0.3359605  -0.2494990  -0.2147068   0.0759760  -0.7608068
   0.6388131  -2.1057845   0.2973765  -0.1659181   0.1109088   0.0591780
   0.3803368  -0.1323731   0.0580073   1.1487863  -0.1568438  -0.6044915
   0.1252231  -0.0474029  -0.1099380  -0.3284049  -0.5499207  -0.7884621
   1.0779936  -0.3764241   1.4291630  -0.1803278  -0.0183172   0.1101821
   0.1625570  -0.3515068   0.5125554  -0.5191996  -1.3678589  -0.1212444
  -0.2756206   0.0077822  -0.0002314  -0.8694327  -0.8663321  -1.0109855
   0.3924479   0.8368371   0.0237888   0.0655332  -0.3082741  -0.0570305
  -0.9889220   0.3567973   0.3449516  -1.3256703   0.2778441   0.3154275
   0.1068379  -0.0014045   0.0715113  -0.2816658  -0.4863202   0.7165172
  -0.7535363  -1.4001337   0.5615343   0.0323250  -0.1013863   0.1638873
   0.1240818   1.0773639   0.6449263  -1.6621013  -1.8773076   0.2211398
   0.0479532  -0.4143011  -0.0969693  -0.3594764   0.3257954  -0.2706679
  -1.1798846   0.8112638  -1.1219109   0.1135016  -0.0969897   0.0556406
  -0.5294963   0.9955371  -0.0710091   1.0543023   0.2371809   0.5704068
  -0.3523056   0.0327876   0.5277814  -1.4353205  -0.8050318   1.0713915
   0.4237397   0.1111162  -1.2509962  -0.2291431  -0.0438017  -0.0662317
  -0.2370466  -0.9604979  -0.1399649  -0.2703505   0.3638808   0.0381308
   0.0179062  -0.1825572   0.4517312   0.6783594   0.1633811  -0.5302433
   1.0928625  -0.9778670  -0.9999666   0.3295769  -0.1121942   0.5134713
   0.1037533  -0.5019098  -0.0961342   0.3824310  -0.7606801   1.1677431
  -0.2079008  -0.1780606  -0.0700233   0.1318093  -0.1088887  -1.1798770
   0.5548476  -0.3734088   0.9199558   0.0675860   0.2041777  -0.1431048
  -0.5422699  -0.1542622   0.3289421  -0.0275695   0.0872234  -0.4046420
   0.1508341   0.2949420  -0.1971288   1.3459651   0.1810174   0.2859379
  -0.2794884   0.0306823   0.3329733   0.1468911   0.1570648   0.1283890
   0.5736134  -0.5107382  -0.4349976  -0.5497739  -0.4971756  -0.3024614
  -0.1315699   0.0576830   0.1153919   1.6809274  -0.0901510   1.2272100
  -0.3045731  -1.4848625  -0.9095488   0.0967262   0.5109196  -0.0011965
  -1.0278168   0.5619401   1.7318516  -0.2567738   0.5159525  -0.4485796
   0.2747762  -0.0329543  -0.0366351  -0.0486937  -0.6944794  -0.3254970
   0.8516538  -1.0259170  -0.3271011  -0.0306226   0.2153498   0.0247461
  -1.1785180   0.4202174  -0.9665668   0.2815494   0.5451991   0.8736666
   0.0061166   0.1822453   0.2708545   0.6386726   0.7610323  -0.3486862
   0.9329534   1.8017592   0.0908730  -0.0512043  -0.3359153   0.1161420
   0.1338367  -0.1772793  -0.8563943   0.4425424   0.9654796  -0.2879789
  -0.1877339   0.1468986   0.1295052  -0.2247406   0.8957763   0.3811536
   0.6252515  -0.1451330   1.1263998   0.2034187   0.0266028   0.2566508
  -0.4850629  -0.2903535  -0.7561721  -0.6861029  -0.1115962  -0.8580548
   0.0610748  -0.1272184   0.0045507   0.2724271   0.1494957  -0.2711639
   1.4853695   0.0441249   0.2637439   0.0264534  -0.3357330   0.0615535
   0.1980801  -0.5789135  -0.3864701   0.0823697  -1.1602946   0.2547373
   0.0272367   0.1988029   0.0896168   0.0927891  -0.5776608   1.3125073
  -1.7132339  -0.0991915  -0.8087596  -0.3330738  -0.1758652  -0.2943287
   0.3467210   0.7670817   0.3481921  -0.1859346  -0.7079033  -0.7496109
   0.2771112   0.4605529  -0.0423660   0.7046547  -0.3103329  -1.6017851
  -0.0603760  -0.0553491   0.5334370   0.0494660  -0.1307416   0.2001283
  -0.2622317   0.7699205  -0.8940385   0.0908743  -0.8412982   0.3671619
  -0.1299512   0.1746697  -0.2327001   0.3934420   0.3652744   0.1192220
  -0.6002248  -0.1981576  -1.6499653   0.0054671   0.1025562  -0.0479261
  -1.2667104  -0.0801842  -0.1785961  -0.4084607  -0.7580307   0.1254114
  -0.0761850   0.3565578  -0.0644503   0.1945980  -0.6813230   0.2939930
   0.3680683  -0.5931497   0.7037823   0.2673888  -0.0660107  -0.1987702
   0.6317763   0.0736177  -1.1543329  -0.5423468  -0.5157179  -0.6874909
  -0.1033952  -0.1096126  -0.3816153   0.4418713  -0.8378255  -1.4532838
   0.1528342   0.0608710  -0.5070737   0.0322384   0.1447298  -0.2129600
   0.2995790  -0.1842649   0.3253173  -0.1038384  -0.3195506   0.2104817
  -0.0308251   0.1252807  -0.1200893  -1.0280453   0.1266051  -0.4436865
  -0.2155121  -0.8707433   0.0693346   0.0100995  -0.0350833   0.1076070
  -1.5665462  -0.4515627  -0.5021055   0.4319443   0.6154257  -0.9502533
   0.0074767   0.2010221  -0.1886105   0.4595091  -0.7211774  -0.1343550
   1.4459222   1.5708407  -0.4872047   0.1718771  -0.2093593  -0.0529095
  -0.6035693   0.1543756  -0.1206799  -0.5533502  -0.1648402  -0.1250652
  -0.0342438  -0.0567447   0.1125902  -0.3338545  -0.0006020   1.4314315
   0.4987037   0.0585253   0.5759455  -0.1643435   0.0595536   0.2391336
  -0.0604570  -0.5258600   1.0429740   0.6892114   0.1603870   0.0734406
   0.0818275  -0.1069706  -0.3146694  -0.1741015  -1.2543766  -0.2204934
  -1.0263326   1.6122570  -0.1888595  -0.0637940  -0.2500416   0.0084735
  -0.2533063   1.1251284   0.5742189  -0.2143458  -0.1352646   2.1630687
  -0.1055645  -0.0454599  -0.0741582  -0.5343363   1.5927379   0.2326066
  -0.3940678  -0.2134310  -0.1240367   0.2342344  -0.2091299  -0.0488078
   0.7902067  -0.4040705   0.9589876   0.4617220   0.5776750   0.1247565
   0.2024984   0.1016783   0.1329649   0.2762080  -1.6814196  -0.5841321
  -1.2588899  -0.2483270   0.9292566  -0.1772804   0.1405565  -0.1305055
   0.9162559   1.8052915   0.2269354  -1.2107757  -0.6312992  -1.1438558
  -0.1346851   0.0036669  -0.0577248   1.1682539   0.1014686  -0.5460997
   0.1134875  -0.5236196   1.2035577   0.0746597  -0.1080131  -0.0787283
   0.1703549   0.6699375   0.1687995  -0.3351742  -0.1092485   0.9508353
  -0.0193845   0.0090968  -0.3049685  -0.6279706  -0.2028820  -0.6526228
   0.0512697   1.1830714   0.2321351  -0.1407952   0.5484189   0.5953788
  -0.8211646   0.3930206  -0.7599712  -0.3876998  -0.1462495   0.8725638
  -0.0307637   0.2033278   0.1991675   0.5673454   0.2880191  -0.8269021
   0.1702112  -2.0021643  -0.1820762   0.0670344   0.1805912   0.0908614
  -0.4286665  -1.0086878  -0.2894282  -0.1270617   0.6093501  -0.6453178
  -0.1962110   0.0197932  -0.0204297  -2.1304955  -0.8362340   0.9037820
   0.9991749   1.3714191   0.7200983   0.2333179  -0.2369016  -0.0774144
  -0.4262877   0.2785758   0.6521216  -0.4796840   0.0886011  -0.1784009
   0.1094677  -0.1687331   0.0766967   0.3762495   1.0796455   0.7062678
  -1.3010726  -0.3974446   0.7177243   0.0580114  -0.0883769  -0.0295198
  -0.3909807   0.3585059   1.7169014   0.4708460  -0.0743199   0.4381060
  -0.0496372  -0.1942313   0.1436132   0.6637965   0.1131100  -0.0367769
   1.0149514  -0.3669272  -0.7389092  -0.0394028   0.3522698  -0.1180063
  -0.8330019   0.4267897   0.8830983   0.5726793   0.2746893  -0.7326739
   0.1700670  -0.3952250  -0.1136081  -1.2512054  -1.3165899   0.1333189
   0.7341164  -1.1241886   0.4662832  -0.4517463   0.0605172  -0.2737251
  -0.4091715  -0.3321770  -0.1011430   0.6861257   0.2301407  -0.6828472
   0.6472279   0.0360992   0.1027378   0.1224393   0.7128333  -0.6363038
  -0.9414577  -0.7237087  -0.1915043   0.0016301  -0.1045339   0.1531917
  -1.8191159  -0.6684690   0.7108712   0.2916663  -0.6832630  -0.1550360
  -0.0125899   0.0768890   0.0699231  -1.8171894  -0.5830057   0.2504702
   0.8157149  -0.6142458  -0.6353830   0.0477621  -0.1720232   0.1927980
  -0.8932173  -0.6355822  -1.2205271   0.9192003  -0.6375335   0.6990224
   0.2357387   0.1343737   0.0338863   0.7589029  -1.1724088  -0.1048297
  -0.5864188  -0.4324874   0.4348695   0.0019151   0.2168116  -0.0594515
  -0.3270856  -0.5932838   0.7484370   0.5939008   0.5956188   0.1480324
  -0.1368314   0.1981860   0.1685304  -0.3819000   0.6441062   0.2172574
  -0.6544979   0.1329041  -0.4207617   0.0495953   0.0658898   0.3214469
  -0.2094527   1.0632158   0.5403028   0.5658951   1.0964696   0.9333701
  -0.2192425   0.0209840  -0.0647451  -0.7392038   1.0386264   0.1183944
   1.0051747  -0.1341340   0.4649721   0.0634361  -0.2387877  -0.0515526
  -1.1855906   0.1496705   1.4241510  -0.7589376   0.3570190  -1.0422618
  -0.1905197   0.0323596  -0.0237139   1.1869649   0.2096422   0.4388636
  -0.0886620  -1.0028182   0.3458109  -0.1191392   0.2758962   0.0862468
   2.2350350   0.1527325   0.8610433   0.5077264  -0.3575295  -0.1511561
   0.2280463  -0.1621950   0.0898373  -0.7656775   0.7311261  -0.8612289
  -0.7889219  -0.8119011  -1.2500897   0.2695989   0.2247656  -0.0380194
   0.9717981   0.6630234   0.0615126  -0.3217530   0.0720331  -0.5783812
  -0.1138804   0.2866215   0.0366205  -0.0059475   0.8279913   0.1633067
  -0.1433649   0.4849974  -0.5367814  -0.0095042  -0.1303388   0.1539472
   0.0800336   0.0041235  -0.7066167   0.4989355  -0.0246936   0.9354914
  -0.2268998   0.2190228  -0.1236398  -0.0800001   0.1200242   0.9035087
   0.1337328  -0.6597209   0.0557633   0.0057575   0.0950303   0.1362295
  -0.3372206   0.0843983   0.5546110   0.2873076   0.3755098   0.1279928
   0.4040330  -0.0240077   0.1353088   0.4544971   0.6070049  -0.2543690
   1.8928758   0.5818937   0.7430599  -0.1961111   0.1613848   0.1013821
   0.1764926   0.2716324   0.7430339  -0.6853082  -0.5850202   0.1966152
   0.0493185  -0.0524506  -0.1794518   0.8629590  -0.7826320  -0.2620753
  -0.9629270   0.3365144   0.5921483   0.5083587   0.0397498  -0.2397477
   0.2734761  -0.0088211  -0.3381505   0.9341029  -0.2005719  -0.6199068
  -0.0523618   0.1071868   0.1482365  -0.0297746   1.4765559  -0.1743563
   0.5866023   0.6783543   0.0252714  -0.0209374  -0.1289465  -0.2758195
   0.6115823   0.5267877   0.6340719  -0.2602929   0.0889333   0.0024991
   0.2643495   0.1276845  -0.2453924  -0.3585341  -0.9819133   0.2455326
  -0.2565586  -0.3095699  -1.8343526   0.0501288   0.0951029   0.0399160
   0.1446829   0.9390709  -0.9982022  -0.1435451  -0.0347805  -0.9278185
  -0.1293241  -0.0323892   0.2573180  -0.2796602   0.2896715  -1.0363300
  -0.7855816   0.4888774  -1.7645485  -0.5029963   0.3003432  -0.0200127
   1.3470906  -0.6189167  -0.0361724   0.2121930   0.6958437  -0.0807186
  -0.0059340  -0.2018352   0.1217220   1.0293478   0.9291303  -0.9188644
   0.5559613  -1.2581092   1.3231178  -0.0996133  -0.0637352   0.2494759
  -0.6006554   0.9289237   0.5506038   1.7680512  -0.8774887   1.4627007
   0.2996955  -0.1586568  -0.0587183   0.2738614   0.5378618  -1.7843696
   0.7978651  -0.1862600   0.9066108  -0.1554600   0.2272270   0.1638011
  -0.8505212  -0.5271005   0.5575835   0.9003885   0.2965236   1.3366079
   0.0237020   0.1624336   0.3672869   0.9339656   0.0863082   0.0967500
   0.0887029  -0.0132410  -0.1944881  -0.2294249   0.1146883  -0.0713206
  -1.1368413   0.3455150   0.0580318   0.2245180  -0.6996414  -0.2358861
  -0.1077148   0.1991912  -0.1182896   0.5848411   0.3932919  -0.0100450
   0.0017389   0.3427627  -0.2617561  -0.1498196  -0.1341306   0.1154129
   0.0229634   0.8568951  -0.6734464   0.2436015   0.0125013  -0.0693936
  -0.2465525   0.2323213  -0.1157818   0.1302762   0.2422833   1.9200029
   0.7626286  -0.6861499   0.3353201   0.2563939  -0.1061941   0.2358089
  -1.3816979  -0.6707089  -0.2240696   0.3998388   0.3939984  -0.1776327
   0.0109591   0.0556360  -0.0804455   0.9051313   0.6929776   0.4649563
   0.0234479  -0.5516398  -0.9919944   0.0303752  -0.0289901   0.1587727
  -0.9550825  -1.1432068   0.9655905   0.0142593  -0.5453362  -0.1108301
  -0.1520698  -0.0539451   0.2372988  -1.0352469  -0.5210807  -0.3794628
  -0.1362431  -1.1904245   1.4009671   0.1129847   0.0627708   0.1209925
   0.9760680  -0.2330852   0.4009352   0.3307003  -0.0888044  -1.2053901
  -0.0791920  -0.0825372   0.0211420  -0.3761495  -0.0126124   0.2293639
  -0.5348845  -1.2274604   0.4137185   0.1526060  -0.0973419  -0.2018940
  -0.9854484   0.9046062   0.2574372   0.2999405   0.8174695  -0.4255233
   0.1184247   0.0627179   0.0781998  -0.4179755   0.4771830   0.6807753
   0.3623747  -0.8619807  -0.5552178  -0.0593105  -0.2122133  -0.1139107
  -0.1395097  -0.7431103   0.4073881   1.2170416  -1.1140289  -1.2485524
  -0.0554083  -0.2543992   0.1351018   1.6307538  -0.7297928   0.6076046
  -0.1793008   0.1767503  -0.9607623   0.2395152   0.0313043  -0.1808908
   1.0934328  -0.1452829  -0.4438773   0.4260778  -0.2291461  -0.5170990
   0.1908358  -0.1807234  -0.0685844   0.6699873  -0.3514749  -1.1796426
   1.1267739  -0.9568067  -0.0203734  -0.1714613  -0.2389580   0.1523933
  -0.5367509   0.4398133   0.2932544  -0.7541551   0.4300517  -1.0502083
  -0.0083094  -0.0751986   0.0928332  -0.5112241   2.2283217  -1.3458495
   0.2086461   0.2292162   1.0158952   0.2747424   0.1096489  -0.4137514
   0.6263821  -0.0735929  -0.7619538   1.2202268  -0.5169257  -0.2147709
   0.3456265  -0.1322619   0.0031084  -0.1256391   0.1107514   0.4941202
  -0.0454421  -1.0258851  -0.1661136  -0.2797278   0.0644064   0.3513688
  -0.1554903   0.2406393  -0.3759309  -0.5120072   1.6310764   0.6614697
   0.0337188   0.1295069  -0.1079087  -0.8381449   1.9355091   0.2966129
  -0.1998965  -0.1428288   0.5507407   0.2583902   0.0601361   0.3735516
  -0.3043989   1.6718069   0.4780985  -0.2346430  -1.1921588   0.2042654
  -0.0338735   0.2578640  -0.3158668  -0.5997840   0.3656819  -0.2126646
  -1.5766090   1.0566321  -0.7025784   0.1580847   0.1378485   0.1982879
   1.0758502   0.4160852   0.3826926  -1.1080450   1.0225102   1.2709483
  -0.3668926  -0.2121946   0.1293162   0.2434059   0.6691618   0.4089101
   0.6058221   0.3337093  -0.9314319  -0.1351849  -0.0803156   0.0289134
  -0.2867711  -0.7929040   0.0096417   0.4863175   0.0201878  -1.3475841
   0.0692754  -0.1566912  -0.0295929  -0.0808170   1.2937405  -1.2714438
  -0.9581546  -1.6856595  -0.0998294  -0.0654618  -0.1742976  -0.1053184
   1.1938309   0.3334705  -0.9524290  -0.7325809   1.0437875   0.4739891
   0.3074708  -0.1654415   0.2377592   0.9720978  -0.6567917  -1.7133914
   1.2867539  -1.0986136   0.7839228   0.4928373  -0.2413850  -0.0647895
  -0.3863235  -1.1068517   0.1640844  -0.2878231  -0.6811048  -0.8219719
   0.0134713   0.3702530  -0.0092316   0.1134253  -1.0481915  -0.0127027
   1.6405344   0.0621066  -0.6449247   0.1680300   0.0686802  -0.2751866
   1.4812248  -0.2412118   0.3242706   0.2258715  -2.6930990  -0.6311231
   0.0772372  -0.1970762   0.0127520  -0.3440623   0.0078469  -0.8231663
  -0.5641260  -1.2331286  -0.8008322   0.0807263   0.0017859  -0.0077237
  -0.0301416  -0.9052622  -0.6405892   0.9818453  -1.0642356  -0.5217906
   0.2991734  -0.2820642   0.2086317  -0.6360124  -0.3882429   0.0853661
   1.2016906   0.3069939  -0.5841762  -0.0870597   0.0930754   0.1443134
   0.7586806   0.4218165   1.0350268  -0.7240498  -0.0983682   0.0887257
   0.2491536  -0.1486118   0.0335318   1.2347465  -1.1291350  -0.1998544
  -0.3367375  -1.1767879  -0.3372436  -0.2040949   0.0693873  -0.2121877
   0.4340692  -1.1332563   0.7949260  -0.1988666  -0.7005619   0.7608248
  -0.0929149   0.2539267   0.0630717   0.8824974   1.1800791  -0.8943323
   0.5662908  -0.7798500   0.0994666   0.0412296   0.2742900   0.1127902
  -0.1254128   0.6064806   1.2569433  -0.3981006   0.2656937   0.2969009
  -0.0686223   0.0311147   0.0603749   0.3180517   0.1396825  -0.9823880
   0.1245089   0.0676896   0.0645094  -0.4265873  -0.1325738  -0.0667986
   0.7172786   0.7801264   0.1643642  -0.2098028   0.6378589  -0.4838861
  -0.0152782   0.1775197   0.0741375   0.0922106  -0.8184021  -0.6321743
  -0.6754276  -0.2070513  -0.2847517   0.0173534   0.0098415   0.1929591
   0.2487040  -0.0739769  -0.3977200   0.3862042  -0.9971332  -0.7576924
  -0.0769256  -0.2075902  -0.0787108  -0.4766929  -0.5690705   1.0311087
   0.1304218   0.0301049  -0.9421270   0.1976130  -0.2962319   0.0973856
   0.3454085   0.9560065  -0.6234538  -0.0737738   0.5643542   0.5122917
   0.0499183   0.1532738   0.1261791   0.8040466  -0.3420229  -0.0725508
  -0.3866134   1.1187302   0.5839758  -0.3582014  -0.0542753  -0.0709371
  -1.8289473   1.0453779  -0.2773276   1.8520963   0.1266330  -0.4519520
   0.0603521   0.3754373   0.1696082   0.0890228   0.2713413   0.9974128
   0.4188803  -0.7835508  -1.2670395  -0.0766307   0.0214240  -0.0625549
  -0.5858496   0.1873743   1.0455273  -0.7405880   1.2701469   0.2566940
   0.2108211   0.0512645  -0.2996847  -0.7309847   0.4676365  -0.3241369
   0.6530289   0.9452700  -0.4404940   0.0899442   0.2444575  -0.1905993
   0.6776786   0.1158918  -1.3448230  -0.6126665   0.2549789   0.5543040
   0.0727319  -0.2445157  -0.0726601   0.5049963   0.2013104  -0.5783948
   0.8444967  -0.3501690   0.8446099  -0.0273777   0.1968429   0.0139556
   1.7799349  -1.6651479   0.3729414   1.0871014   0.0307929  -0.4614439
  -0.3130623   0.1170663  -0.1805306  -1.1354095  -0.1111682   0.2779703
  -0.8180809  -0.2348108   0.4827844   0.0712130  -0.0572205   0.1014128
  -0.2097016   0.0033765   0.2455179   0.8536870   0.6868460   0.5444845
  -0.0540718  -0.2457493  -0.1593401   1.5558478  -0.2348339   0.6764601
  -0.3454553   0.1906743  -0.3203223   0.1843652   0.1498760   0.0229684
  -0.1932638  -0.6224672   1.2968830   0.0024790   1.0604673   0.5668915
   0.2679691   0.0862922  -0.0369804   0.8291128  -0.8469043  -0.1565041
  -0.3393016  -0.5283778   0.2736670   0.4128032  -0.0155934  -0.2533661
   0.5731775   1.3715860  -0.1099443  -0.0209697   0.5598617  -0.8397079
  -0.0442979  -0.1076966   0.0804833  -0.1242135  -0.8105884   0.2974223
  -0.1850799  -0.4766744   0.4256010   0.2029407  -0.1445353   0.0695541
   1.7688638   0.3360276  -1.2165228  -0.8795832   0.8970164   0.3051515
   0.0177724  -0.3313618   0.1454395   0.3247424  -0.8408062   0.4231623
  -0.4323635  -0.4584898  -0.7041385   0.1111356   0.1969873  -0.1228292
  -0.1760131  -0.7884077   2.2446395   1.1898505   0.9225168   0.0220981
   0.0838647  -0.1073059   0.2463004  -0.6203529   0.0141931  -0.8474974
   0.2651148   0.7568102   0.2550783   0.0269575  -0.2639582   0.0029812
  -0.9139044  -0.4952396   1.4430768  -1.0621019  -0.9428227   0.3143242
   0.0975629   0.2307305   0.1416464  -1.2149293   0.6109805   0.0651985
  -0.2137093   0.0879645   0.3126910   0.4465582  -0.1637703   0.1046157
  -0.8041442  -0.7432476   0.8769915  -0.9527599  -0.1758990  -0.1472727
  -0.1247855  -0.1435264   0.3541799  -0.4680765   0.7639157   1.2138474
  -1.2782333   0.0366534   0.4971029  -0.1545934   0.1081469  -0.1059159
   0.9330869  -1.7538822   0.7050144  -0.6984731  -0.8865254  -0.2259847
  -0.2742933   0.3185569   0.2167432   0.0436447   1.6463055   0.1724286
  -0.1623406  -0.7570048  -1.3337143  -0.0353564   0.0943583   0.3497477
   1.1962411  -0.9958964  -0.5834500  -0.3974105  -0.8494021  -0.6472118
  -0.4491386   0.1425236  -0.0735644   0.1580971  -0.2660397   0.5458486
   0.8668154   0.5648280   0.3693403   0.2189343   0.0825944  -0.1507938
   0.8839620   0.9150392  -0.6922209  -0.7857691  -0.9503808  -0.9305071
   0.2246282   0.0879616  -0.2734323   0.5663354   0.1658774   0.3721647
  -0.6265157  -0.5349884   0.5663227  -0.0837646   0.2358570   0.2296882
  -0.1891617   0.5196421  -0.0161483  -0.4620337  -0.2733455  -0.2376145
  -0.1135737  -0.1163708   0.1630102  -0.8243937   0.7174450   0.7157802
  -0.4409582  -0.1985686  -0.1533455  -0.2404247   0.0140941   0.5020564
  -0.9658025  -0.3703238   1.3989526   0.0104781  -0.1257637   0.0799677
  -0.3649515   0.2018289   0.0313164   0.0289331  -0.0022031   0.0939304
   0.3457264   0.6517546   0.1545198  -0.1185800   0.2007219  -0.0529699
  -0.5681975  -0.2885132   1.0580528   2.1191618   0.4266960   0.6004385
   0.0504888  -0.1497502  -0.0988240   0.0065590   1.4219498  -0.5505899
  -1.1565319   0.0461614  -0.8839584  -0.1618348   0.2558315   0.1297249
   0.0632230   0.8492709  -0.3497860  -0.5053656  -0.6921748  -0.7551417
   0.3211571   0.1593883  -0.0876145  -0.4537268  -0.1579667   0.5382039
  -0.0013423  -0.7117898   0.3128382   0.1570543  -0.1800829   0.0989263
  -1.4918929   0.7695879   0.2116569   0.6056469   0.3968478   0.0820832
  -0.1113388  -0.2332502   0.1080124  -0.7062040  -0.8941495  -0.6469572
  -0.2549499  -0.3183181   0.4691356  -0.0048209   0.0684313   0.0350166
   0.0846779  -0.1856618   1.1807965   0.2170968  -0.1719590  -0.1237027
   0.2614724   0.2320139  -0.4497291  -0.0643065   0.1008163   0.2226546
  -1.2188496  -0.7274931   0.5111769  -0.0199288   0.1024678   0.1265110
   0.6199035   0.7237769   0.5021980   0.3150695  -1.0312573   0.2258980
  -0.2818909   0.1611744   0.0001659  -0.5489808  -0.5689588   0.2523432
   0.7935575   0.7462441   2.0612655  -0.0566194  -0.3972770   0.0752006
   0.1070182   0.4009558  -1.7809813   0.3784705  -0.1856394   0.6199523
  -0.3798837   0.0091128   0.3111292   0.3830485   0.5971851  -0.2471081
   0.5981863  -0.3551665  -0.2250402  -0.0491813  -0.4149454   0.1061744
  -0.4315114   0.0211220   0.3883902   1.0914023  -0.8192656  -0.1939625
   0.1290346  -0.2376048  -0.4043906   0.4685462  -1.7021474   1.2587287
   0.7722915   0.0401646   1.1267561   0.0323999  -0.1810493  -0.1127925
   0.2645853  -0.5101584   0.9135953   1.5960453   0.2948157   0.7333906
   0.1179464   0.0337092  -0.0252596   1.2268200  -0.1445070   0.7710876
  -0.4927620  -0.0765420   0.6578843  -0.1460399   0.1393012  -0.4208141
  -0.8710939  -0.3509892  -0.8452163   0.0460314  -0.0187770   1.5185879
  -0.3522172   0.4199404  -0.0709512   0.4957863  -0.4557095   0.3923842
   0.4419818   0.2441477  -0.1996406  -0.2221443   0.2217010  -0.0027057
   0.9830260  -0.7971236  -0.1619937  -0.8060952   0.1221297  -0.8982798
   0.0004495  -0.5105473   0.0261381   1.0504718  -0.4040236  -0.3796765
  -0.6218742   0.4108229   0.7182490  -0.3849567  -0.3055024  -0.0149924
   0.6261822  -0.8132657   0.4189264   0.0164942   0.7538034  -0.6526999
   0.2892126   0.1917914   0.0247020   0.5047585   0.4544969   0.4916590
   1.5622232   0.0709158   1.2341872   0.0341321   0.1987188  -0.1161384
   0.2946805   0.5034137   0.0356933   0.9493214   0.4505499  -1.3764882
   0.2331590   0.1226535   0.1053152   0.0356378   0.7510484   0.0960397
  -0.8584526   0.3440063   1.6372475  -0.2943415   0.1392286   0.1225626
   0.3598455  -0.1133060   0.6730612   0.6868852   0.2264843   0.8329784
  -0.0344438   0.1687259  -0.2481189  -0.7046842   0.7258815  -0.5404310
  -0.0892831   0.0306925  -0.3701611  -0.0683382  -0.0083678  -0.1314488
   0.1506058   0.1457877   0.0863863   0.8595413  -0.5587129   0.1565871
  -0.1873279  -0.3034004   0.0652372  -0.3764925   0.3652057   0.1845413
  -0.2610056  -0.3236352  -0.2820820  -0.1277668  -0.1878043   0.0799250
   0.0902787  -0.4043178   0.9192684  -0.1125375  -0.1462978  -0.9716924
   0.2886388  -0.3630627  -0.2390348   1.2031627  -0.1642809  -1.7220961
   0.0230707   0.0087552   0.4038850   0.1791896   0.0788166   0.2682890
   0.7061694  -0.3971455  -0.0618124  -1.1201739  -0.5899014   0.1562063
   0.1459953  -0.3042140   0.0378669   0.1523327   0.9209466  -0.3172486
  -0.9496516   0.4940509   0.3267368   0.0073007   0.0589541  -0.1287991
  -0.8355340  -1.0577397   1.0149715   0.3167300  -0.3999236   0.1612280
  -0.1949733   0.2013566   0.2097163  -0.5893443  -0.7310026  -0.0476241
  -0.2068023  -0.2088533  -0.3903371   0.1561320   0.1303342   0.2147350
  -0.5736051  -0.4452652  -0.7416419   0.0027493   0.4443710  -1.2416312
  -0.2530055  -0.2958233   0.2558127   0.3562494   0.1842032   1.1314982
  -0.6561730   0.4791223   2.4056042  -0.0343543   0.0672741  -0.0809604
   0.2556273   0.1503029  -0.5609501   0.0357653  -0.6521520  -0.1832269
   0.0977837   0.1239854   0.3750620  -0.3657376  -0.8722634  -0.5833166
  -1.0643818   0.8591121   0.3890989   0.5448013   0.0652515   0.0955987
  -0.3470398   0.7931484   0.4288886  -0.0850200  -0.6626670   0.2191243
  -0.1175700   0.3921554  -0.3524949   1.4950939   1.2481099   0.3017665
   1.2427489  -0.2904129   0.0435777   0.0126085  -0.1082612  -0.2848894
  -0.9112691  -0.0102640   1.2774362   0.1806051   0.8665303   0.4594646
   0.0611797  -0.3057639  -0.0335263  -0.5961326  -1.1926021   0.1051496
  -0.8592945   0.0830046   0.2601903   0.1908290  -0.0967805  -0.2150197
  -0.1182945  -0.7300182   0.6559308  -0.8802088   1.4457946   0.5618581
  -0.1622634   0.0152255  -0.2172230  -1.2702348  -0.3733862   0.8017234
   0.3852880   1.1331426  -0.3750332   0.1924898  -0.4644491  -0.0102700
   0.9266983  -0.8175862  -0.3921821  -1.5461557  -1.0640665  -0.4477518
  -0.0060230  -0.0465715   0.0850068  -0.7461744   0.4848392   0.2049196
   0.1458612   0.7240384   0.9938777   0.2273012   0.2297302  -0.0369003
  -0.0828674   0.0145532  -0.2199117  -1.1199512   0.2426294  -1.5742339
   0.0331379   0.3241665  -0.1729074  -1.0324853  -0.6622306  -0.8879911
  -0.3943784  -0.8789400   0.6668855   0.0740180   0.0520458   0.0219425
   1.4143982  -0.0956622   0.6295267  -1.5206144   0.3965011   0.5431783
   0.2395456  -0.5298525   0.3829967   0.1599659   0.3345160   0.7108502
   0.2366722   0.9937450   1.5852387   0.0936876  -0.1588819   0.4218760
   0.5332948  -0.9990055  -0.7067705  -0.5619178  -0.2167238   0.6102194
  -0.0516880   0.0673260  -0.1739882  -1.5116109   0.1811541   0.1525192
   0.2765450   0.4974877   0.1563761   0.0758373  -0.1360916  -0.1469755
  -0.6748560  -0.1899138   0.3384312   0.5137008  -0.3839037  -0.8453008
  -0.1182089   0.1604035   0.2572437   0.2745289  -0.4287260   0.4966409
   0.7260407   0.6510029   0.4628808  -0.2293670   0.0411084   0.1953164
  -0.3224733   0.8720428   0.1632747  -0.3955792   0.7892632  -1.9973117
  -0.0457343  -0.2934549  -0.1245326   0.6389560  -0.5378117  -1.5381784
   0.0705848  -0.6155266   1.1463320   0.0109850   0.1650050   0.0591356
   0.8598312   0.8130425  -0.0277984  -0.6690253  -0.1412597  -0.2375835
   0.3573275   0.0530743  -0.0267318  -0.5019842  -0.1046795  -0.9092940
  -0.3005339   0.0516519  -1.0676459  -0.0450564  -0.0923332  -0.1459225
  -0.9381509  -0.5602314  -1.4940113   0.6172239  -1.6676971  -0.4665866
  -0.0792165   0.0545120   0.0871458  -0.5262216  -0.1472494  -0.0745427
   1.3797795   1.0908570  -1.5514068  -0.2073744   0.1965888   0.1862286
  -0.7820867   0.5608818  -0.7190007   0.9720790   0.8021341   0.6932282
   0.0620709  -0.2431966  -0.1164997  -0.0000959   0.3414368   0.7303139
  -0.7862266   0.3910572  -0.5435091  -0.5083467   0.2203946   0.0424388
   1.1842497   1.0339906   1.0927966   0.4022077  -0.7441944  -0.5517724
   0.0086607  -0.1239818   0.0767667  -0.5344436   0.8493714  -1.3190123
   1.9538295  -0.8042038   0.4857299  -0.0463695   0.1492584   0.1444360
  -1.2729758   0.4094203  -0.4135232   0.7266586   0.7169556   0.3478126
   0.1674641  -0.1583518  -0.1248079  -0.4873498   0.3230531  -0.3167215
   0.5529283   0.0962313   0.5756733   0.2625683  -0.0045845  -0.0527453
  -0.2917957  -1.5170102   1.6991745   0.9481303  -0.1358995   0.5788165
  -0.3629742   0.1806214   0.1597886   0.5941002  -0.3368788  -0.9692358
   1.2415605   0.4390250  -0.2575549  -0.3059129  -0.2677110  -0.1443007
   0.8549028   0.2408277  -0.7798285  -0.9375951  -0.3226573  -0.6142593
   0.1272150   0.3307276  -0.0284030   0.5257464  -0.2387781   1.1752195
  -0.1840044  -0.4740897  -0.3358385   0.2090012  -0.0525279   0.1361606
  -0.1341487  -0.1667861  -0.3036735   0.7569674   0.2076577   0.2673799
   0.0992646   0.0598766   0.1987348  -0.2710016  -0.1448225  -1.1777561
   1.6815054   0.8715709   0.7250212  -0.0828611   0.1853366   0.1245443
   0.3427419  -0.9104396   1.0744743   1.1354197   0.3298300   0.5805021
   0.0911695  -0.0174620  -0.0902294   1.0669456  -0.1499966   0.2949067
   2.2078709   1.4370815   0.5279924  -0.1099412   0.0325036   0.3747998
   0.4422085   0.5488503  -0.1384361  -0.9740134   0.8882483   0.8242519
  -0.1133687   0.1305785  -0.1647666  -1.3107677   0.4937315   0.0129559
   1.1791946   1.4999535   0.3486805  -0.0664787  -0.1752600   0.1063129
  -0.4799311   0.3685594  -0.1743085   0.5218824  -0.2418173  -1.0835654
  -0.1300306   0.0918228   0.3165301   0.6375731  -1.7346421  -0.6170227
   0.6955814   0.0924396  -1.2737064  -0.2157734   0.0619478   0.0457853
  -0.4915491   1.0524692  -0.0160693   1.0888426   1.1671345   0.3210663
  -0.1149333  -0.3370345  -0.0100855   0.4060279   1.4596060   0.2711357
  -0.7115366  -0.7496924   0.5436836   0.0644542  -0.1682975  -0.0076691
   0.2213606  -0.7417559   0.0913289  -0.6539439  -0.7290722  -1.1948723
   0.1848335   0.2402393   0.0392902  -0.1774778   0.1335306  -1.0973568
   1.0362002   0.7549467   0.0865412  -0.4967161   0.0130443   0.2080733
  -0.5487765  -0.5395549  -0.9058650   0.5141019   0.9017086  -0.5018766
   0.0375595  -0.0060412  -0.3014625  -0.0406412  -0.3203881  -0.1881358
  -0.8829812   0.0495864  -0.2980520  -0.1529466  -0.0112664   0.0243231
  -1.0925602  -1.4243950  -1.3810622  -0.7540462   0.3752524   1.1240135
  -0.0002691  -0.0026542  -0.3527644   0.1880207   0.0490075   1.6789632
  -0.6687966   1.2796208  -0.2072276   0.1855551  -0.0851518  -0.1090550
   0.9188926  -0.7015383   1.1864596  -1.1272289   0.2873378   0.4900290
   0.0914020   0.0302222   0.1892632  -1.3187993  -0.5371099   0.3057524
  -0.4839349   0.2046559  -0.6645278   0.2989313   0.0947520   0.1629615
  -0.7608242   0.2710894  -0.1052574   0.3668345  -0.1299153   0.5855417
  -0.1519770  -0.2210923  -0.3056734  -0.7219309  -0.6669952  -0.0121894
  -1.2280308  -0.4403628  -0.1297001  -0.2258918   0.1346350  -0.1313481
   0.2626319  -1.5804146   0.9505403   0.4121749  -0.1864559   1.2638076
  -0.3298377  -0.2639375   0.2726373   0.4365287   0.5749101  -0.4621922
   0.2261216   0.7032920  -0.2239105  -0.1576855   0.1149224  -0.1295416
  -0.1467713   1.0608918  -0.9209851   0.8227085  -0.3050353   1.3813697
  -0.0589179  -0.1392723   0.0455488   1.1381631   0.5178969  -0.3306875
  -0.3948935   0.2417386   1.4175882  -0.1118307  -0.1371436  -0.2051707
  -2.0764174  -0.2968415  -1.4701151  -0.8666552   0.4330889  -0.2606249
  -0.0886424  -0.0384311   0.0574126   0.1096753  -0.8540654   0.5219601
  -0.8071469  -0.5550040  -0.5334594  -0.2764243   0.1024737   0.1265473
   1.5660320   0.1562249   0.1692767   0.5552839   0.7584832  -0.6887176
   0.0515111  -0.1374595   0.0600002   0.6369854   0.4386734  -0.3325647
  -0.4866859   0.4978811   0.5038217   0.0168066  -0.1436304  -0.1901732
   0.8150903  -0.1959812  -0.1056564   0.0991915  -0.4828218   0.8232153
   0.1777493   0.1686620  -0.0619895  -1.0835363  -0.7340224  -1.3933664
  -0.7274728   0.0315875   0.6280316  -0.0002573  -0.2247887  -0.3812158
  -1.4312862  -0.0398143   1.8383218   0.4188923  -0.2937342   0.4624889
  -0.1375197   0.2807957   0.2950800  -0.0086782  -0.0362418  -0.8504998
  -1.4105532   1.0924380  -0.1155405  -0.0555228   0.1328355  -0.3678421
  -0.1994873  -0.5461823   0.2669843  -0.9427627  -0.2520027   0.7662348
   0.2288096  -0.0583942   0.2707344  -0.4069614  -0.6818993   0.3716434
   0.7458198   0.8650871   0.0434448   0.0982257   0.1539871  -0.1018907
   0.1377282   0.3180786   0.7044192   1.4474224  -0.0442163   0.3145737
  -0.0497626   0.0875088   0.1794728  -0.3284278  -0.6495026  -0.0968235
   0.9507923   1.3412224  -0.8845795  -0.1360348   0.0666918   0.2636388
  -1.9066748  -0.1232309   0.0783885   0.6404130  -0.6731600  -0.4704132
   0.0963640   0.0991710   0.0887041   0.9392123  -0.5782054  -0.5716295
  -1.2775186   0.1113097  -0.4116127   0.2373439   0.2567953   0.2291542
   0.3440671   0.5504299   0.6694798   0.1181000   0.0908210  -0.1656327
  -0.1059835   0.0425968  -0.1277812   0.6704251   0.2704657   0.4541950
   0.0426889  -1.5103136   1.2945986   0.0444871   0.1051758   0.2051741
  -0.5663935  -0.5440175   0.2198654   0.2652557  -0.4748752   0.5261236
  -0.1303549  -0.0307595  -0.0327906   0.1541150   0.2940490  -0.3410054
   0.8385423  -0.4706707  -1.0511683  -0.0459694  -0.3084178  -0.1175757
  -1.0506128   1.0759045  -1.1143214  -0.8828586   0.4111720   0.8533454
   0.0581943   0.0743481  -0.1547760  -0.2192343  -0.5835915  -0.2775193
  -0.0238875  -0.6627847  -0.1703489   0.0085052   0.0109079   0.2368041
   0.7840789   0.0316593   0.6401288   1.3840567  -1.1493047   0.2646806
  -0.3436860  -0.2758959  -0.0135523  -0.1114711   0.8668831   0.0786579
  -0.7692655   1.5062843   1.2006926   0.0212495  -0.0422115  -0.1246201
   0.1506066  -0.0960916   1.2895184   1.7949852   0.5058905   0.6429970
   0.1266367  -0.2327247  -0.0798888  -0.6960542  -0.1844785  -1.2771704
   0.3144340  -0.4839450   0.7485438  -0.0442202   0.0126647   0.0819640
   0.6152939   1.1737163  -0.7836099   0.2703193  -0.6356129   0.5583008
   0.1480676  -0.1638092  -0.4137344   0.0678505  -0.5403258   0.1588334
   1.0860050   0.9793605  -1.4822725  -0.4035116   0.1617089   0.2655878
  -0.4495723  -1.5578518   0.8394340  -0.8109230  -0.3048237   0.5828838
  -0.1968150   0.1083331  -0.2527220  -1.2907247   0.8853554   0.4238099
  -0.0833312  -1.6498504  -0.1462692   0.3652981  -0.1321327   0.0003218
   0.7905231   0.0735471  -0.0954304  -0.4275603   0.0170108  -1.2056344
  -0.0097826  -0.0073596  -0.1302792   0.2152020  -0.0616721  -0.9587986
   0.1880627  -0.0349692  -1.3282379  -0.3410067  -0.1670282  -0.0689849
  -0.0366874   0.7281279  -0.2319647  -0.0312711   0.0877720   0.5431647
  -0.0758819   0.1942407  -0.2875346  -2.4811998   0.2475928   0.2868873
  -0.4173806   0.7141497   0.8274687  -0.2411845  -0.0562658  -0.0923799
  -0.1466203  -0.4552098   0.0785185  -0.8072303   0.4839684   0.1767096
   0.2565490   0.0454710  -0.0714500   0.5178282  -0.7766607   0.2913855
   0.8246785   0.4140941  -0.6663855  -0.0534860   0.2373732  -0.0811981
  -0.6078619   0.3391897   2.1430541   0.4268134  -0.7391139  -0.8662701
  -0.0333982   0.3558696  -0.3379564   0.4365990   0.4135814  -1.1535098
  -0.6408707   0.1521707   1.2059733   0.0958813  -0.0167446   0.4507036
  -0.3348778  -0.0970070  -1.2562421  -0.7642678   0.0835019   0.3995312
   0.1028345  -0.1308923  -0.0047907  -0.8066893   0.8622522   0.1191974
   1.3533508   0.5790433  -0.3286994  -0.0106779  -0.1527662   0.2032037
   0.4004972  -1.0198523  -0.6616182   0.1857592  -0.2858808   0.3594982
   0.0235480   0.1679677  -0.0216636  -0.5500730  -0.0771302   0.9657017
   0.1836620  -0.9323221  -0.6020907   0.2733089   0.4404017  -0.0246016
   0.5019548  -0.5553938  -0.2572539  -0.2980577  -0.2991696  -0.3139846
  -0.2268113   0.1147394   0.0449809   2.0208193   1.1837915   0.1873874
  -0.9342312   0.8328416   0.3010639   0.0772779   0.4069394  -0.0662457
  -0.1551912  -0.6349418   0.8925064   0.0496614   0.5787653   0.7655367
   0.1098174   0.1189927   0.0787742   0.5961766   0.4177000   0.9366182
   0.1436516   1.9041059   0.5736982   0.1958469   0.1722366   0.0692937
   0.6155690   0.4909755  -0.7619119  -0.5490394   0.0401559   0.1171968
  -0.1433099   0.2382152   0.0260374   0.3765385   0.1130516  -0.9229758
   0.3659695   1.0646732  -0.7658085   0.0329600   0.1866299   0.0041067
  -0.0929782  -1.4971999  -0.3939970   1.4605581  -0.2466944  -0.9546919
   0.0216328   0.0517582   0.0450375   0.7234606   0.6490561   0.4314327
   0.5451053  -0.4297598   0.8978905  -0.2589604  -0.3098887  -0.4343449
  -1.4252576   1.0753905  -0.0388791  -0.6219711  -0.2420625   1.7076458
   0.2458188  -0.0833753  -0.1439745   0.9166262  -1.3808177  -0.8973145
  -0.8173206  -1.0129139   0.2450981  -0.0370142  -0.1491317  -0.0849733
  -0.7651704  -0.6609750  -0.1539594   0.8470035   0.9342114  -1.4648668
   0.2916227   0.0352861   0.0435051  -0.3519655  -0.9242211  -0.0780886
  -1.1700377  -0.2852385  -0.1438228  -0.1845911  -0.3564344  -0.0304817
   0.9473050  -0.2471617  -0.1365660   0.2925362   0.7351963   0.0835698
   0.1679741  -0.0672256   0.1558720  -0.3177113  -0.8829529  -0.2729360
  -1.8732231  -1.9078710   1.0143239  -0.1366356   0.0497496   0.0596544
   0.0558200  -0.9071982  -0.1488062   0.1839038   0.8284109   0.3092525
   0.0644781   0.2139450   0.0112854  -1.6390821   0.6304839   1.1762526
   1.5083725  -0.5287129   0.3164852   0.0690090   0.0839154  -0.0965986
  -0.5250883  -0.7003644   0.9681226   0.0407001   0.7445735   0.0419806
  -0.0536908   0.1049712   0.0508754  -0.7771871  -1.6486973   0.0437569
  -0.4508886  -0.2949810   0.0183979   0.2643979   0.0316005  -0.0428838
   0.0089995   0.3389081   0.8211250  -1.0930909  -0.4810096  -0.0427286
  -0.0364636   0.0527791   0.2371245  -0.6107998  -0.1581294  -0.3958062
  -0.0586913   0.5250101   1.2472663  -0.1063351   0.0069542   0.1132494
   0.5315203   0.7062925  -0.1381271   0.0912607  -0.1148240   0.0159005
   0.0412711   0.2026546   0.3556395   0.3548441  -1.0255807   0.0884679
   0.9735012  -0.0055941  -1.0755498   0.0680436  -0.0429704   0.1240736
  -0.6158004   0.0712293  -2.4321538  -0.4999415   0.5181665   1.1216835
  -0.4103511  -0.1934075   0.0781159  -0.6035781   0.5550349  -1.0132532
   1.0514467   0.2452343   0.4304291  -0.0926399   0.0335928  -0.2593143
  -0.8724640   0.3782305   0.1148762   0.6696350   1.1150406  -1.7733103
   0.3689860  -0.1777114  -0.0779939  -0.0724164   0.7006280   1.0736408
   0.3742868   0.4236397  -0.5425660  -0.1406727  -0.0632479  -0.1302368
  -0.6434270  -0.4659684  -0.5631192   0.6437532   0.7078782  -0.1225855
   0.0286278  -0.0211420   0.2659097  -0.5938704  -0.0240160  -0.2936608
   0.1055106  -0.8666706   1.2233398   0.1263794   0.3697443  -0.1642525
  -0.7642566   1.1369104  -0.7074880  -0.7101271   0.8530318   0.9088161
   0.2774946  -0.2232799  -0.1046801   0.9893744  -0.3531538   0.8127884
  -0.1104251  -0.2559865  -0.4399214   0.0626721  -0.2789920   0.0114511
   1.2794463  -0.0373204  -0.8522231   1.1200377   0.2142342  -0.1568305
  -0.1258459   0.2225393   0.3064319  -0.3942030  -0.7982921   0.4714682
   1.1106769   0.1985788  -0.4122394  -0.1851896  -0.1229555   0.0468052
  -0.1470912   0.0424977   0.7907829  -0.0947070  -0.0735029   0.0780973
   0.1278652  -0.1908995  -0.2181954  -0.2858399   0.0270822  -0.1210218
  -0.8380679  -0.3920782   1.2958497  -0.0082618  -0.0613181  -0.0098470
   0.1137025  -0.8368170  -0.1441370  -0.4027731   0.1235007   0.1906097
  -0.1824553  -0.0740266   0.2809769  -0.4518554   0.1179273   0.0490817
   0.6992721  -0.1486596   0.2198587  -0.1272689  -0.1545569  -0.0749289
   0.4311555  -0.2095610  -0.3965362   0.5944876   0.7429962   1.6048930
   0.2406393  -0.0310858  -0.2986895  -0.1968718  -2.2118418  -0.8786533
   0.8303616   1.0736888  -1.1172470   0.0456337   0.0958367  -0.1340817
  -0.3850724   0.0873900   0.1147618  -0.0748950   0.5551377  -0.2820311
  -0.1552619  -0.1905280  -0.0391572  -1.4120107   0.3314888   0.3006373
   0.6280368   0.0467738  -1.1206611   0.1093041  -0.0001003  -0.1859193
   0.0374219  -0.5881767   0.4504751   0.6599795   0.9144419   0.7064470
  -0.0945748  -0.0360013   0.1568738   0.6241055   0.7575422   0.6267690
   2.1476057   0.2526310   0.7008231   0.2183741   0.2948209   0.0377257
  -0.5919368  -0.7785548   0.3951172   0.2599394   1.5555763  -0.6711707
  -0.0653084   0.2150032  -0.1221373   0.1254082  -0.4099502  -0.5342756
  -0.0879125   0.4762572   0.7628177   0.0944930   0.0983710   0.1407644
  -0.0398949   0.6020077  -0.1842310   1.0488342   0.5621978   0.9689983
  -0.1649886   0.3445923  -0.0290823   0.9033810  -0.1066692  -1.0394528
  -0.3757979  -1.6648411  -0.0790428   0.2099991  -0.1939608   0.2302626
  -0.5533713  -0.3239747   1.3827733  -0.8527486  -0.3622672  -1.1771056
   0.2627988  -0.1445607   0.1677508   0.0147946   0.5942744  -0.1722151
   1.0680762   0.2038251  -0.1380176   0.0308538   0.1558055   0.1518359
   0.5453169  -0.7793682  -0.0567678  -0.1010170   0.6979583   1.2435505
   0.1211955  -0.0675378   0.2521444  -0.1664241  -0.4742500   0.6797803
   0.8982280   0.0948970   0.1887455  -0.1337526   0.0289641   0.0738456
   0.2113278  -0.4114016   0.4424520  -1.0404020  -0.7505206  -0.0102471
  -0.0854390  -0.1849204  -0.0049293   0.6611964  -1.7754052   1.4672635
  -0.9570243   0.1979715   1.7373267  -0.0009698   0.0424414   0.1506685
  -0.3280450   0.5759495   0.8734679  -0.3621736  -0.4679780   0.8493430
   0.1038610  -0.3727415   0.0887662   0.2518591  -1.0590846  -0.2576274
  -0.4190575  -0.1204680   1.8639483  -0.1752717  -0.3058520   0.1485509
  -1.3445126  -0.0475692  -0.0600794   0.2931682   0.6574277  -0.3646133
  -0.0911134   0.0394941   0.1572142  -1.3019842  -0.1075398   0.1916773
  -0.0188787   0.2276403   0.3007574   0.1040776  -0.1470854  -0.0917324
   0.1474727  -0.2623766  -0.5150069   0.1132185  -0.0094037  -2.2918338
   0.1358947  -0.0049030  -0.1820174  -0.6507827  -0.0578921   0.9941179
  -0.9649363   0.4099461  -0.8205378  -0.1974632  -0.1643479  -0.0358136
   0.6026125  -2.0669238  -0.4783497   0.0438602   0.9555799   0.4374401
   0.0064360  -0.2459694   0.1518128  -0.3162016  -1.0732529  -0.2594008
  -0.4878912  -0.6087344   0.4275669   0.1259189   0.1191332  -0.3781596
   0.1052187  -0.8718783   0.2408697  -0.3934617   1.0100010  -0.5683357
  -0.0869207  -0.3192151  -0.1460774  -0.2920262   0.2408685   0.1105827
  -0.9291685  -0.3013697  -0.5061724  -0.1821756   0.2971562   0.2035504
   0.2334379   0.4767756   0.5513536   0.1622315  -1.6815071  -0.2705392
  -0.1296668   0.0201390   0.0974207  -0.2275777   1.3444373  -0.6716174
   0.5563385   1.1554270  -0.9637612  -0.1489034  -0.2041482   0.1305777
  -0.3769395   0.6504598  -0.4405261   1.0088216  -0.8180239   1.0373476
  -0.1351745  -0.2546288  -0.4120894   0.9824045   0.3439846  -0.3619055
   0.3267559   0.2760849   1.5188715   0.0889487  -0.3043445   0.1143817
   0.3533678  -0.6490913  -0.4461423   0.5491432   0.1024319  -0.5609665
   0.3144881   0.0969761  -0.0066214  -0.4658608  -1.2986676   0.2073506
   0.5533738  -0.0356587  -1.2512871  -0.0535137   0.1154591   0.0493841
   0.8485622  -0.9926908  -0.1669367   1.5755539  -1.6937968  -0.4122982
   0.0607442  -0.0406267  -0.0933956  -0.3916551  -0.2716740  -0.7653415
  -0.0662874  -0.5609888  -0.5437643  -0.1825361   0.1623589  -0.1468583
   0.5695988   0.0138369   0.2762261  -0.3634138   0.2836743   0.0686037
   0.2632248  -0.0545224  -0.1854864   0.3582840   0.6699369  -0.7015914
   0.7554118   0.0126612  -2.1057275   0.2574722   0.0647263   0.2178122
  -0.1375421  -1.0316128   0.1179346   0.6589192   0.4560175   0.3509587
   0.0338913   0.0658964  -0.0176319   0.0880149   0.2106364   1.8885368
   1.0807582   0.2060242  -0.6644174   0.4202253  -0.1611495   0.0956933
   0.9032284   1.2436485   0.5889127   0.0912096  -1.2432417  -0.2315948
  -0.1798968  -0.1763215  -0.0778401   0.3882351  -0.1182466  -0.6813477
   0.3186432   0.5984457  -0.5313810   0.1399369  -0.3890936  -0.0992263
   0.6244832   0.7568505  -0.3098369  -0.2716414   0.1155246   1.0778214
  -0.0380841   0.3463349  -0.0250804  -0.8261249   0.2255687  -0.3967221
   1.8417859  -1.5502055   0.7793557  -0.1917460  -0.2959195  -0.2608368
   1.3697451  -0.4375727   0.5311945   0.9119678   0.8873161   1.8485288
  -0.1176361  -0.2481742   0.0834648   0.5659111  -1.1218546   0.6071563
  -0.9319009   0.1331852  -0.0607959   0.2753764  -0.0995073   0.0729549
  -1.4287671  -0.8065340   0.2330929  -0.6996322  -1.2695106   0.0719503
  -0.1091618   0.0007023  -0.1098186  -0.1258373  -0.6707265   1.4716055
   0.5914893  -0.7365414   0.6944943   0.1837650   0.2469381   0.0468239
   0.2367709  -0.8345912   0.3567955  -0.3856936   0.3593349   0.1897241
  -0.0997171  -0.0620774   0.2625607   0.1334183   0.1032086  -0.3045788
  -1.6319648   0.6651571  -0.1343074   0.4513811  -0.2368612   0.2376522
   0.0557517  -1.3639307  -1.5453803  -1.8187470  -0.9097280   0.2612885
  -0.0246817   0.2690014   0.0512722   0.5382784  -1.4994210  -0.0364511
   0.6081292   0.1432617  -0.3677995   0.1328118   0.1671957  -0.2687269
   0.4723340   0.1498870  -0.1897901  -0.9976044  -0.1010365  -0.7623697
   0.0665860   0.0495415  -0.0726047   0.6568446  -0.6992726   0.7161931
   1.2288380  -0.1003985   0.6469271  -0.3300561  -0.1221595   0.0516943
  -0.2960982  -0.4689486  -0.1701594   0.2723178   0.4368468   0.1652987
  -0.0750729  -0.0579986  -0.1259541   0.1903072  -0.6189114  -0.6326039
   0.5039357   0.6727777  -0.7056922  -0.0713671   0.1371210  -0.3826745
   0.4565622  -0.0688921   0.6835806   0.3667816   1.0301765   1.3383436
   0.2870785  -0.0394871  -0.2895072  -0.0888470   0.7090957   1.1767800
  -0.7660338   0.3688290   1.2099003  -0.1059599   0.1189329   0.2215255
   0.8958483   0.0715630  -0.2885675  -0.1023758   1.4389029   0.2678659
   0.0106498  -0.2683363  -0.3569640  -0.7433737   0.1902724  -0.3636483
  -0.8549900   0.7254115  -0.1585551  -0.2684940   0.0430783  -0.0987268
   0.5086688   1.1552231  -0.2608050   0.9222834  -1.1087696  -0.4174035
  -0.2861728   0.1499247   0.0597924  -0.7515958   0.6073380   0.4785809
   0.6087325   0.4569194   0.6140365  -0.0657788   0.0528620  -0.3292935
   0.5154731  -1.8126480  -0.4326042  -0.6758701   1.4924296  -0.8639051
  -0.1038243   0.1100872  -0.0221035  -0.4231310   0.5302111  -0.7389715
   0.4541834   1.2256750   0.5786098  -0.2952921   0.1535267   0.0531579
   0.7704090   1.0821532  -0.6010649   1.3558379   0.1041341  -0.0213432
   0.0832089  -0.0164725  -0.2954537  -0.1426226  -1.1408569  -0.2461381
  -0.1243327  -2.6449134  -0.0427934  -0.2837613  -0.0402440  -0.0466757
   0.7877602  -0.7111996   0.6344600  -0.7267706  -0.2877216  -0.1161608
   0.2692287   0.2699489  -0.4446048  -0.4195098  -0.6631774   0.1750855
  -0.0559589  -0.1875504  -0.0425518   0.0198474  -0.0299624  -0.0591647
   1.4244794   0.1494861  -0.2866935   0.3748719  -1.4656500  -0.3611738
  -0.1319941   0.0548632  -0.1384340  -0.3698582  -0.0901597   0.2731963
  -0.0948447  -1.4004735  -1.2337122   0.0996434  -0.0764320   0.1931243
   0.2189971  -0.6239098  -0.6375791   0.2522123  -1.5744069   1.3821138
  -0.1987530  -0.4752694  -0.2071656  -0.0265748  -0.7375974   0.3739789
   0.9924791   0.5256184  -0.9263328   0.2305666   0.0618955   0.0924106
   1.1959542   0.9065230  -0.6508120  -0.4026096   0.8722187  -0.4834581
  -0.1037319  -0.1822853   0.1976842  -1.1437914  -0.7452874  -0.3274751
   0.0472340   0.9188965  -0.5246433   0.0310597   0.1237149  -0.3090088
  -0.5834434  -0.2071077   1.4493390  -0.8335008   0.9262514   0.8656554
   0.0222430   0.0500130   0.0246861   0.4338786   0.5747185   0.3680810
   1.1022069   0.4026392   0.5167734  -0.1269894   0.1205427  -0.0597853
   0.7212244   0.3747257  -0.4821479   1.4257106  -0.0881568  -0.1762050
   0.2223810   0.0562742   0.3325922  -0.4184803   0.9479903   0.8330994
  -0.6879757   0.7641871   1.7721799  -0.1285036  -0.0261029  -0.1438402
  -0.0204384  -1.3878507  -0.5638471   0.5727307  -0.6656083   1.2367531
  -0.4553644   0.1804043  -0.3230448   0.4415885  -0.0103497   0.1292283
  -0.6238915   0.0542118   1.0593639  -0.1727296  -0.1723604   0.0660935
   0.8091245  -0.4669633   1.2808715  -1.0724657   0.4023555   1.8484021
  -0.2508449  -0.1849949  -0.0779509  -0.3719407   0.4122666  -1.3080137
  -0.6100657   0.9645911  -1.0242219  -0.0323260  -0.2371147   0.1518711
  -0.3597591   0.0351273  -0.2536841   0.9724996   0.2345218  -1.6544846
  -0.0349086  -0.3829454  -0.2051799   1.0154529   0.3610813  -0.0941856
  -0.9925340   0.1904628   0.0810742   0.0658684  -0.0223146   0.2547931
   0.0152288  -0.8664006   0.1848475  -0.1507647   0.4324572   0.5721132
  -0.1339021   0.2321539   0.0088279  -0.2824713  -0.2897089  -1.5821394
  -0.1602365   0.9279219   1.7216929   0.1625869   0.1025289  -0.1116600
   0.4386562   0.5339470   0.1104948   0.4738456   0.7332522   0.2740498
  -0.1246906   0.2735375  -0.0354970  -0.3222507  -0.2166583  -0.7255618
  -0.9744378   0.6403524   0.4859511   0.0475668  -0.0493861   0.0655672
  -0.3845332  -1.3349004  -0.5668725  -0.3616358  -0.8854321  -0.3046015
  -0.0370138   0.1534338  -0.1687318  -1.3290318  -0.3188897  -0.0408821
   0.1281634   0.0107613   0.7591456   0.1054141  -0.3112511  -0.1803749
  -0.8558105  -0.2128139   0.4039875   0.5367775  -0.1759734  -1.0288319
   0.0605186  -0.1143522  -0.2476079   0.4364150  -0.8883355  -1.8960777
   1.3349546  -0.0408749   0.4593660  -0.3125156  -0.3307345   0.0424547
  -0.5497207   0.5824966   0.9323119   0.5122667   0.1352290  -0.4339509
  -0.1315037   0.0929029   0.0760881   1.0220082   0.4467520   0.3996524
   0.9246215  -1.4020686  -1.0496554  -0.0759791   0.2526876   0.0958906
   1.5103643   0.4034774   0.6339279   0.8656554  -1.6414440  -0.2294263
  -0.2389921  -0.1427204   0.1139606  -1.7888591  -2.1816894   0.6813933
  -0.0478368   0.0489104   1.6703061  -0.2353425   0.0520052  -0.3304595
  -1.4158223   1.1945149  -0.5113037  -1.2787519   0.5233077   0.7039144
  -0.0641458   0.1629558   0.0008824  -0.1703301  -0.9928278  -0.3692456
   0.2770197  -0.1503044  -0.1351674   0.0504812   0.2545933   0.2101627
   1.2290165   0.0102421  -0.3250733  -1.5135824   0.3586711   0.2352016
  -0.3241573  -0.0955296  -0.1846927  -0.0684316   0.2452648   0.0812943
   0.6176594  -0.3810798  -1.9302492  -0.2856416   0.1735562   0.2467151
   0.6260434   0.4247549  -0.3901430   0.3191328  -1.3897209  -0.9076203
  -0.1390920   0.0816700   0.0885951   0.5899292  -0.4031985  -0.4145309
   0.6392023  -0.1279580  -0.8396112  -0.2517176   0.1775345  -0.2095719
   0.4762895  -0.6427685  -0.3885111   0.2959833   0.0935998   0.0569037
   0.1619499  -0.0368750   0.0699823   0.7487852   0.2842919  -0.1000130
  -0.9098794  -0.6301766   0.5928040  -0.3412160  -0.1714052  -0.1950732
  -0.8893035  -0.4905180  -0.4134694  -1.2302907   0.8196308  -0.7600467
   0.0072475   0.2825004  -0.2990597  -1.0190346   0.7072728  -0.5555431
  -0.1201376   0.4761022  -0.1631928  -0.1315172   0.3211571  -0.2570985
  -0.8645479  -0.7915798   0.0931229   1.0660604   0.6214761   0.5425717
   0.2259247  -0.1687092   0.1083720  -0.3836518   0.0734461  -1.9117914
   0.6990062  -0.3780633  -0.3044777   0.3746605   0.0869542   0.0866395
  -0.8646514   1.1489251  -1.8758516   1.4121287  -1.2951431  -0.2149417
  -0.0281244  -0.1396311  -0.0710048  -0.6360506  -0.7407821   0.0436779
   0.5397201   0.6849857   0.7982800   0.0317000  -0.2879626  -0.4342246
   1.1244372   1.4309646   1.0994969  -0.5756151   0.9447162   2.2023482
  -0.0642826  -0.2290653  -0.1543054   0.0757144  -0.1380145   1.3282557
  -0.9646274   0.4548557  -0.3441237   0.1166758   0.1056552  -0.0200507
   0.2640615  -0.7167730  -0.9354488   0.0519666  -0.0836823   0.4268863
   0.0402885  -0.1991402   0.1371997   1.8035881  -0.8228331   1.5401095
  -0.2235743   0.1450614   0.2495477   0.1131488  -0.0005224   0.2077717
  -0.8961619  -1.3888881  -0.7243114   0.3431173  -0.4246896   0.5947706
   0.0769055  -0.3356759   0.0994229  -0.2613172  -0.7053159  -0.8923507
  -2.0242819   0.7306852  -0.0943869  -0.1731683   0.2728388   0.1539301
  -1.2258596  -0.9389755  -0.5736973  -0.4956386  -0.6832939   1.2357115
   0.0319290  -0.1856883  -0.2967834  -0.4993393  -1.2990184   0.8006085
  -0.9914304  -0.6693663  -0.3890023   0.2129377   0.3624564   0.0931068
  -0.0831287  -0.4097757   0.0397255   0.7352204   0.2119886  -0.6246663
   0.0233348  -0.3407087  -0.0135201   0.7453896   0.1318499   0.7121393
  -0.7566227  -0.6755772  -0.5941944   0.1018317  -0.2452490   0.0774357
   1.6468824   1.1362628  -0.7201452   1.9347135   0.0864336  -0.3804964
  -0.2792624   0.0624119   0.0544532   0.6209982   0.9995816   0.1927238
  -0.1562806  -1.3222471   2.0353425  -0.2586949   0.3550461  -0.1519756
  -1.1249119   0.7632733  -0.8267554   0.8724932   0.5304456   0.7015879
   0.0668665  -0.0175735   0.4993797  -0.2978263  -0.3094237   0.1066063
   0.3855175  -0.3315723   1.0289618  -0.3330029  -0.0410772   0.3636847
   1.1602026   1.7256156   0.0909823   0.5387591   0.3208999   0.2076739
  -0.0145397  -0.0248654   0.3299158  -0.9916275   0.1839353  -0.0037060
   0.3006181   0.8205579   0.1514382  -0.2549911   0.0990104  -0.1838045
   0.5583513   0.2419076   0.0992315  -0.1404523  -0.3453203   1.0674041
   0.0555185  -0.3735399  -0.1866863  -0.7000444   0.1715295  -0.0434830
   0.2640603   0.5766718  -0.6821589  -0.1910327  -0.0568583   0.0102957
  -1.3685567   0.7942198  -1.1412727   1.3531091  -1.4495502   0.0304975
   0.1033096   0.1976141  -0.0482937  -0.0709286  -0.6464930  -0.6311683
   0.0031589  -0.4753727  -1.1336231   0.2187134  -0.0275220   0.0889049
   0.8272614  -0.1072631  -0.1936244  -0.2169606   0.9583562  -0.4271160
  -0.1518017  -0.2062920  -0.2482652  -0.8632935   0.5874404   0.6240090
  -0.1872602   0.4977826   0.5153281  -0.2765619  -0.1358618   0.1708802
  -1.3014144  -0.4820575  -0.8140412  -0.1138725  -0.1925926   0.0383943
  -0.1535109  -0.2297653   0.0854871   0.9437975  -0.5383164  -0.5644158
  -0.9598561  -0.5104585   0.2661490   0.2843775   0.0485661  -0.0468269
  -0.4712302   0.7187898   0.0028757   1.2126870   0.3010201   0.2814529
  -0.1872353  -0.2101719   0.0137252   0.5006571  -0.9986861  -1.7822597
  -0.1021413  -0.0063133   1.0900763  -0.2236267  -0.1920522  -0.4714955
   0.4887512   0.4025326   0.1750701   1.1082864   0.0642759   0.6123809
   0.1620021  -0.4764318  -0.0170850   0.1023086  -1.2076614  -0.6749623
  -1.6548702   0.2112677   0.5355147  -0.1110139  -0.1345176   0.0575305
  -0.4277746  -0.0165922   0.3837619   0.9193974  -0.0244760  -0.1577061
  -0.1408295   0.3295305  -0.3052126   0.4110459  -0.0150659   0.5345866
  -1.8105653   0.5628915   1.0810162   0.0681134   0.0543004   0.1227365
  -0.0467232  -0.5696581  -0.6633176   1.0809268   1.2320060   0.4321069
  -0.0794677   0.3520107   0.0067909   0.0285746   0.4216084  -1.7913155
  -1.6883532  -0.1364309   0.6823170   0.0014969  -0.1472274  -0.4051002
  -0.3610904  -0.9347148   0.1104699  -0.3356083   0.9725913  -0.6951479
   0.0229752  -0.0002045  -0.0248302  -2.1735134  -0.9799004  -1.2028962
  -1.0310930   0.0920766  -0.6455867   0.3065942  -0.0444465   0.0837631
  -0.1874032  -0.4607857   1.1137121   0.8193307   1.1836016  -0.0953239
  -0.1050818   0.0340918   0.1989248   0.0050513   0.7873911   0.2611138
  -0.9385130  -0.4812154  -0.5084969   0.2419653   0.1369806  -0.4158177
   0.0006377  -0.0564682  -1.0406209   0.5007089  -0.0639589  -1.3565477
  -0.1762055  -0.0782442  -0.0593110   1.4151135   1.8042575   1.4845195
  -0.6100828  -0.9997020  -0.0746770  -0.2219134  -0.1076344  -0.0154691
  -0.6976635   0.2980330  -0.4034471  -0.5916107  -1.3448548   1.3766543
   0.4201321  -0.0002251   0.3582024  -0.6823082  -0.5313955  -0.4024185
  -0.0015498   0.9379107  -0.6233990  -0.1229238  -0.3656919   0.1855840
   0.0530110  -1.8491965  -1.1745491   0.3112086  -0.3012194  -1.0120068
  -0.1413085  -0.1766107   0.3128224  -0.6633401  -0.2961143   0.2520233
  -0.3817736   0.6215367  -1.8940868  -0.2097044  -0.4280197   0.0703676
  -0.7810472  -0.7963802   0.6251803   2.3897255   0.4188256  -0.0699933
   0.1783918   0.3720365   0.0783407  -1.5750915   0.0682583  -0.8013950
  -0.0538815  -0.0513648  -0.0313985   0.1657756  -0.0399859   0.2924934
   0.2845117   0.1983571  -0.9834554  -0.6022527   0.2506984  -0.5320832
  -0.1020283  -0.2541108  -0.0732062  -0.1679638   0.0793071   0.0647074
   0.0018642   0.0414828  -1.5922408  -0.1103867   0.1051891   0.0270346
   1.7099925   0.7605275   1.4178201  -0.1641798  -0.3089292   0.8284920
   0.1275256  -0.0853709  -0.0343885   0.0559403   0.4418472   1.3474639
   1.5932623  -0.4148173   0.5785877  -0.1134948  -0.1016492   0.2333346
   0.9036988  -0.0458439   0.3048529   1.7139360   0.3341706  -0.3436097
   0.1327995   0.1864165   0.1960763  -0.9499040  -0.0227945   1.6017156
   0.4698562  -0.3291281   0.0150621   0.3144800   0.0967483  -0.0901806
   1.1656671   0.4489787   0.2470478   0.4016767   0.0476439  -0.2260385
   0.0955907  -0.0367134  -0.0106227  -0.8547361  -0.8807593   0.6960952
   0.1756305   0.1187472   0.9702440   0.0063743  -0.1965411  -0.2309899
   1.1408559   0.0796093   0.2472182  -0.5705775   0.0482145   0.2072528
  -0.1155576   0.1801046  -0.0464597   0.9171488   0.9757345   0.8525072
  -1.3347515   0.2104013   0.5072557  -0.0651057   0.1107254  -0.0853379
   0.9450272   0.4214688  -0.1613369   0.2997533  -0.1629110  -0.1851729
  -0.0501334   0.2918901   0.0194276   0.0622155   0.1861357   0.6523211
   0.5401511   0.8907627   0.9813656  -0.3061701  -0.0440702  -0.0507172
  -0.0506045   1.4231497   0.8072226   0.1569485  -0.4102605   1.1790510
  -0.3022080  -0.0171361   0.0872413  -0.8008657   0.3062648   1.2130284
   2.6298816  -0.3405624  -0.0063350  -0.1999982   0.1288483  -0.1005332
  -1.3007234   0.3885046   0.7379181   0.2968826   0.5468699   0.9428227
   0.0283954   0.0647893   0.1899620   1.0918444  -1.1871149   0.4393070
  -1.0948764  -0.2399824  -1.3516078  -0.2831938   0.0725509  -0.3993877
   0.9768106  -0.2683608   0.4189026   1.7064313   0.3315821  -0.0219073
  -0.2890194  -0.0784107   0.1355024  -0.3545606   1.8977737   0.1848379
  -0.5965029  -1.1226924  -0.2145987   0.2127651  -0.2158141  -0.2133867
  -0.5636599   0.8123419  -0.2257254  -0.4151473  -0.7798484   0.7353253
   0.1183990  -0.1749751   0.1370029  -0.4443337   0.1485850   0.7823051
  -0.3167332   0.4996204   1.4526410  -0.2124099  -0.0626521   0.2040490
  -0.3389952  -0.0358922   0.3822351   1.0386150  -0.1568087   0.0616223
   0.2286093  -0.0869313   0.1273783  -0.5980675  -0.4625258  -0.8825660
  -0.0017235  -1.1457231   0.3127540  -0.0096230   0.3925712   0.1125358
   0.8418874   0.8379586  -0.3433247   0.6040700   0.1308910  -0.2429320
  -0.3483750   0.0980007   0.2708864  -0.8201111   1.2142915  -0.5128706
  -0.1958228  -0.5301478   0.0758387   0.2769524  -0.2901881  -0.1561413
   0.1945944   1.0421900  -0.4766983   0.4255539  -1.0616565   0.0991608
   0.0053696  -0.6126680  -0.1866234   0.4493067  -0.7043210   0.0655827
  -0.5675706  -0.5078720   1.3985538  -0.1926146   0.0782139  -0.0439030
   0.3161047   1.2389261  -0.8193782  -0.6461510   0.2323745  -0.3214123
   0.0165017   0.3069955  -0.1314659   0.7197296  -0.6661060   0.3076259
  -0.1168396   0.5503211   0.4072657   0.1111608   0.1550242   0.0274730
  -0.6538062   1.7463828   0.6041947   0.9545531   0.3794529  -0.5724817
  -0.0740326   0.0387160   0.3891137   0.1592308   0.7951709   0.7414843
   0.2942102   0.2232016   1.1347817  -0.2940097  -0.0471290  -0.0736645
  -0.1036684  -0.5156915  -0.2677872   0.9959918  -0.2159235   0.7160503
   0.0988339  -0.1204981  -0.1055982  -0.6979127   0.1356675  -0.4121925
  -0.2983109   1.0394915   0.8321845  -0.0818274   0.0851987   0.3820973
   0.7513521   0.3233576  -0.9910823  -0.1228092   0.5065823  -0.0023297
  -0.1502766   0.2055051  -0.1902076   1.8171561  -0.9399568  -0.0215312
  -0.4256033   0.4758388  -0.3673348   0.2239101  -0.0967399  -0.0703906
  -0.2146691   0.3472966  -0.0926174   1.1121935   0.0592306   0.2412365
   0.0000640   0.3523690   0.1468831   0.3125187  -0.8516817  -0.8131965
   1.0590807  -1.2609470   0.9557710   0.2224647   0.1900236  -0.0698226
   0.9839875   0.3879974   0.1399013  -0.5117479  -0.2475496   1.4257314
   0.1116606  -0.4024202   0.1597839  -0.3320386  -0.6241029  -0.1159077
  -0.5147435   0.3809348   0.9814326   0.1817437   0.3811216  -0.0167409
  -0.0804257   0.1740404  -0.3459507  -0.0708243  -0.5353233   0.8100460
  -0.0007397  -0.1539917  -0.2900299  -0.6528945   0.5982445   0.9988875
  -0.1927859  -0.9565813  -0.4091329   0.0970723   0.0163258  -0.2659267
   0.8667064   1.7777054   0.0298629   0.2339778  -0.0689502   0.1188974
   0.0757595  -0.1911618   0.0852522   0.2694241   0.4344487   0.2278814
  -0.3307918   1.2319425  -0.8397178  -0.3684460   0.2083416   0.1503581
  -0.4845550  -1.3617265   0.5830131   0.9242878   0.1963786   0.3370894
   0.2305015   0.1897823  -0.0582092   0.6021585  -0.4008640  -0.3923966
  -0.3706031   0.2336633  -1.2400530  -0.0701411  -0.1447186  -0.0841932
  -0.6435019   0.0833379   0.9630137  -0.2350814   0.1356224   0.4167390
  -0.0067099   0.0016672   0.0411798   0.5616940  -0.2273231   0.2281981
  -0.0188664  -0.0234021   0.7215796   0.0428911   0.0616400   0.1045900
   0.1408528   0.9003564   0.8402102   0.3379363  -0.3128754   0.5566194
   0.0237654   0.0811848   0.0167717   0.0473188  -0.0253903   0.5413856
  -0.7946467  -1.1963804  -0.2849320  -0.1821473   0.2293194  -0.0583191
  -0.5377508  -0.0074257  -0.0903201  -0.1802627   1.2110448  -0.6089652
  -0.3134874   0.0268413   0.0976653   1.1276921  -0.2439869   0.1102628
  -0.8142082  -0.1209150   1.6069276  -0.0024434  -0.4390168   0.1818234
   0.8376137   0.9930495   0.7861353   0.3487666  -0.3961611   0.2140410
  -0.1065281   0.1549723   0.1412057  -0.4988636   1.0246884   0.6062465
  -0.9750223   1.6223801   0.1707225  -0.2073996   0.1063201  -0.0707267
  -1.6025266   0.5642029   0.3711642   0.7786681   0.4824389  -0.7164856
   0.3714162   0.0106785   0.3305200   0.1027345   0.1220259   1.1360400
   0.3951138   0.8294410  -0.3711004  -0.0020415  -0.1704077  -0.1747118
   0.7010991  -0.9556209   0.1341910  -1.0034521   0.0656398   0.4616509
   0.1534233  -0.2278800  -0.1884758  -0.7479354   0.4545313  -0.5898913
  -0.3493849   0.5768783  -1.7447028   0.0871910  -0.3375678   0.2276895
  -0.3106821   0.5231266   0.2175001  -0.4029302  -1.0648238   0.0561899
  -0.1655749  -0.0802800  -0.3198707  -1.0446719   1.3744810  -0.5092531
   0.9262266   1.1224072  -0.3586214   0.0340863   0.2003148   0.4180165
  -0.0248941   0.0105450  -0.4600592   0.1017474   0.9518528  -1.3371947
  -0.3667984  -0.0094351   0.0996422  -0.0273747  -0.0070444   0.9427443
  -0.5175301  -0.5955971  -0.8022743   0.1370001  -0.2007798  -0.2063358
  -0.4784049   0.4756806   1.5120629   0.8638935   0.1366800   0.0718043
  -0.1802395  -0.0737337  -0.0495665  -1.5585519  -0.4443480  -0.0915813
   0.2484051   0.1576269   0.1456060  -0.1169700   0.1617080   0.1038752
  -0.6403491  -0.8975206   0.2052369   0.8022659  -0.1032490  -0.4084292
  -0.1082000  -0.0983966  -0.0502036  -0.8827101  -0.9670277  -0.4732841
  -0.4136429   0.1257842   0.0409315   0.0816815   0.0799232  -0.0099829
  -0.6345445  -0.5264948  -1.6912377  -1.3761206   0.6871786   0.6038008
   0.0310868   0.0579656   0.0384222  -0.1866738  -1.1487946   1.0780338
   0.4682602   1.2447435  -2.0203875   0.0160094  -0.1407404   0.1096020
   0.4500280  -0.1590426  -0.8019265  -0.9021881   0.0835268  -0.5193672
  -0.2186360  -0.0304878  -0.0267816  -0.2782124  -0.0852292  -0.0551364
  -1.2560358   0.2295357  -0.4607198   0.1671058  -0.0040506  -0.0314070
   0.6909696   1.4158617   0.0782653   0.4153571   0.0147211  -0.5112783
  -0.1733863   0.0955354  -0.0443198   0.4483006   0.3221609   1.0349371
  -0.5419135   0.9718761   0.7028759  -0.3073734   0.0968721   0.0186349
  -0.9551554   1.0799373  -0.9357337   0.0690896  -0.1162117  -0.3582900
  -0.0135809  -0.1770596   0.0051378  -0.4886363  -0.3158906   0.2526133
  -0.7131872   0.0670582  -0.0834260   0.0372430   0.1120519   0.2196155
  -0.3038173   1.5032884  -0.2115313   0.5064711   0.6846641   1.2284670
   0.1239624  -0.0440355  -0.1529412  -0.2883801   0.0118717  -0.1073770
  -1.9820996   0.4505726  -0.7582600  -0.4700121   0.0328237   0.1912753
   1.2639967   0.4325631   0.9554097   0.2710757  -0.3182960   0.2462357
   0.0437500   0.0027650   0.4243904   0.3142814  -1.3087059  -0.5387720
   0.7409059   0.4417358  -0.1144781  -0.0898828   0.3010962   0.0156882
   0.1280663  -0.7737345   0.4125612  -0.0143583   1.1152854  -0.6449044
   0.1331420   0.1558908   0.0078868   0.9153149  -0.5189661  -0.6317539
   0.7383908   0.8855421   0.8286352   0.2966287  -0.2772949   0.4558264
   0.5034292  -0.6235710   0.4990978   0.5289948   0.5169892   0.4835483
   0.2605256  -0.2741583  -0.3550551  -1.1136452  -0.8793562   0.0942366
   0.6021022  -0.1462142   0.8369271  -0.2688423  -0.3139846  -0.0535931
  -0.7996757  -0.5739232  -0.3495321  -0.2191240  -0.5490479  -0.1738004
   0.1319696   0.1437348  -0.1212586  -0.4392936   0.2823450  -0.0701504
   0.6747245  -0.3393873   0.1626128  -0.3141275   0.1485140  -0.0212126
  -0.8843153   0.2722956   0.3028048   1.8102278  -1.4880599   0.1398262
   0.2717292   0.2007112  -0.1716734   0.6190149   0.6191830  -0.8094279
   0.2077158   0.4254427  -0.5579975  -0.1946661  -0.0700088  -0.1853171
   1.7459744  -0.2953917  -0.8824316  -0.4664539  -0.4081046   0.9658390
   0.0324110  -0.2091997  -0.0234128  -0.1261997  -0.6578646   0.2020396
   0.1375327   0.9598317   0.2484746   0.0416596  -0.0510025  -0.0766179
   1.0113327   0.0004873   0.5228119  -0.3085200   0.0882501  -0.2661644
  -0.0042632  -0.0332903   0.2136046   0.1310937  -0.2247569  -0.2343231
  -0.1175760   0.5805290  -1.3009331   0.1831259   0.2140565  -0.2993219
   1.3059352   0.6655925  -0.4152150  -0.2058573  -0.0894088   0.4879269
   0.1975887  -0.3249276   0.1506849  -0.3125898  -0.4745528   0.6102463
  -0.7407902  -1.3252278   0.7123620  -0.0803359  -0.1655962  -0.1163166
   1.9253903  -1.1475463  -0.0316420  -0.1620642  -0.0402271  -0.5091980
  -0.0861934  -0.1042134   0.0447105  -0.0033992   1.8599537   0.6539344
   0.4230662   0.3399877   1.4415552   0.1152896  -0.1834034  -0.1070009
   0.9295978   0.9436986   0.0913261  -0.4068857  -0.0868028  -0.3034205
  -0.3986794   0.3238674  -0.1248992  -0.5711204  -0.0010141   0.0381004
   0.2944589   0.8429523   0.4348453   0.1755575   0.0855022   0.2647733
  -0.8360701  -0.7042322  -0.0491304  -0.7234752  -0.6045704  -0.4177368
   0.1233436   0.2384367   0.1954391   0.3495490   0.8325140  -0.3677583
  -1.1786784  -1.3842848   1.5673057  -0.1917903   0.0463221  -0.0508557
   0.0164848   1.2760244  -1.0939777  -0.5000322  -1.6922522  -0.0415093
   0.0037350  -0.0481718   0.0576672  -0.1952659   0.4438691   1.3563825
  -0.2474599  -1.4191779  -0.7462373  -0.0450775  -0.0460809  -0.1487601
   1.0816568  -0.1655240   0.7048939  -1.0376201  -0.5615070  -0.8994085
  -0.0466961   0.0825882  -0.0869601  -0.2839127   0.2406639   0.1953339
   0.7776401  -0.0518051  -0.7748975   0.2001848  -0.0222423  -0.0716095
  -0.5527167  -0.5103914   1.0834262  -0.1390728  -0.8719829   0.6458710
   0.1310724   0.3107429  -0.2029635  -0.0381844  -0.7151070   1.3989896
  -0.9715199   0.3165337  -0.0396210  -0.2218803  -0.0423471   0.1888072
  -0.5155996  -0.5814199   0.3144219  -0.4533959   0.2351678  -0.2624708
   0.3279146   0.1392988   0.0897566  -0.6335335   0.5600370   3.1650926
  -0.8558930   0.3582025  -0.6015547   0.3095618  -0.2301336   0.0186824
  -1.4196499   0.7031650   0.8019251  -0.5515424   0.3043847   0.1556351
   0.1383579   0.1482112   0.0930890  -0.0991467  -0.1974555   0.3015185
  -0.9731947  -0.7159751   0.7853294  -0.0700796   0.0897495  -0.2807586
  -0.0989331  -0.5596229   0.4953304  -1.1358808   0.6487111  -0.4000727
   0.2183491  -0.0684704  -0.0932010  -0.1778915  -0.2331762  -0.2013592
  -1.4900260  -0.0799216  -0.5520769   0.3766902   0.1912678   0.1391566
  -0.7042719  -0.5333303  -0.1993073  -0.0465168   0.1165590   0.0079072
  -0.2277764   0.0226677   0.1517305   0.7948186   0.8093673  -1.2502842
  -0.2265055   0.5756509   0.9468079  -0.0288020  -0.1679977  -0.3363056
  -0.6227251  -0.2206293  -0.4290195   1.3183128  -0.4708477  -0.1810173
  -0.0557783  -0.4038557  -0.1772732   0.1040075   0.4186758  -0.3163563
   0.4828579  -1.1155674  -0.4235324   0.0142937   0.1765715  -0.1835643
  -2.4920098   0.8494485  -0.9031821   1.3812477  -0.6473538  -0.3224349
  -0.0300165  -0.0443007  -0.1063299  -0.7458991   1.3896257   0.3534669
  -0.0950884  -0.9030600  -0.3286670  -0.2950673  -0.1004373   0.0900473
   0.0342586  -0.9630514   0.1214642  -1.5432445   1.5799047   0.0661156
   0.3407746   0.0138553  -0.0889455  -0.0642563   0.0237252  -0.7283358
  -0.8267243   1.1090097   1.2526992  -0.2347803  -0.0525934  -0.0152302
  -0.3846657   1.0857753  -0.5442015   0.1854226  -0.5355489  -0.7115717
   0.0883232  -0.0647065   0.0863210  -1.2198455   0.2439003  -0.7860780
   0.3122804  -0.1487122   0.2390468  -0.1391715  -0.0829752   0.0808189
  -0.8767603  -0.0043586  -0.0710687  -1.2610518  -0.7753281   0.5967779
  -0.1349097  -0.1961225  -0.0336447   0.5508333  -0.3075726   1.3692541
  -1.1628685   0.1686435  -0.0229913   0.0367235  -0.3074140   0.1797164
   0.9621759   0.8191810   1.2918547  -0.8240579   0.2409266   1.0991417
  -0.0267714  -0.2961969   0.0046642  -1.3205234  -0.7838643   0.2005690
   0.7431188   0.2674979  -0.6085321   0.1033366   0.2872326   0.1403586
   0.5013304  -0.2261227   0.4982738   1.7759615   0.1107114  -0.5091573
   0.1446287  -0.1491186  -0.0588987   0.6194506  -0.8384540  -0.4057719
   0.3998225   0.7825942  -0.5139673   0.0902187   0.1286442  -0.1219394
  -0.0137208  -0.2155274  -1.1018679  -0.3475526   0.7415687  -0.5615640
  -0.0845105  -0.0404129  -0.0997873   0.4245426   0.3437051   0.2730869
   0.3608148  -0.0774585  -0.6204770  -0.0825629   0.0990591   0.0581954
  -0.3905495   1.1581882  -0.5092088  -0.0392720   0.3956331   1.1894858
  -0.0369624  -0.1957851   0.2514491  -2.0395765  -1.6642867  -0.4522419
  -0.7097784   0.2512510   0.2962218   0.0389571  -0.0927310  -0.1136097
  -0.3881987  -0.1525261  -0.2658187   0.0376474  -0.7547473  -0.9772814
  -0.1719784  -0.1617114   0.1485425  -0.2385572   1.1389950   0.9648158
   0.7760844  -0.4462543   0.7121619  -0.0612820  -0.1972444   0.1722887
  -0.3628196  -0.7790225  -1.0279740  -0.1474608   0.3188860  -1.0789418
   0.0064116   0.1236703  -0.0978715  -1.0833735   0.9790741  -0.0435458
   0.9808113  -0.7764416   0.1466972   0.3404806  -0.1916665   0.2140515
   0.1386403  -1.0606689  -0.0853586  -0.4554317  -0.3398696   0.5708815
   0.1312165  -0.2106492  -0.1740811  -0.7839804  -1.0619891   0.5927652
   0.9339224   0.0080724   0.4049326   0.2671512   0.0037799  -0.0602455
   0.2356047  -0.2330194  -0.0673109   1.4718357  -0.5849135  -0.5445745
   0.2136599   0.1376566   0.0935972   0.9390412   1.4346064  -0.7157112
  -0.4219844  -1.3169588  -0.0133747  -0.3693208  -0.0304917  -0.1867540
   0.6676107  -1.6465523  -2.3484687  -0.4048954   0.7504860  -0.3482706
  -0.2532559  -0.3404943  -0.0515667   0.1498904   0.6423222  -0.0028345
   0.0479105  -0.3140979   0.2003198  -0.0719334   0.0715652  -0.0600776
  -1.0154780  -0.1987951  -1.1714499  -1.0524394   1.0587561  -1.2480839
   0.3005832   0.0680354   0.1165279   1.2067152  -0.2712379  -1.2827902
   1.0890346  -0.9260844  -0.4180600  -0.1556362   0.0902235  -0.0254420
  -1.3737986  -0.7046517  -1.2351546  -0.0373530  -1.0221641  -0.5235139
   0.4159502  -0.0944581  -0.1033449  -0.0906489  -0.0391490  -0.8391419
  -0.9546041  -0.1352470  -0.1349322  -0.0049465  -0.1942842  -0.0244635
   0.4491417   0.1428679  -0.7218113  -0.0720765   1.2841698  -0.0640687
   0.0884136  -0.0400217  -0.0756491   0.2590359   0.5471721   1.1682590
   1.1542548  -0.6335712   0.3311773   0.1305625   0.1151800   0.0862484
  -1.0520577   0.5349345  -0.1113763   0.3934079  -0.0495944  -1.2816385
  -0.1132857  -0.1331328  -0.0837146   0.9316567   0.3555700  -0.3900279
   0.2568385   0.4657835   0.2634876  -0.0646676  -0.1630047  -0.0031280
  -0.8559708   0.5257347   0.8498275  -0.1643456   0.3704765  -0.2486949
   0.4052867  -0.1815210   0.3116291  -1.1690017   1.0853230   0.2616908
   0.6254753  -0.6058182  -0.2238194  -0.1765373  -0.2241073   0.4303935
  -1.7524012   0.5456877  -0.3630816   0.9341613  -1.6418145   1.1616083
   0.1367672  -0.1087360  -0.1992079   0.2315348  -0.2390279   1.8342392
  -0.6562972   0.2373346   0.4435296  -0.0086348   0.1473283   0.1225820
   0.4450954   0.3611283  -0.0778945   0.6338091  -1.4287946   0.7809660
   0.4042491  -0.2515902   0.2522322  -0.1144666  -0.4486789  -0.3055950
   0.5823219   1.0811478  -0.5764783   0.0908158   0.2642845  -0.0642264
   1.4408976  -0.9201468  -1.1849210   1.0468249  -1.2749146   0.4998864
   0.0373967   0.1795387  -0.4071505  -0.5529733  -0.2044374  -0.5174257
   1.6526367   0.4477634   0.2459608   0.0700857  -0.0019041   0.0643850
  -0.2265030  -1.0654446   0.3502933  -0.1388027   0.9769923   0.4260385
   0.1209534  -0.0452993   0.0292950  -2.0176826   0.4934987   0.6140727
   1.3463173  -0.4904978   0.0113649  -0.2185549   0.0427234  -0.2642243
  -0.6307941   0.2144564  -1.4437031   0.5283341   0.8390282   0.2584037
   0.1564736  -0.0202010   0.2034044  -0.3778444   0.1477179  -0.3792740
  -1.4092323  -0.1271114   0.2170608   0.1100927   0.0195364  -0.2057584
   1.1779858   0.6734373  -0.7359460   0.1127380  -0.1689200   1.0247257
  -0.1041295  -0.1425307   0.0622806   0.5064359  -0.0395066   0.4324580
  -0.9621491   1.4565682  -0.4840808   0.1592458  -0.2275215  -0.1359487
  -0.2752854  -0.5135309   0.3181662  -0.2056187  -0.5383006  -0.0726375
   0.0191829   0.0015123   0.1248933  -0.3793088   1.5580692   0.1507767
  -0.5313509   0.5132877   0.3014141  -0.0624805  -0.0226316  -0.1067594
   1.2470804   1.0020345  -1.0020508  -0.0980704  -0.5190128   1.5858650
   0.1490041  -0.0176118   0.1993284   0.8313151   0.6570763   0.5403461
   0.0794807   0.0369144  -0.1529859  -0.3079880   0.0485660  -0.2938091
  -1.2500742   0.1618069   2.2521192   0.2868808  -1.4388342   1.4270616
  -0.2370588   0.1930708   0.0220827   0.6054491  -0.1122041   0.5462215
  -0.2392485   0.5647880   0.4585243  -0.0388129   0.0822755   0.0780637
   1.4153944   0.5038756   0.8712167  -1.3551567  -0.5506502  -1.9762348
   0.0537852  -0.2107365   0.0673292  -0.3296286  -0.1831642   0.0112482
   0.1158461  -1.5259489   2.2932014   0.1556340  -0.1367393   0.0274562
  -0.4430456   0.2324098   0.6681998  -1.4543623  -1.0363930  -1.0651508
   0.0842551  -0.1332446  -0.0404990   0.0311305  -0.4626281   2.0820394
  -0.5097324  -0.7171396  -0.7578134  -0.1392574  -0.1257587   0.1693681
   0.4731021  -0.7841228   0.1075530   0.5063301  -0.5266203  -0.2585628
  -0.0499310  -0.2157126   0.2781613   0.4281265  -0.3391523   0.0526973
  -0.9171394  -0.1758820  -1.2086711   0.3602076   0.0736172  -0.4640226
   0.9625803  -0.5080588   0.0192379  -0.3534159   0.0354886   0.2264450
  -0.0050192   0.0007716  -0.1606318   0.1080236  -0.2050977   0.6546123
   1.1872887  -0.7350020  -1.2919894   0.0094569  -0.0490571   0.2676871
  -0.3232362  -0.3982018  -0.3900535  -0.8414171  -0.3971513   0.8965661
  -0.2924920  -0.1098144   0.3259397  -0.1700887  -1.0997510   0.3476732
   0.5124829   0.2015376   0.4858383   0.0622668  -0.0180515  -0.0872343
  -0.0427338   0.7652534   0.1569532  -0.5761802   0.8386931   0.0245345
   0.0560865  -0.3320890   0.0796745  -0.0274118   0.8252186  -1.3010190
  -0.0201520  -0.5698089   0.1771371   0.2032909   0.0821094   0.0545604
   0.2950140  -1.5155426  -1.0588422   0.8145237   0.1345911  -0.5439274
  -0.1476696  -0.1401276   0.2251213   0.3123976  -0.0127773   0.9236095
   0.7816771   0.3032627   0.4319525   0.1947191  -0.1480197   0.0857224
   0.3896646  -0.9935078   0.8596790   0.6382438   0.6916180   0.3120766
   0.2548281  -0.1754097   0.0851290  -0.2735277  -0.2366575  -0.5785948
   1.7342483   1.9527234   0.1169141   0.0605819  -0.0217806   0.3298854
   0.0284050   0.5040838  -1.3105218   0.7251342   0.8420444   0.0829091
  -0.2970407  -0.0159257   0.4259901   0.2102320  -0.4658246   0.4939022
   1.6318467   0.5781246  -0.1119028   0.0774567  -0.0740560  -0.1371627
  -0.4305276  -0.1752190  -0.5801888  -1.0331811   1.3057373  -0.2449875
   0.3408632  -0.0740971   0.0761808  -0.2048680  -0.6793620   0.5842102
  -0.8833484   1.0853170   0.7859438  -0.1030090  -0.1209864   0.1571852
   1.4365590  -0.1373263   1.9375486  -0.5081552   0.0096150  -0.5794266
   0.2080711  -0.2888582   0.0641169   0.5995490  -0.3067421  -0.7810362
   1.6116688  -0.3232610   0.5790798   0.0185723  -0.3132288   0.2573583
  -0.3220398   0.5062999  -0.6362014   0.2587910  -1.0566529  -1.2185658
  -0.0622413   0.2997024   0.0909096   0.5230787  -0.5308305  -0.1466716
   0.5972155   0.8539711   0.7238032  -0.1109184  -0.4514792  -0.0064644
  -0.1156387   1.7139166   0.9869976   1.2703188   1.1010895  -0.8550473
   0.3285313   0.0300575   0.0517035   1.3436004  -0.3389286  -0.4978700
  -0.4681230   1.2742347  -0.1700482  -0.1491930  -0.3821511   0.3307732
   0.0556031  -0.3632856   0.4464179  -0.6068088  -0.3094780  -1.7154319
   0.2196711  -0.0250771   0.1471585   1.2867472  -0.3422797  -0.1000801
  -0.9874094   0.5845805  -1.0346452   0.1131622   0.0770740   0.2913077
  -0.3705190   0.5465285   0.6884929  -0.2410476  -0.7114742  -0.5664376
  -0.0695722  -0.3927435  -0.0349130  -0.0824638   0.1611259  -1.4055389
   0.0304582  -0.3430060  -0.7954615  -0.0571500   0.0772648   0.1450427
   0.3529081  -0.2901631   0.0483204  -1.0989940   1.1296412   0.0724429
  -0.0849846   0.0442897   0.0489442   0.3366099   0.0685723  -0.5406876
   1.5229154  -0.6327793   0.8704211   0.1978039   0.2259427  -0.0326729
   1.1443566   0.5939798  -0.3638523   1.2732284  -0.1111266   0.0200843
  -0.1225517   0.2697137  -0.1791558  -0.3043228  -1.0014716   0.8001679
  -1.0517437  -0.8977555   0.2585181  -0.0278012  -0.0585927   0.0433450
  -0.8681605  -0.0878023   0.1806969   1.2956732   0.5191816  -0.6666333
  -0.0356630  -0.2104306  -0.1306236   0.3576702   1.4854467   0.5931296
  -0.1975903   1.2887234  -1.5111169  -0.1627798  -0.1897121  -0.1472629
  -0.2078056  -0.2467253  -1.6194293   0.5334305  -0.2028951   0.7650229
  -0.2127705  -0.1323584  -0.2563516   0.1903569  -0.6181513  -0.8218608
  -0.7848800  -0.1819365   0.3243503  -0.0471905  -0.0999989   0.0220292
  -0.2773054   0.4200876  -0.3124042   0.9926374   0.6140401   0.2760686
  -0.2802741   0.3022671   0.1922431  -0.8979541   0.5037120   0.5329734
   0.3536441  -0.5322521   1.2058877   0.0031395  -0.1929047  -0.0912243
   0.1868092  -0.6888071   0.8904202  -1.3865634   0.1816018   0.6230590
  -0.5156525   0.0652300  -0.1593097   0.2344367   0.8613826  -0.6383826
  -1.0484616   0.5749487  -0.7277243   0.1660031  -0.2346880  -0.3503711
   0.1047199  -0.4647004   1.0690591   1.2464304  -1.0558826  -0.4004643
  -0.2340842  -0.2078351   0.0062847   0.4230266   1.6515018  -0.4731181
  -0.7273839   0.4119769   0.9024777  -0.0509951   0.2081127  -0.1246508
   0.4345758   1.1663426  -0.9511963  -0.3490641   0.2640250   0.5800490
  -0.1028562  -0.0230036   0.1016385  -0.1290549  -1.5369264  -0.7491036
   0.5397466  -0.5678007   0.1932877   0.0643932   0.0400392   0.1268266
  -0.3350741   0.0818158   0.5623287  -0.6048221   0.0920758  -0.0932364
  -0.0635625  -0.2718002  -0.0342829   0.6293133  -0.1708291   0.2038967
   0.6237709   0.5451709  -0.7377478   0.3373258   0.3612182   0.2553513
  -0.6659351  -0.7949745   0.8380364  -0.5053338  -1.5803194   1.1338901
   0.2141236  -0.0904933   0.1948314   0.1181111   0.6988163   0.7110309
   0.1313140  -0.5440027   1.1539428  -0.3457536  -0.2879865   0.3191486
  -0.4150791   1.5741383  -0.4789960   0.2098021   0.5976033   0.0337435
  -0.0031532   0.0546857   0.0439029  -0.3970732   0.6505719   1.4805605
  -0.6592060  -1.0049469   0.1368534   0.0071728   0.0703475   0.4888389
  -0.5103271   0.1407168  -0.2545251  -0.8147749   0.0282633  -1.3908463
   0.2512558   0.0958132   0.1995954   0.3811436  -1.3051962   0.1662370
  -1.4361776  -0.4811408  -0.5044345  -0.4710725   0.1183101   0.0167839
  -0.2335737  -0.5336518  -0.1330774  -0.1267729   0.3207537  -1.3038058
  -0.0162952  -0.0343302  -0.0598527   0.1981578  -0.4448162   1.4642073
  -1.2475087  -0.4980336  -0.7078015  -0.0858687   0.0536418  -0.1521291
   0.2198543  -0.1578781  -0.8955876  -0.1552167  -0.1719921   1.3582278
  -0.2688441  -0.0341365   0.0125933   0.5611200  -1.7416587  -1.3759046
   0.2873910   0.8032821  -0.0849927   0.1784864   0.0852539   0.1193776
   0.1892379  -0.3326742   0.7480148  -0.3376262  -0.6175997  -0.3126185
  -0.1831408  -0.0086288  -0.1057181  -0.7079011   0.0240101  -1.0582442
  -0.3227661   2.0271052  -0.4520703   0.0493436   0.0938489   0.1018695
  -0.1651436  -0.7045921   0.2274497  -0.2093890   0.3275624   0.7612884
  -0.0067481   0.3917125   0.2243976  -0.4154884  -0.5007469   1.5557059
  -0.2735894   0.6072163   0.5639984   0.2189586  -0.2327178   0.2341164
  -0.1653022   0.6936446   0.3599807  -0.9963649  -0.9009170   0.9148064
  -0.0341490  -0.1057785   0.0186650  -1.2419139   0.0086554  -0.5335838
   0.3978192   0.5715915  -0.8582870   0.0463216   0.3688532  -0.0695648
  -0.2378884  -1.1530041  -0.3094039   0.8655632  -0.4174919  -0.0899883
  -0.1582911   0.2441318  -0.0249104  -0.2211501  -0.7018585   0.8216831
  -0.2350955   0.0436509   1.1081988   0.0381274  -0.0505254  -0.0770300
   0.3887710  -0.4588507  -1.1930734   0.1333858   0.6659824   1.2928211
   0.0265459  -0.1113116   0.0568601  -0.7847886   0.0755126  -0.0277703
  -0.3615600  -0.6914350  -0.7855208  -0.0735388   0.2103782   0.1710210
   0.8606829   0.5422642  -1.0185902   0.0643753   0.4925461   0.7252760
   0.1331859   0.3242117   0.1762845  -0.8954926  -0.3520132  -0.5476634
  -1.3291183  -0.6149235   0.9642842   0.0483826   0.2821269  -0.0176778
   0.7912493  -0.5164337  -0.0278368  -0.9674303   0.1653709   0.2035239
  -0.2069286   0.0370381   0.2944030   0.7113395  -0.2747926   0.0770103
   0.4252149  -0.7850728  -0.2847427   0.0485418  -0.0249296   0.0280678
  -0.1377327   0.7528592   0.4388761   0.7172208   1.2086520  -0.9327554
   0.0705097   0.1311208  -0.1183304  -0.2187133   0.5303661   1.4696961
  -0.9225686   0.2214768   0.2931948   0.1254974  -0.0449141   0.2287311
  -0.0926711  -0.2046997   0.8748038  -0.0467377   0.6230260  -0.7062633
  -0.2250603  -0.0182178  -0.3940893   0.4747511   0.2072803  -0.8540304
  -1.1351071  -0.1079360  -0.6133200  -0.0750473   0.1468487   0.1676872
   0.7217393  -0.4915506   0.2218698   0.4460369  -1.5359051  -0.7175415
  -0.2614543  -0.0487776  -0.0479161   0.0487774  -1.1378171  -0.4430687
   0.5369359  -1.9219294  -0.6539832  -0.0128466   0.0467150  -0.2071480
  -0.3493133  -0.2494912  -0.8757348   0.1601202  -0.9605435   0.7374239
   0.0876273   0.2017456  -0.3632702  -0.7007016   0.2269794   0.3551612
  -0.0627554   0.0990270   0.0920550  -0.0061492  -0.0604478   0.1976624
   0.1618569  -0.0026214   0.6523934  -0.5550845   1.1252548   0.2838039
  -0.0500032  -0.1419612   0.0073900   0.2959123  -1.4985223   1.1235438
  -1.4677517   1.4536204   1.0030692  -0.0473540   0.2551650   0.1510573
   0.0418135   0.0725691  -1.1890875   1.2062285   1.1424138   0.6318102
  -0.0920336   0.2415753  -0.0868514  -0.0550185   0.0016771  -0.3108865
   0.0309909   0.4721929   0.7779326  -0.0345247   0.0679273  -0.1656090
  -0.4059535  -0.7949146   0.6702188   0.0868933   0.2980513  -0.3521062
   0.2494086  -0.1696241   0.1071979   0.2361830   0.7384450  -0.6198638
   0.6592904  -0.9643507  -0.0603031   0.3992626   0.3229721  -0.0636840
  -0.4602687   1.1056933  -0.1350028   0.8648298   0.4579645  -1.4355084
  -0.1096341  -0.1601083  -0.0792487  -0.4380199   0.3048233  -0.4128572
  -0.5749786   0.8375253   0.2782926  -0.1230537  -0.1720314  -0.0795165
   0.2503742   0.8703850  -0.8898325   0.5955275  -0.3906532   0.9373558
   0.2321292  -0.2471469   0.0131705  -1.1666037   0.0383240  -0.0069673
  -0.5788279   0.0043746  -0.7875527  -0.2090848  -0.0655851  -0.4130800
   0.7328028   1.6286665  -0.4882072   0.2290410  -2.1317771   1.0805909
   0.0175558   0.2085847  -0.0669338   0.5882293  -1.3639309   0.1721212
   0.8208621  -0.3703543  -0.9478838   0.3244230  -0.3402744  -0.1391734
  -0.3851368   0.4981135  -0.1182691   0.5554944   0.5407417   0.0232939
   0.0743791   0.1502262  -0.1324848   0.8075507  -0.1932715   0.5163640
  -0.3047884  -0.3571076  -0.0445709   0.1826967  -0.2997213  -0.2549035
   0.1542332   0.0308250   0.4773719   0.4366464  -0.2757965   0.6783169
  -0.0392143   0.2377803   0.0238861   1.4540105  -1.1877584  -0.2940364
  -0.5466061  -0.3730075  -0.6017842  -0.1023936   0.2956946  -0.1549774
  -0.0932050   0.4576191   0.6501536  -1.1204474  -1.1907653   1.3844492
   0.1001443   0.1066477   0.1810170   0.8128661   0.3156121   1.3466239
   0.3141198  -0.1143134   0.9164470  -0.0965939   0.2349645   0.1606079
   0.4402382  -0.0093797  -0.7075811  -1.1847143  -0.6120717  -0.6554080
   0.1416615  -0.0292739  -0.0885742  -0.0176419   0.8742284  -1.7396112
   0.4370592   0.2098191   0.4489798   0.0681781   0.2595850  -0.1080670
  -0.8777505  -0.4196146  -0.2118654  -0.6973598   0.2480955   0.3715841
   0.2202106  -0.0155025  -0.2913206   1.1850174  -0.1420285  -0.3364974
  -0.0330615  -0.0558504  -0.0436438   0.2840561  -0.0443555  -0.1002765
   0.8039840   0.1158869  -1.1316784  -0.5202179  -0.2667150   0.0651768
   0.1380975   0.3646737   0.1938151  -0.9836981   0.9296535  -0.5081359
  -1.2295279  -0.0476505   0.0174829  -0.4049298   0.0007693   0.1472096
  -0.2428345  -1.2198442  -0.3626087  -1.2890347  -1.1391066  -0.7344717
  -0.1256200   0.2582886   0.1260950  -0.5350132  -1.3350014  -0.0993721
   0.5296714  -1.4507136   0.1112083  -0.2740204   0.0261112   0.0088493
  -0.4571693   0.1309266   0.5439348  -0.6338118   0.8704391  -0.1251045
  -0.0448379   0.1340979  -0.2603585  -0.5925637  -0.0372968   0.3682453
   0.9359936   0.1685087   2.0081117  -0.1105799   0.0326934   0.0438281
  -0.3743427  -0.6978352  -0.3817034   0.8885149   1.7910321   0.1244088
   0.2889310  -0.0568831   0.3233366   0.9324104  -0.4133511  -0.4880178
  -0.4462986   0.6611187   0.4527307  -0.0121353  -0.2311817  -0.1292193
   0.3575559   1.1197570   1.3313211   0.4624971  -0.9889027   0.3743630
   0.0354804   0.1892094  -0.2688224   1.4272811  -0.6874887  -1.6263142
  -0.2967069   0.2555567  -0.8578624   0.1301712  -0.0866260  -0.1844169
   0.1264658   0.0157110  -0.2263443  -0.2999458   1.3852205   0.4037938
   0.0178499   0.1788639   0.0642330  -0.1111069  -0.9005156   0.1728595
  -0.1805382  -0.8437095  -0.4531665   0.0354010  -0.0725095   0.2327099
  -0.5253271   1.7477316   0.1777951   0.4723549  -0.0087962  -0.8568070
   0.1294202   0.0463646   0.0249073   0.7699073  -0.0035443   1.4612091
  -0.8192585  -0.3789037   0.6601727  -0.1321172  -0.1207568   0.1027053
  -0.1211005   0.7958679   0.4639917  -0.3860324  -0.6111383  -0.2980350
   0.1505474   0.1346930  -0.2441749  -1.9978843   0.8759601   0.2886993
  -1.9347621   0.5984837   0.7220389   0.2662081  -0.0858109   0.2940929
   0.5181939   1.2483582  -0.8049242   1.8487552  -0.8704103  -0.0981985
   0.1007694  -0.0367308   0.0407079   1.5463305   0.2733501  -0.5986616
  -0.5056748   0.0211746  -0.4769366   0.3189012  -0.0732046  -0.0595227
   1.3524161  -0.2033709   1.3325110  -0.3135220   0.7173096  -0.0026444
   0.1107294  -0.4779907  -0.3241770   0.4773228  -0.1973530   0.5975497
   0.5770690   0.4908450   0.1871985  -0.2107573   0.0830178  -0.0283530
  -0.0455201   1.3761500   0.0884994   0.0226025   0.5490564  -0.9930486
  -0.0552476   0.4891478   0.1785147   0.6648203  -0.6667021   0.1049052
  -0.6164850   0.2228279   0.0433162  -0.1899536   0.0398336  -0.4055562
  -0.0010130  -0.5259842   1.5166179   0.4927952   0.4208239  -0.4951584
   0.2455488   0.3918446   0.2135490   1.0087626  -0.7397318  -0.6528472
  -0.6776802  -0.1911704   1.2435208   0.0799286  -0.1388475   0.4192097
   0.7607320   0.7326632  -0.7498036   0.7995117  -0.7610033  -0.7748950
   0.1040547  -0.0512447  -0.0514726   1.2777998   1.3967183  -0.8800318
  -0.2588431   1.2950793   0.6680926   0.3492110   0.1989679   0.1864250
   0.9757819   0.3543766  -0.0335296  -0.3822694  -0.6340602   0.9160080
   0.0258206  -0.3384830  -0.0416024   0.6669890   0.7702053   0.2986064
  -1.7630964  -0.0319186   0.5990258   0.1865039  -0.0750573  -0.2060900
  -0.4687730   1.4434369   0.2255448  -0.6374456   1.1818383   0.6271517
   0.0455142   0.2228315   0.0187966   1.6054119   0.4166749   0.3036172
   0.7520336   0.7491005   0.5612044  -0.3162403  -0.1454724   0.3889432
  -0.0219867   0.3440023  -0.2843635  -0.1843746   0.3241450   0.4374930
  -0.0215770   0.0228497  -0.1263756   0.2158156   2.1688705   0.4039590
   0.9230340   0.1057813   0.8322886  -0.2250079  -0.0130299   0.0025783
  -0.4768158   0.7010562   1.3775401  -0.7897742   0.3769861   0.4488526
  -0.2014463  -0.3023002   0.1865800  -0.4299112  -0.2021378   0.0518883
  -0.7512450   1.3166867   0.1486469   0.1391606   0.2865785  -0.1126549
  -0.5299940  -0.5929561   0.0428465   0.2983124   0.0836825  -0.5027050
  -0.2472059   0.1665146  -0.2384778   0.2822359   0.1750713   0.4710629
   0.0439491  -0.6006688   0.1371276   0.3131911  -0.3979186  -0.1177224
   0.5187830  -1.1700018   0.1214052  -0.5930366  -0.3588172  -0.7846285
  -0.1218893   0.2805222  -0.0865562   0.2214831   1.0845406   0.1486047
   0.2620615   0.4574011   0.0920764   0.0506041   0.2445659   0.1144495
  -0.3545387   1.1660160  -1.1256691   0.0495504  -0.7148588  -1.3014938
  -0.0723234   0.2666395  -0.0719702  -0.7293074  -1.6889800   0.4916333
  -0.2518118   0.9055083   0.0203001  -0.2964413   0.0872931   0.0262211
  -0.0233067   1.3522561  -0.2771936   1.0616873   0.1891733   0.4906581
   0.0628619   0.1146107   0.1334473  -0.3248233   0.9273951  -1.0467938
  -0.2577240  -1.3015685   0.8920079  -0.0520448  -0.0868450  -0.0239661
  -0.3883402  -0.8922909  -1.3777868  -1.2087622   0.4209629  -0.9103455
  -0.2707838   0.1429190  -0.1120659   0.6769763  -0.1645580   0.1511439
   0.2575896   0.5573520  -0.9008706  -0.3199597  -0.2685096  -0.0728464
   0.6518898   0.1138350   0.4015759   0.1231479   0.7635769   0.0927602
   0.1864169   0.1773034  -0.3172517   0.4968585   0.4958366   1.3600620
  -0.3880800  -0.6327399   0.0355867   0.0469447  -0.0734892  -0.3387826
  -0.7417557  -0.4361582  -0.0018679   0.2886759  -0.0309381  -2.0526645
  -0.0271906  -0.4905194  -0.2288305  -0.7646227   1.1938155   1.1549066
   0.2158360   0.4523602  -0.7672117  -0.2627903  -0.0111599   0.2501123
   0.3560688  -0.5015818  -0.1330874  -0.4593666   0.1781582  -0.6174913
   0.5767390  -0.0438379   0.3045926   2.2292468   1.3129848  -0.1385567
   0.1767430  -0.5531743  -0.0739302  -0.2225286  -0.1904674   0.2785924
   0.4725213  -1.1364811   0.6065932   0.3890205  -0.4503337   0.5995616
   0.0610467   0.1984462   0.0312604   0.0056773   0.1874144   1.9290520
   0.6582716   1.6644935  -0.3969370   0.6259047  -0.1161990  -0.2479832
   0.4530866  -0.4863744  -1.1299149  -0.8339277  -1.6028773  -1.0391822
   0.3592368   0.2030449   0.0794731  -0.1173310   1.2439223  -0.1540672
   0.8923966   0.4129117  -0.1349951   0.5564655   0.3944625   0.1959955
   0.9845144   0.7977572  -0.1293637   0.5183090   0.2904005  -1.1359472
   0.1073848   0.1636590  -0.1451576   0.2079370   0.6265972  -0.0582327
   0.0073559  -0.1552656  -0.3435406   0.0036661  -0.0273401   0.2053580
  -1.1431439  -0.8004295  -0.4675484  -0.4113538  -0.8798627  -0.4226442
   0.0503740  -0.1710894   0.1221212   0.7980480   0.9687621   0.7842628
   0.6321337  -0.2279482  -1.1947990  -0.0501201   0.1418008  -0.0082001
  -0.2117867   0.9270917  -0.6745022   0.1505813   0.3148838   0.1086518
   0.1639060   0.1052431   0.0913084   0.2579851   1.4156932  -0.1655825
  -0.6504675  -0.4752812   1.3620568   0.1056866  -0.1221406  -0.3579087
  -0.2094761   0.7373182  -0.6650227   0.5620700  -1.3274750   0.2675280
   0.3359629   0.0852873  -0.0132814   0.4440728  -0.5213752  -0.0282553
  -0.7138637  -1.5010412  -0.5996128   0.0026156  -0.0252017  -0.2645289
   0.9682250   0.5084120   0.3562929   0.2687476  -0.6946950  -0.9237803
  -0.0424621   0.2178206  -0.1011179   1.4316417   0.2575126   0.5049622
   0.0579997   0.7634367  -0.3248583   0.0279707   0.1111022   0.1267225
  -0.3333637  -0.5718859   0.0942215   0.6140896   1.3325951  -0.2321891
   0.1908447   0.1420850  -0.0591701   0.2925793  -0.8238291  -1.6020342
   0.0722910  -0.4268445   1.8383638   0.1346360   0.1571871   0.2630699
  -2.3695000   0.2027527  -0.3250930   0.6073465  -0.4734734  -0.3945008
   0.0006042  -0.1108936  -0.2689371  -1.0542892  -0.4463843  -0.0106724
   1.1479011  -0.8666564   0.8206985  -0.2933742   0.0685603   0.1034525
   0.7091904   0.4647834   0.1248994   0.0045380   0.6695129  -0.2054007
  -0.0302134  -0.1366618  -0.1407975   0.8147771   0.9465750  -1.1607585
  -0.5589634   0.8920196   1.7370205  -0.0664704   0.0196500  -0.1825478
  -0.7438484  -0.3375011  -1.1182788   0.0340425   0.5752338  -0.9477977
   0.2331219   0.4838425   0.1414345  -0.5936742  -0.4915427  -0.8351055
  -0.9692675   0.9020910  -0.1731161  -0.1949058   0.1578124   0.0701599
   0.0678491   1.4712076   0.2243076   1.0346765   1.9235776   0.1793371
  -0.2446680   0.0894142   0.1231044   1.3948960  -0.3555308  -1.4656368
   0.4175563   0.2640908   0.4388592   0.0102015  -0.0036673   0.1767025
  -0.8601830  -1.1596088  -0.1742196  -0.9325061   0.8728816   0.6940911
   0.2714564  -0.0738102  -0.0257313  -0.5883946   0.2283980  -1.0021727
  -0.8114993  -0.4338451   0.3915012   0.0582754   0.4238168   0.0025403
  -0.1862473  -0.4655542   1.2120211  -0.3129513  -0.3939936   0.5705661
  -0.0457732   0.0253785  -0.1301802  -0.0903432  -1.1419463  -0.1208275
  -0.2628777  -1.0634070   0.1432269   0.0895453   0.1387480   0.3059410
  -0.7963767   1.4242093  -1.1973841  -0.8628578   0.0336328   0.6308404
  -0.0648774  -0.1996028  -0.0179851  -1.3048496   0.0150456   0.1908960
  -0.6478174  -0.0099941   1.2369048   0.2313861   0.0847276   0.0123150
   0.4507202  -0.9829043  -0.0877010  -0.6010007   1.1091902   0.8136701
   0.0950904  -0.2348970   0.1282627   0.8844758  -1.0459051   0.7221006
  -0.4863827   0.6115188  -0.3638715   0.0431642   0.0674418  -0.2249265
   0.3276346  -0.0657477   0.7018353   0.2198328  -0.7708862  -0.1117153
   0.0651193  -0.1481469  -0.1840334  -0.3413793   1.5325238   0.8935362
   0.0839409  -0.0802145   0.4297971   0.1111318   0.0249615  -0.1530882
   0.1945586   0.2612254  -0.6160842   1.3356332   0.4562966   0.1370537
  -0.1468851  -0.2163307   0.2662710   0.0798174   0.4670003  -0.2535774
   0.8771750   0.2407249  -1.3282769   0.1031339   0.1047591  -0.1601738
  -1.0512692   1.6292496   0.1262986   0.9327877   0.2266348   1.3849230
  -0.1108486  -0.1034922   0.0934705   1.5679140   0.4415327  -0.8832214
   0.6029318  -0.2703176   0.3166410  -0.2936470   0.2309189  -0.0940830
  -0.4990344  -1.1604842  -0.0664345  -0.2332304  -0.0083303   0.3012751
   0.1875736   0.0586797   0.0481748   0.1711228   0.1511770   0.0414849
  -0.9132038   0.0835882   1.4239923  -0.1287026  -0.4730752  -0.1982610
  -0.9930230   0.4942918  -0.9418607   0.8036724  -0.0277208   0.6028198
  -0.2881915  -0.2567250  -0.2823120   1.7004140   2.0932038   0.3651264
   1.7507478   0.5813598   0.5377291  -0.2947451   0.0297891  -0.1306851
   0.1929844   0.2542593  -1.7465705   0.9213149   0.8420776  -1.3446086
  -0.2178562  -0.1993878  -0.1878632  -0.9526659  -0.6539229  -0.7816046
  -0.3206550  -1.3700776  -0.6184597  -0.0826636  -0.1733052  -0.2097143
  -0.3703535  -1.7002325  -0.6764801  -0.3907072  -0.7990553   1.9803723
   0.1210603   0.1830124   0.1634158   0.5928208   0.2775877  -0.1038743
  -0.3539522   0.3686662   0.9798065   0.0847876   0.0542370   0.2537808
  -1.3324647  -0.3836493   0.9299787  -0.1721656  -0.9913414   0.1712155
   0.2383210  -0.2534511   0.0363195  -0.6683966   1.1859171  -0.6092997
  -0.0548421   0.3875618   0.5192181   0.3558660   0.0787193  -0.0764840
  -0.0579245  -1.0077879   0.2466457   0.5513030   0.0040740  -0.5424903
  -0.0982485  -0.1221564   0.0898451  -0.8689339  -0.8784220  -0.4954320
   0.3745978   0.9620855  -0.6153566   0.1379702   0.2267849  -0.1970482
  -0.3907392  -0.0929584  -0.0067927   0.3595603   0.2132444  -0.8839128
   0.0776901   0.1118249   0.1887642   0.2062533  -0.8455268  -0.7271429
  -0.3979747   1.0125491   0.7951374  -0.1176309  -0.0770724   0.0580605
   0.0237584  -0.2732103   0.0421709  -0.6793926   0.9716065  -0.8851099
  -0.1313411  -0.0460219   0.1602284  -0.4499643  -0.7343684   0.4924522
   0.3572180   0.5299127   1.3299743   0.3466406   0.2072940   0.2860571
  -0.4045828   0.0255344  -0.1179342   0.7762845   1.4859363  -0.5604873
   0.0985375  -0.3074641   0.0225664  -0.8453954   0.0950418  -2.3712296
  -0.3282384  -1.1784709  -0.5153963  -0.1361999  -0.0234988   0.1044366
  -1.0364905  -1.5089731   0.1479404  -0.0241146  -1.1360915  -0.4218113
  -0.0358519  -0.1605293   0.0267254  -2.0223417   0.7279711   0.4475525
  -0.0119479   0.6842560   0.1723151  -0.0300905   0.1674693  -0.0746551
   0.3268369  -0.5884745  -0.7827034   0.3786874  -0.2225070   0.7202672
   0.4171490   0.0949867   0.3546538   0.7795007   0.9858017   0.3606352
  -0.9776686   0.2426708   0.7503477  -0.2488547   0.0963968   0.0576737
  -0.5622200  -0.7341912  -0.2744086   0.2665396   0.3336155   0.4464155
   0.0028698  -0.1253789  -0.1380878   0.1633333   0.3617600   0.5888243
   0.3442737  -0.7990960  -1.1279860  -0.0592185  -0.1387974   0.2439449
   1.4083275  -0.6083325   0.1671565  -0.1576348  -0.5557767  -2.0005036
  -0.0349593  -0.3419102   0.2850146   0.2241665   0.4692466   0.2287394
   0.3542212  -0.5997725  -1.4966542  -0.1547635  -0.0770041   0.2771537
  -1.1594065  -0.9284852   0.9976903  -0.6928078  -0.2113853  -0.2847251
   0.4311251  -0.2167237  -0.2844709   0.5514015  -0.1331425   0.2473447
   0.7209255   0.5777434   0.2959756  -0.1718336  -0.2701010  -0.0124029
  -0.1652451   0.6461617  -0.5846471  -0.5269645   0.1061047  -0.8836811
  -0.0958297   0.0536427  -0.1204464   0.4102655   0.6203712   0.0264773
  -1.1205365   0.0306925  -0.7375312  -0.0605508   0.3264046  -0.0087233
  -0.0439612   0.7482302   0.2397279  -0.8236959  -1.5181184  -0.2655755
   0.3477720  -0.2416988   0.1550064  -0.1177661   0.1249883  -0.0126776
   0.7710758   1.6255517  -0.7080659  -0.0638314   0.2404054   0.3350552
   1.0387484  -0.0025113  -0.4937901  -0.3948042   1.6573652   0.1621640
  -0.3139136  -0.2856762   0.3751389  -0.3001003   0.4216450  -0.7799784
   0.6133100   1.2687307   0.4072927  -0.2495666  -0.2436349   0.5102554
  -0.8856574   1.5737123  -0.1640253  -0.0992331  -0.1421794  -0.4467856
  -0.3580994   0.1590799  -0.0088182   0.1288195   0.3514505  -0.5711210
   0.2980426  -0.1793824   0.5303628  -0.0544294   0.0328813   0.3940821
  -0.4893512  -1.4813755  -0.4576765  -0.6220677  -0.6463474   0.2922427
   0.2087258   0.1674906  -0.0069113   0.5761748  -1.0044102   0.6335674
  -0.0310472  -0.1049061  -0.4278789   0.0132297  -0.4347151   0.3661847
   0.7300517  -0.4770205   0.2386799  -0.9151856  -0.1691943   0.6979715
   0.2381007  -0.0921132   0.0746293  -0.6273323   0.2099477   0.5169502
   0.6842496   1.2794667  -0.1366930  -0.2556841   0.0026814   0.1041800
  -0.2579531  -0.6373477   1.2727936   0.1080015   0.4205940  -1.0927493
   0.0971205   0.0684078   0.3074753  -0.8190912   0.0196983   0.8730926
   0.0912499   0.1228483   0.8540121   0.1638760   0.1245888  -0.0424173
   0.3173446  -0.3815257  -0.0507295   0.6115478  -0.2803050   0.3815717
   0.2560968   0.1266394  -0.2753702   0.4978427  -1.5208965   1.1584084
   1.6740525   0.2981250   0.1265835   0.0680480   0.5177709  -0.2946590
   0.9979029  -0.8342673   0.0671160   0.5186514   0.3755860  -1.0231350
  -0.0316204  -0.0633098   0.0563253   0.8632931   1.3297829   1.2147554
  -0.2151756   0.2324899   1.4034175  -0.0839023  -0.0935465   0.1751665
   0.6955497  -0.3137362   0.4049007  -1.2666730  -1.5731469  -0.3611777
  -0.3098654   0.3724789   0.2464496  -1.1425710   0.4554715   1.5811619
   0.3605888  -0.5238582   0.3001043   0.1357047   0.1628051   0.0826644
   0.0049181   0.7556257   0.2975124   0.1680366   0.0007963   0.9382700
   0.0397785  -0.1684463   0.1854445   1.4765613  -0.0922895   0.2088767
   0.2543375  -0.6565314  -0.2456071   0.1263296   0.1321319   0.0338916
   0.7266962  -0.0960096  -0.6333064  -1.2596544  -0.0192848  -0.6200850
  -0.0275010  -0.1038694   0.0007462  -0.1546520   0.6777319  -1.4957101
  -1.2109661  -1.1136149  -1.4248995  -0.4100730   0.2916534  -0.0880358
   2.2753014  -0.8153821   0.3212324  -1.7451845  -0.0932843   1.1287877
  -0.0835258   0.1946858  -0.1716918  -0.4588334  -1.5264361   0.1370058
  -0.9593863  -0.3565154  -0.2190570   0.1451439   0.2208913  -0.2297348
   0.3929809   0.5690936  -1.4303746   2.1495791   0.5574317   0.6941361
  -0.3593268  -0.0197780   0.2091681  -0.6358697   0.3389343   0.2810956
  -0.9659569   1.2400365  -0.0177961  -0.0185706   0.1009595  -0.0529839
   0.4878937   0.7068483   1.3407665  -0.5353708   1.1595987   0.1442558
   0.1235223  -0.0531245  -0.2649583   1.2742326   0.7445614  -0.0604006
   0.6137879  -0.6463724  -1.3417613   0.1622896  -0.1903786   0.0751553
  -0.8802402   1.7866770   0.5263075  -1.0991366  -0.7156119  -0.2110448
   0.0449537   0.0743037  -0.1339584  -0.4594832   0.9887812  -0.2437259
  -0.0904878   0.4778171  -0.2812104   0.2644635  -0.0724434   0.0543630
  -0.0106892  -0.4959226   0.4206031   0.3402718   0.2488454   0.3642330
  -0.0828745  -0.0656510  -0.2118664   0.4503794  -0.0468791   0.4838896
   1.4364939  -0.2343581  -1.3616990  -0.2312462  -0.0870402  -0.2423768
   0.0377130  -0.0529844  -0.1657013  -0.7331997  -0.0791990   0.2501333
   0.1197252   0.1007176  -0.6949037  -0.5677771   0.9649951  -0.4285802
   0.8043988   0.6882984  -1.2590820  -0.0682367   0.1402689   0.0713280
  -0.5241374   0.1959768   0.2641961   0.5221203   0.1936358  -0.3498638
  -0.2129392   0.0803301   0.2016653  -0.2340804  -0.4180178  -0.5031839
  -1.4404796   1.1047878  -1.3448545   0.0072616  -0.0522448   0.1146277
   0.6345998   0.2823015   0.4013733  -1.5499759   0.7237824  -0.6829912
   0.2631223  -0.1327828   0.0716378   0.9619590   0.8715146  -0.3330928
   0.1024057  -0.0441045   0.9642746  -0.0140695  -0.1443157  -0.0290297
   0.7757923  -0.0559896  -0.4218761  -0.0463872  -0.4907242  -0.7063715
  -0.2307695  -0.2565406  -0.0177885   0.2303648  -0.4501083   0.8099190
   0.0645089   1.1691258   0.4622732   0.0391122   0.1188654  -0.1834649
  -0.9916400   1.6844269  -0.4213092   0.4481851  -0.4516175  -0.8256279
  -0.0858344   0.0319231  -0.1657585   1.0408737  -0.1696632  -0.7079634
  -0.7872245  -0.6600083   0.3034200   0.3365839   0.1130126   0.3200806
  -0.4460873  -0.0752967  -0.7010555  -0.0985903   0.5622721  -0.4666670
   0.2903712  -0.0592801  -0.0496672  -1.0478983   0.7513227  -0.0705464
  -0.9257969   1.3102783  -0.0855549  -0.2375728  -0.2158171   0.3393482
   0.0784610   0.0548170  -0.4304476  -0.3593624   0.3670893   0.6037133
   0.1516777   0.4657401  -0.0219512  -0.2893797   1.0805792   0.7205427
   0.1134286  -0.5172662   0.1637878   0.1176996   0.2648922  -0.0873686
   0.3391399   0.9731874  -0.3335404   1.1575306   0.0380402   0.2392989
  -0.3030677  -0.0409057  -0.3272976   0.8566909  -0.4578375   1.3862511
  -0.8831155   1.0937117   0.9790486   0.0060021  -0.1905785   0.0171227
   0.0182278   0.2410712  -0.0181695   0.2226329  -0.5364806  -0.5007845
  -0.0488938   0.3731003   0.4308095   0.6022511  -0.4819313  -0.3836778
  -0.1560026   0.6194901   0.1065821   0.0981312  -0.2548583   0.1096934
  -0.6991439  -0.0420466   1.3166552  -0.1686215  -0.0233928  -0.2991818
   0.1066000  -0.0690547   0.2253784  -0.6083929  -0.5492696   0.8745719
  -0.2175685   0.3456064  -0.6037648  -0.1119771   0.0430421   0.0702797
   0.9282255   0.1008194   0.9275782   0.5943603  -0.4181597   0.2371867
  -0.3191818  -0.1246239   0.2345901   0.4139986  -0.8787999   0.4930733
  -0.1679912   0.1089340  -1.2728001  -0.0662155   0.2260389   0.1695726
  -0.3277277  -0.1179964  -0.9684673  -0.0026449  -1.8254112   0.4293486
  -0.0297689   0.1952347  -0.0949745  -1.0087213  -0.3149703   0.1938585
   0.5092651   0.2085834  -1.2693276  -0.0360189   0.1859356  -0.1998721
  -1.3293101  -0.6350009   0.1763967   1.5070204  -0.0218052  -0.3978237
   0.1748266   0.0746586   0.3789614  -1.7974328  -0.1814042  -0.1309209
  -0.3085171  -0.0730464   0.8168670  -0.1539246  -0.1903973  -0.1135717
  -1.4709132  -0.7540026  -0.7156132   0.3355157  -1.6481707  -0.0835405
  -0.1690128  -0.1920433  -0.2036307  -0.6804461  -0.6503016   0.2234286
  -1.5695604  -0.9842792   0.8323865  -0.1046642  -0.3058300   0.1321527
   0.2881831   0.6274039  -0.4418166  -1.2670582  -0.6559108  -0.0424135
  -0.0462997   0.1839894   0.2018860  -0.6740971  -0.1842844  -0.2139116
  -0.8524238  -1.2604843  -0.3376002  -0.1120618   0.0173085  -0.1995154
   0.3419000   1.0871033   0.8051258  -1.1529137  -0.9142465  -0.5005758
   0.0859595   0.0448861   0.3876373   1.3844365   0.0553231  -0.5578629
  -0.5281631  -0.7834772  -0.5187815   0.3321789   0.0387970   0.2564096
  -0.6881967   0.5807265  -0.4552513  -0.3026606   1.0302357  -0.1403895
   0.0003159   0.0357580   0.0078513   0.7102560  -0.9046449   1.2345100
  -0.3259332   0.9622146  -0.4995473  -0.1368550  -0.1659989   0.1947751
   0.0378384   0.2039671  -0.9241047   0.0190320   0.5922910  -1.0073115
   0.0860471  -0.1362835  -0.3356892  -0.3819202   0.9242010   0.1308549
  -0.0411991   0.1922149   1.2953951   0.2055591  -0.0675433   0.2047585
  -1.1124148   0.7774263   0.0139936   0.4126874   0.5787521   0.2302191
   0.1260462  -0.0050232   0.2210792   0.6159051   0.4912029  -0.6968548
  -0.4402891  -0.8184557  -1.4160581  -0.0713752   0.1834055  -0.1561165
  -0.4104126   1.5065485  -0.8612038  -0.3413893   0.0612630   0.0621704
  -0.2974428   0.0207300   0.1566888   1.2934856   2.0238962   1.2558814
   1.1022054  -1.0840040  -1.2093487   0.1022238   0.1838861  -0.0031131
  -0.7663654  -0.8588716   0.4342278   0.0868515  -0.2697838   0.7993558
   0.1055419   0.1881246   0.3559692   0.1841186   0.0112683  -1.6006853
   0.1841301   0.9709386   0.5530917   0.0763823   0.1036550   0.1822347
  -0.0087114   0.7425674  -0.2391628  -0.1905814   1.2041926  -0.9817502
   0.2353325  -0.1077641   0.0229053   0.0997917  -1.0487774   0.2234299
   0.2033222   0.8065925  -0.1344121   0.3399537   0.0437791  -0.1169581
   0.2507250   0.7216302  -0.5205492   0.6073192  -0.5913845   1.0016649
   0.1943690   0.0866161  -0.0229124  -0.3858392   1.2835101  -0.2042644
  -0.3885369  -0.9758472  -0.0378356   0.0591378  -0.0654241   0.1430626
   0.2680084  -0.3038979  -0.2427946   0.0805924   0.2948892  -0.4097965
   0.3456533   0.0913262  -0.0823471   0.8304367  -0.0989080   1.0340246
  -0.8660530  -0.6741304  -0.1972165   0.0426019   0.3040975  -0.1551676
   0.1008836  -0.5329498  -0.5585717  -0.3782407   0.6890913   0.2585716
   0.1405121  -0.1023816  -0.3068787  -0.5046072  -1.4782302   1.3970082
   0.4727827  -0.7247646  -0.2089088  -0.1692627  -0.1494914   0.2138671
  -0.6702447  -2.1987955   0.1944710   1.1890656   0.3211683  -0.3331506
   0.0141660  -0.2115319   0.0197073  -0.7305269   1.3682290   0.6209504
  -0.1297570  -0.1733201   0.2558461  -0.1925817  -0.1316372   0.0304869
  -0.1720319   0.6506720   0.1506841   0.8993093   1.8845629   0.4904375
  -0.1828723   0.1366368   0.4931853   0.1234316   0.0637755   0.3408912
  -0.1330353  -0.3752578   0.6093917   0.1126231  -0.1383693  -0.4241257
  -1.0943191  -0.9199744  -0.3923933   0.6297891  -0.6557492  -1.4869390
  -0.0535702   0.3953998  -0.1915937   1.5131143   0.5576594  -0.8087527
   0.2990999  -0.7421974  -0.1084700   0.0661655  -0.3488201  -0.0240717
  -1.8760703  -1.6687715  -1.0280381  -0.6566777  -0.6781894   1.7795878
   0.0849710   0.1642048  -0.1405670  -0.9179414  -0.1195608  -1.4766090
  -0.3933483   0.6949360   1.2927442  -0.0734569  -0.0231735   0.2080214
   0.7134383   0.2293410   0.1679525  -1.1589614  -1.2214410   0.2647728
   0.2338134   0.0539114  -0.0363370  -0.0379816   0.7414623  -1.1087120
  -0.4901053  -0.1686923   0.6279406  -0.1743939   0.4102265  -0.1414683
   1.4265467   0.2990036   0.0685576  -0.6241016   0.2784945   0.6790481
  -0.2394138   0.0633790   0.1417804  -0.6136947   0.6646749   0.4473779
   0.0758140  -2.1210907   0.4530676  -0.1905888   0.1597959   0.1333456
   0.2823120   0.9669227  -0.7988604   0.7415841  -0.6789799   0.0414723
   0.0151506   0.1294083  -0.0227694  -0.1571735  -1.1309614   0.4966979
   0.8712837  -0.3466122   0.1527864  -0.0937895   0.0563188   0.1710666
  -0.1867096   0.1066791   0.0553153   0.6316807   0.4385584   0.3223050
  -0.0143662  -0.1364747   0.3584066   1.2202195  -1.0100251  -0.8836908
  -0.0515729  -0.4151103   0.3751906  -0.0206408   0.2155386  -0.2366565
   1.4822014  -0.3233551   1.1202318  -1.3463027  -0.9800085   0.4356374
   0.2836978  -0.1237860  -0.0456447   0.7628696  -0.3887360   1.4115744
  -0.0681241   0.4966236   0.7760899  -0.0720749   0.0496522   0.0831266
   0.7658523  -0.3719284  -0.4192720   1.3644725  -0.2046157   0.5497804
   0.3032869  -0.0016709  -0.1992285  -0.3765236   0.2478594   0.1522525
  -0.1759579  -0.3944092   0.9056454   0.0453830   0.1505280   0.1394228
   0.0099090   0.2514812  -0.5848322  -0.5848794   0.2572619  -0.6092111
  -0.0843119  -0.1429333  -0.0578213  -1.3255058   1.0334432   0.0472068
   1.9243744   0.1560503  -0.2582046  -0.1337212  -0.0975487   0.2421406
  -0.0729459   0.1528516  -0.4220054   0.1877239   0.2357555  -1.1120371
  -0.2150641  -0.0257807  -0.0938338  -0.4382371  -0.7948363  -0.7595334
  -0.4127527   1.3864994  -0.5597770  -0.3561647   0.0089940  -0.1989828
   0.4349406  -0.0488539   0.7037521   0.0304843   1.0801312  -0.0899753
  -0.0423796  -0.2723383  -0.0454993  -0.2384702   1.6267331   0.0068197
   0.3339482   0.7198345  -0.1008607   0.2287934  -0.2070858  -0.1005414
  -1.6651962   0.3193069   0.2804170  -0.9669735   0.0371883   0.1227913
   0.4300402  -0.4008823  -0.0077284   0.3408009   1.0175039  -0.9002189
  -0.2338608  -0.1230958  -0.2965280  -0.2101866   0.1324886  -0.1236314
  -0.7478345  -0.3889651   0.1260521   0.0639230   0.1570772   0.2353223
   0.0734579   0.2241678  -0.1752076   1.2897934   0.1928403  -0.2326261
  -0.8118091   0.0149174  -0.1543942  -0.1794327   0.0457151   0.2352888
  -0.3252339   0.2434105  -1.0822765   0.0305036  -0.7544001  -0.8856809
  -0.0451045  -0.2167889  -0.1913001   0.7712235  -0.7737910  -0.0458620
  -1.0627347   0.7029614  -0.4521996  -0.0895460   0.1493228   0.0077922
  -0.4352620  -0.0730492   0.8119551   0.8118969   0.0755825   0.7507236
   0.0169939  -0.1084620   0.0463733  -0.9677123   1.6043772   1.7010267
   0.5390939  -1.6136862  -0.9976943   0.2127722  -0.3094788   0.1689300
   0.8330703   0.7186918  -0.8782847  -0.6873066   1.6264888   0.3055308
  -0.0568516  -0.1593744  -0.1164938   0.0040926   0.0870123   0.1933697
   0.5662986  -0.2696552  -0.6230233  -0.1996530   0.0489177  -0.2163056
   0.4459750   0.8322389  -0.4024883   1.5391725   0.2356164   1.0225235
  -0.0737118  -0.4457173   0.0955806   0.1421513   0.0499233  -0.4361855
   1.1997731  -0.3741767   0.1885336  -0.0943034  -0.1501832   0.3325150
  -0.0656900  -0.0164356  -0.0557147  -0.2110874   0.5660910   0.0670799
  -0.0511403  -0.2325127  -0.0248309  -0.7843331   0.2170985   1.0468484
  -0.3899342  -0.3388823   0.4052413  -0.1222245   0.1158878   0.1451301
   1.3034353   1.0212761   0.2752272   0.3088982   0.6734032  -0.3234533
  -0.3402410   0.1962119  -0.0280305  -0.9561083  -0.3250487   0.0617606
  -0.1283028   1.0791752   0.1867574   0.1598899  -0.0538666  -0.2582193
  -1.6469591  -0.1658501  -0.3140563   0.9270240   0.0341122  -1.1041808
   0.3871747  -0.0784566  -0.0064456  -0.2153492   0.2759388  -0.8788186
  -1.6352865  -0.6563375  -0.7699784  -0.1132306  -0.1994637   0.1141123
   0.7038832  -0.0991486   0.8431838   1.4691594  -1.3137529   0.4661443
  -0.0042565   0.4044367  -0.0257641  -1.2016167  -0.4672495  -0.1183349
  -0.1573181   0.4169927   1.1392428   0.1695618   0.0237429   0.2084084
  -0.5627498   0.5125931  -0.4961531  -1.3277724   0.6612661  -0.3778054
   0.4268814   0.2132755  -0.0787195   0.5166142   0.4145991  -1.2262190
  -1.3474468   0.8043161  -0.4831333   0.2181855  -0.1192793   0.1684074
   0.0113733   0.8249899   0.0204389  -0.5673390  -0.2442065   1.1259787
  -0.1371535   0.1134116   0.2570951  -0.0164797   0.3519851  -0.3582149
  -0.7809119  -0.1276243  -1.2924161   0.1890430   0.0029952  -0.0653799
   1.5218251   0.2507071  -0.3443876  -0.4288842  -0.4272258  -1.5397070
   0.1674041   0.2537300  -0.0084528  -0.0274951  -0.1255863   0.3685390
  -0.2789661  -0.8470461  -0.4161667  -0.0327564  -0.1953058   0.1095130
   0.1860506  -0.5557545   1.3040956  -0.8019789   0.5327826   0.5023762
  -0.3846220   0.0742079  -0.0865720  -0.5420343   0.9411115  -0.2458042
   1.4378860   1.9446739  -1.1977125   0.0972138   0.2247107  -0.1681427
   0.5278763  -1.1689189   1.0096884   1.4842300   0.0477919  -0.7628777
  -0.3496115   0.0669703   0.0308801   0.0437248  -1.5439722  -0.2217868
  -0.9945987  -1.1298759  -0.1133352   0.2463685   0.1766159   0.0401376
  -0.9547833  -0.3273618  -0.9449666   0.1782954  -1.1028503   0.5681869
   0.1183378  -0.1214454  -0.2174332   1.5679847   0.8652522   0.5304052
   1.8389667  -0.9124892  -0.0535275   0.0306511  -0.0264539   0.2988891
  -0.2576899  -0.0550011  -0.8775286  -0.4244706  -0.2507275  -0.7906596
   0.0242673  -0.2614378  -0.1750004   0.2166091  -0.5824322  -0.0391634
  -0.2084529   0.7308076   0.6965158  -0.3245466  -0.2073006   0.2361453
   0.8015257   0.2479488  -0.2160825  -1.8277758   0.7952277   1.2018133
  -0.1122336  -0.0056811  -0.1622164   0.7736036  -1.0470950  -0.0709163
   1.0522596  -0.6109691   0.8876373  -0.2403981   0.0818428   0.0910508
   1.4428437   0.8853720  -1.3521622  -0.5160865   0.6942391   0.2230468
   0.5266221  -0.2514516   0.2385728   0.1441327   0.0664102  -0.4726054
  -0.8071981  -0.5565647  -1.9975789   0.0361308   0.0079559   0.1430153
   0.5213899  -0.8038292  -0.2991887  -0.0876360   0.4825402  -0.7878652
   0.1606958  -0.0789402   0.0803012  -1.2338608  -0.5395128  -0.0219008
   0.4316073  -1.2861193   0.0261670  -0.0373714   0.3600660  -0.0884045
   0.7643015  -0.0738426  -0.5941004   0.3867193  -1.3846356  -0.7215033
  -0.0095685   0.2663959  -0.0855010  -0.3032376   1.3630661  -0.4414329
  -0.0794557  -0.2986432  -0.3646105   0.2312943   0.0817510   0.1413218
  -0.0674906  -0.5096884  -0.1298843   0.4838517  -0.4376524   0.7400244
   0.0356646   0.1043453  -0.4489408  -1.1156004  -0.4209391   0.5722174
  -0.4818758   0.3412463  -0.1778777  -0.0782713   0.0551059   0.1018981
  -0.6178860  -0.5472747  -2.1179711   0.1154050  -0.8791090   0.6033605
   0.0999091  -0.0481790   0.2210732   0.1087656   0.3010160   0.1471464
  -0.1659056  -0.5270231  -0.4695390  -0.0808314  -0.0947312   0.0296680
   0.3881720  -1.6896909   0.0974162   1.9509397  -0.3276003   1.0106910
   0.4528403   0.0774146   0.0388122  -0.7586572  -0.2127387  -0.4488409
  -0.6543964  -0.4334918  -0.5214556   0.0603001  -0.1315758  -0.0037445
  -0.7427226  -0.0053009   2.1700842  -0.6769980  -0.7598282  -0.5074381
  -0.0513363  -0.0194629  -0.4384296   0.1977852   0.2186749   0.4117293
  -0.8685359   0.5476569  -0.4501582   0.0253166  -0.0677575   0.1624446
   1.2258001  -0.5944317  -0.3030570   0.7156673  -1.3050301  -0.6392730
  -0.2332661  -0.0819691   0.0279365   0.4692845  -0.1599147  -0.0478345
   0.5980733  -1.4537175  -1.1125674   0.1048933   0.1345165   0.1777386
  -0.4856748   0.7205076   0.0433048   0.6778214  -0.5153874  -0.4222801
  -0.0349215   0.0110736  -0.1105724  -0.5125230  -0.5559840   1.0919076
   0.5995716  -1.1527446   1.6066563   0.3031730   0.1132896  -0.1416994
  -0.4124858   1.7332813  -0.2565230   0.8358045   0.1627332  -0.6419457
   0.1161901  -0.3566237   0.1206332  -0.1262294   0.7406419   0.9376751
  -0.8678596  -0.3603232  -0.5378009  -0.4351315   0.1561202  -0.1083088
   0.5236127   1.3833213  -0.1720354  -1.7978992   0.5022437  -1.6470762
   0.0378270   0.0219059   0.2956611   0.9252990   0.4855463  -0.4043221
  -0.0983456   0.2662070   0.5955698   0.0799280  -0.0091435  -0.1031560
  -0.4874201  -0.0763692   0.6728953   0.5475947   1.2221736   0.3290952
   0.0477290  -0.0418647  -0.1384351  -0.0515020   0.2243781  -0.3317300
  -0.1965888   0.0722978  -1.5461857   0.0195362  -0.0762106   0.0667060
   0.0181670  -0.4053664   1.4790883  -0.0564006  -0.7234779   1.3323597
  -0.2457040   0.1891659  -0.0317572  -0.6098441   1.2030435   0.0527241
  -0.2376307  -0.2080870  -0.5563869  -0.0936092  -0.0313308  -0.0014643
  -0.1596731   0.5273847  -0.3472471   1.1043996   0.0109897   1.0005080
  -0.2030895   0.0727326   0.0908478  -0.3898818   0.3429000  -0.5976475
   0.8295889   1.2671712   1.3675511  -0.2492756   0.1996897   0.0857287
  -0.4787950   2.0917046   0.2736289  -0.5495411   0.7576049   0.0191453
  -0.0953058   0.0872910  -0.4048439   0.4252623   0.1758690  -0.4990274
  -0.5892599   0.9339353  -0.3527601  -0.2130542   0.3056431  -0.0723886
   1.1403498  -1.4637516   1.2894434   0.2500522  -0.3694077   0.2924172
   0.1023106   0.0971917  -0.0359535   0.3846631   0.8819451  -0.1475289
  -0.6344727  -0.2046453  -0.9586837   0.2905078  -0.2074483   0.1598050
   1.0011331  -1.0900067  -0.0715982   0.4645865  -0.4022185   0.5140646
   0.0817800   0.2464122   0.0843886   0.7490607   0.3080485   1.4788988
  -0.3978561   0.1748958  -0.2426565  -0.3588093   0.1611198  -0.1663260
  -0.8558526   0.7757723   0.5576637   0.8279729  -0.0189261   0.2050174
  -0.2615844  -0.3026434  -0.1856418   0.0062522  -0.8019286  -0.0304892
   0.1762675   1.1316409   1.2528028  -0.1186261  -0.2443404   0.1401892
   2.4095166   1.8629070  -0.0583750   1.1184458   1.1304904  -0.1643396
   0.0475276  -0.1849680   0.1034036  -0.8043336   0.8927385  -0.5073162
  -0.8336815   0.5157071   0.5426025   0.0181106  -0.0282810   0.0689655
  -0.5773521  -0.6641030  -0.4987847  -0.0508159   0.1943059  -0.7366333
  -0.1132507  -0.1691772   0.4471215   1.0932188   0.2005359  -0.7074276
  -0.0785419   0.0503506   0.5143928  -0.1861458   0.1875396  -0.1034726
  -0.3923688   1.7499179   0.7619578   0.9291064  -2.6785904  -0.8598320
   0.2013289  -0.3111827  -0.0351470   0.7717949  -1.3229842   0.8461157
   0.0225783   0.5213526   0.7035063  -0.1754482  -0.0286119   0.2197297
   0.3760149   0.2217981   1.0633331   0.8084379   0.4066591  -1.5188738
   0.0677744   0.1209298   0.0788203  -0.3397774   0.0202656   1.8723234
   0.4081806   2.0712912   0.5712974  -0.0172076   0.1123056  -0.2978801
   0.6040428   1.4401271   0.6488286   1.0936938  -2.1771876  -0.5572429
  -0.0232515   0.0221683  -0.1132013   0.2217791  -0.3677335   0.8656532
  -0.3107700  -1.2356731   0.7521369   0.0235536   0.0184587  -0.0990921
   0.6430510  -0.7387639   1.2503219  -0.1429219  -0.8353658   1.0320155
   0.1784977  -0.1722089  -0.1526395  -1.0694259  -1.6159071  -0.5057536
  -0.0785098  -0.3882234  -0.3066685  -0.1928390   0.5881949  -0.1437380
  -0.6413580  -0.0064555  -1.1899652   0.5300255  -0.5611434  -1.0178298
   0.1002101   0.1567998  -0.2907326   1.1757741  -0.1821888   0.8721312
  -0.6216601  -0.6258264  -0.6029396   0.1449918  -0.0493657   0.1201790
   0.3548962   0.8062532   0.9251255  -0.1682023   0.4631759  -0.4032899
  -0.0001495   0.0930282  -0.2047400   0.1337121  -0.5679333   0.5818817
   1.0447725  -0.6460208   1.7878429  -0.0549673  -0.3010303  -0.2515212
  -0.3275755   0.3635155  -1.0434498  -0.7195982  -0.3676299   0.7398220
   0.0897033   0.0994596   0.0221666  -0.1845316  -0.1218752  -0.0889787
  -0.6210785  -0.1279844   0.0396302   0.2692204   0.0088245   0.4295989
  -0.5211795   0.3803253   0.6495977  -1.0064829   0.4291012  -0.7401973
   0.1759459  -0.0008430   0.0779031   0.6393256   0.9352316  -1.5198782
   0.0116695   0.8030290  -0.8188480   0.0146932  -0.2966708   0.0563761
  -0.7724127   0.3963228  -0.2824433  -0.5528342  -0.0356681  -0.5802389
  -0.1015732   0.2342236  -0.0362659  -0.3563988  -0.6402394   0.6723372
   0.0670056  -0.1469901  -0.1320461   0.0062923   0.0805907   0.0253028
  -0.4841494  -0.7916427   0.0113294  -0.5411272   0.6165559   0.2977929
  -0.0961279  -0.4582917  -0.0018489  -1.1610315   0.2565789  -0.1080150
   0.1093509  -1.4443109  -0.3117959  -0.1783656   0.0044240  -0.0386536
   0.0379667   0.9287617   0.7198602  -0.8052629   0.3464301  -0.5393192
  -0.0982346   0.0418222  -0.1543835   0.1941700  -0.2651279   0.7382269
  -0.5920744  -1.1316249   0.0998617  -0.0204950  -0.0270760  -0.1222314
  -0.1374031   0.2806606  -0.5237001  -0.4630617  -0.2826232  -0.2726030
   0.0897551   0.3163009  -0.0242576  -0.7777619   0.6686802  -0.8824207
  -1.1570593  -1.9020936  -0.5517238  -0.2304438  -0.0015963   0.1995334
  -0.7125645   0.3995146   1.8723736   0.4933570  -0.8479552  -0.1605882
   0.3657379   0.0405123  -0.0963108  -0.3022681   0.5610302   0.2847365
  -1.0207096   1.7973794   0.1383090  -0.1285029  -0.1842433  -0.1998100
  -1.0117482   0.0041425   0.1145427   0.9046066   0.5001999  -1.3858767
  -0.0728079   0.0097765  -0.1918152   0.5961991   0.4986014  -0.4214546
   1.4421588  -0.6622174  -0.5045773  -0.2536634   0.1633986   0.0906428
  -0.0779208  -0.6111788   0.7863072   0.1872049  -0.6613373   1.5964679
  -0.3379812   0.1682159   0.1433100  -0.0030066  -0.6012487   0.3368217
  -0.9980135  -1.2851600  -1.5872514  -0.0336606  -0.0231797   0.0597370
   0.1340302  -0.3238531  -0.4302094   0.8981437   1.9376893   0.7980000
   0.3157310  -0.1094807  -0.1353564   0.6514794   0.6132235  -0.7494460
   1.6417163  -1.1671841   0.6790525   0.0619930  -0.1311481  -0.0896986
   0.7133627   0.2750758  -0.0868967   0.4937388   0.3558666  -0.9020959
   0.0463207  -0.6260012  -0.3855170   0.3168568   0.9283112  -0.5840595
  -1.7668121   0.9110335   0.9493460  -0.0558130  -0.1996016   0.0942753
   0.4000973  -0.1198711   0.9006387  -0.1141037  -0.8785696  -0.0802457
  -0.1634725   0.2802951  -0.3032948  -1.2744677   1.3389941  -0.9425355
   0.5639015  -0.6187639  -0.4568175   0.0956641   0.1506388  -0.0773114
  -0.5793153   0.2375412   0.2102089  -1.1657243   0.4938994  -0.1008095
  -0.1399659  -0.3587065   0.1957880  -0.0938504  -0.8000184   1.1687615
  -0.9723273   0.1115158   2.3491516  -0.3912302  -0.1897433   0.3766883
   0.1243744   0.2040646  -1.3148774  -0.3480606   0.0360635   0.9888949
   0.1522419  -0.0278067   0.0606622  -0.4432417   0.7932314   1.1642820
  -0.0660897   1.2239279   0.9308105  -0.1141064   0.1476436  -0.0265141
   0.9757868   0.2605458   0.0582454   0.2517461   0.8747686  -1.5461559
  -0.5515402  -0.0276613  -0.2842910  -0.4252089   0.1122229  -0.5509624
  -0.5442954   0.8125803   1.0260400  -0.2948206  -0.1007196   0.4979758
  -0.5697662  -0.6592291  -0.2520319  -0.7841866  -0.0580922   1.0857629
  -0.0079957   0.1636606   0.1193545   0.7059198   0.5860855  -0.1402337
   0.2552017  -0.7016313   0.7942678  -0.1362614   0.0298040  -0.2275058
   0.0636382  -0.5197625   1.7544298  -0.5561944   0.3182215   0.0032310
  -0.1151379   0.3084669   0.0948997  -0.4769767   0.2602584   0.9525793
  -0.0328736  -1.1129113  -0.2487982   0.0235363  -0.0774498   0.2535127
  -1.0602487  -0.7534931  -0.5466696   0.4672348  -0.3652665   0.6635932
   0.0664326  -0.2493133  -0.2812957   0.5408989  -0.1100733   1.5522501
   0.3742354  -0.3220998   0.7343281   0.0683294  -0.1577351   0.0117329
  -0.4682451  -0.0134613   1.2001012   0.6676432  -1.0794940   0.9207616
  -0.2761767  -0.0316655   0.2837265  -2.0824144  -0.8451661  -0.5680803
  -0.8642895   1.6054408   0.6401381  -0.0178121   0.1798632  -0.1470358
  -0.1033580  -0.5453646  -0.0865213   0.1500637   1.0867600  -0.4841322
   0.0161554  -0.2750588   0.1208138   0.4844437   0.2542639   0.1099028
  -0.8229394   0.4983160   0.0897273  -0.2077746  -0.3912678  -0.1416535
   0.3814848  -0.5159638  -0.4682609   0.3921397  -0.7391012   0.6922228
  -0.1782074   0.0478436   0.2214511  -0.5404483   1.0492679  -0.0020880
  -0.4981684  -0.2058787   0.4118474   0.1481545   0.1003606  -0.0572141
  -0.0345659  -0.3384156  -0.1350963   0.3787873   0.4814279   0.6809206
  -0.2317745  -0.2291768  -0.0012722   1.4058273   0.3405976   0.6731715
  -2.3468780  -0.2761663   1.5723214   0.0893954   0.0094728   0.1906117
  -0.0350754  -0.0123726  -0.1123723   0.1429436  -0.0910040   0.0451275
  -0.2422483   0.1260088  -0.4404534   0.8464520   0.5093204  -0.0429391
   0.3553355  -0.5044344   0.8531087  -0.1868538  -0.0802859  -0.0060569
  -0.6643551  -0.6105003  -0.3255031   0.5906293  -0.1528007   0.1052446
  -0.0510147   0.0623402  -0.1788970   0.0077035  -1.2327089  -0.0563002
   1.4086572   1.1508973   1.0785851   0.1493707  -0.4046214  -0.1239544
  -0.0413714  -0.9615962  -1.2147544   0.6534068  -1.1450842  -0.8603782
  -0.2231415  -0.1874383   0.0837852  -0.5857674  -0.1226496  -1.4090141
  -0.7094034   0.6012476   1.4000726  -0.1478020  -0.0788415   0.2734619
   0.3165904  -0.2831070  -1.0095402  -0.0750761  -0.6049255  -0.4141747
  -0.2679881  -0.1488777   0.0284984  -0.5166071  -0.2616146  -0.5976194
   0.9301363  -0.6401696   0.8898416  -0.1253595   0.1496267   0.4876736
   0.2644154   0.6318392   0.0343943   0.5219867   0.5327055  -0.5149003
   0.0584679  -0.1945010   0.0849699   0.1444283   1.3871428   1.0903676
  -0.0997761  -1.3720560   0.1295548  -0.0753897   0.1795584   0.3233709
  -0.1770722   0.4868092   0.3642942  -0.1420124  -0.2587958   0.6382338
   0.1275392  -0.0361490  -0.0362986  -0.2930682   0.0758209  -0.0454297
   0.2431365  -0.6206122  -0.1865932  -0.2532143   0.1464894   0.2849876
  -0.3037817   0.7481567  -0.6113319  -1.0008097   0.6034869   0.2939936
   0.2209798   0.0095995   0.2224887   0.3556234   0.3370657  -0.8345872
   0.5603360  -0.4256282  -1.0497875  -0.2873030   0.1333707  -0.1786280
   0.8002856  -0.2256211  -1.0523476   1.4421875   0.9430918   0.7502382
  -0.0160817  -0.0230992   0.1347798  -0.1693315  -0.9767124  -0.1863652
  -0.9231426  -0.6910643   0.2910929  -0.0419688   0.0961972   0.0518132
   1.1106825  -0.4294902  -1.4937517   0.8772188  -0.1252873   0.8412417
  -0.2448286   0.1723332  -0.0626469   0.0799203   1.0139010  -1.3153797
   0.2875913   1.2260085  -0.3709024  -0.4098594   0.0187658  -0.2857991
  -0.6034171  -0.0350918  -0.5732788   0.6897013  -1.6053924   0.6166833
   0.1401678  -0.3072218  -0.2126825  -0.6253921   0.2296606   0.5114938
  -1.0329192  -0.8040899  -0.5711893  -0.1209555   0.2435871  -0.1594673
   0.9430139   0.5282588  -0.3416497   1.5000672   0.7557755  -1.5287807
   0.1554585   0.3671721   0.0556596   0.6978532  -0.2172757   0.0759540
  -0.6642237   0.2246546   0.0179318   0.0765656  -0.1256719   0.2991971
  -0.3335870   1.4190800   1.1373310   0.8153285  -1.9181141  -0.9717436
  -0.0480041  -0.0348569   0.2176320  -0.2502300   0.1939948  -1.2226873
   1.1698123  -0.5512458  -1.4099661  -0.1064067   0.0759871   0.2131463
  -0.1242184   0.7032271  -0.6067598  -0.9304732  -0.3584662   0.3522787
   0.2050473  -0.0322176  -0.0671296  -1.0833016   0.9958294  -0.1694799
  -0.2753356  -0.0447348   1.0029171   0.0713739  -0.0289362   0.0529318
  -1.2825462  -0.6219034   1.2376854   0.3247564  -0.4694224  -1.5188925
   0.0818570   0.2105223   0.1579161  -0.2675690   0.8155352  -0.3269556
  -0.0214781   0.8006656   0.5418672   0.0653100  -0.0022242   0.0051034
  -0.1522656  -0.4963769   0.4940731  -0.1088483  -0.8406446   0.5890825
  -0.5337019   0.0258381  -0.1303173  -0.3142642  -0.0156873  -0.2054010
  -0.1881830   0.6599530   0.2181319   0.2069250  -0.0349767   0.1343759
  -0.6543540  -0.0516123  -0.4293499   0.8028723   1.4403499  -1.0102650
  -0.3260226   0.0610445  -0.0762448   1.3168212  -0.8079808  -0.6448057
  -0.4450592   0.2254205   1.1633783   0.0097805  -0.1562169  -0.0716760
   1.4092085   0.7733598   0.4636395  -0.0644523   1.9411145   1.4884940
   0.1135612  -0.0195858   0.1376633  -0.5801943   0.9483344  -0.7212936
   0.0842638   1.0683069  -0.0515155  -0.1513733   0.1655856   0.0419336
   1.3466627   0.1251230   0.3906625  -0.3459227  -0.5369508  -1.2747633
   0.0994901  -0.1075902   0.0303424   0.0250410   1.5560519  -0.3950065
   0.0885736  -1.3072297   0.3653824  -0.0407969   0.0707590  -0.1609130
   0.1491502   0.9071201  -0.0939456   1.0911598  -0.3998621  -0.0683137
   0.0338670   0.0939328   0.0760174   0.9821365   0.0308195  -0.2855802
   0.4277585   0.5750203  -0.0571482   0.3426716   0.2039315   0.0296830
   0.5890882  -0.1972971  -0.0760800   0.2301784   0.0741471  -0.2203872
  -0.4688292  -0.1294762  -0.4677575  -0.6044844   0.5089741  -0.1297319
  -0.0717086   1.0821286  -0.2975941   0.3137138   0.1983006  -0.0388733
  -0.7990522  -0.2959847  -0.0216988  -1.1304018   0.3113891  -0.5987630
  -0.1534563   0.1891551   0.1242027  -1.2369705  -0.8791016   1.5002685
  -0.4130157   0.1662940  -0.7509963   0.1886041   0.1275382   0.0431660
   0.3821372  -0.9321211  -0.0823750  -0.8710975   0.5825688   1.7024946
  -0.1182882   0.1979765   0.0765650  -0.1527864   0.4301109  -1.1968164
  -1.2030980  -1.3242337   0.1742258   0.5760134  -0.1902708   0.1353004
  -0.1201158  -0.7650816   0.2907080  -0.6243286   0.3907762  -0.4573203
  -0.2656945   0.0537326  -0.0019051   1.2399687   0.4539932  -0.3136992
  -0.3183871  -0.3690024   0.8869718  -0.0279680  -0.0232185   0.0029733
   0.3156811  -1.5005058  -0.0515179   0.0088835   0.1367726   0.8919031
  -0.0153465  -0.0816375  -0.0526218  -0.4124599   0.5786800  -0.0513616
  -0.3333098  -0.9226278   1.1389014  -0.2663997   0.2496708   0.0685404
  -0.8691326  -0.3666739   0.1400302  -1.0478223  -0.5038302  -0.3524926
   0.2963110  -0.0900131   0.1768790  -1.2620651   0.6668908   0.5819128
  -0.7172767   0.7982704  -0.5302198  -0.2606231  -0.0727760   0.2886656
   0.8486952  -0.5640782  -0.3543558   0.3439367  -0.1260465  -0.9264599
  -0.1134410  -0.0305774  -0.1309775  -0.2252284  -1.1337577   0.0973008
   0.1946211  -1.4474763  -0.7070104   0.1494428  -0.1111719  -0.1960158
   0.8621817   0.8822846   0.3707121   0.2191682  -1.6425217   0.6747665
   0.1660988  -0.0066051   0.0523259   0.8074593  -0.0481607   0.7565000
   0.1471839   0.5400523  -1.6436682   0.1234646  -0.2252213   0.1019675
  -1.4372811   0.1946448   0.9984025   0.8255689   0.0080479  -0.8013241
  -0.0112187  -0.1967074  -0.1059031  -0.3987482  -0.2018338   0.4667950
  -1.1159796  -1.1046434   0.2587891  -0.1440878   0.0581264   0.1311569
  -0.8512416   0.3653130   0.4878665  -0.4789135  -0.1091343  -1.1245430
   0.0801440   0.0606931   0.0176625  -0.2577929  -0.2850677   1.1556418
   0.3162239  -0.2362930  -0.4569652  -0.1101076  -0.0469233   0.4590323
   0.5073690  -0.4819858   0.1982175  -0.0727372   1.3668970   1.6334154
   0.1625070  -0.0210177   0.2886316   0.7042109   0.3011844   0.9266416
  -0.6967451  -0.8751276  -1.1944581   0.3356017   0.1209143  -0.3381324
   0.3442442  -0.7862107  -0.9574749  -1.3370449  -1.5358676   2.3426397
   0.3740810  -0.3424955  -0.0765355  -0.0315991  -0.7553703   0.7956025
   0.9908412   0.2659405  -0.7253397  -0.0314127   0.0513889   0.2021641
  -0.4936856  -0.2950843   0.7875207   0.6466872   1.4382810  -0.4850170
   0.1389328  -0.1335661  -0.1706671  -0.7912750   0.3408667  -1.2518323
   0.5389003   1.6506276   0.5411776  -0.1867676  -0.0090676  -0.0602042
  -0.1525372  -0.3029627  -1.3670942  -0.0103532   1.4629916  -0.1416657
  -0.0919800   0.0858327   0.2302654   0.6138208  -0.5088250  -0.3311618
  -0.1712956   0.0448904   1.0219875  -0.1606993  -0.0033836   0.0259839
  -0.1034262   1.8116080   0.6376302   0.3268847  -0.1695601  -0.2412365
   0.3905026  -0.0605736  -0.1429736  -0.1314249   0.5972059   0.2487786
   0.3409223   0.2269149  -0.5903528  -0.2835219   0.2111123   0.2100874
   1.2147123  -0.3293484   1.1411198   0.5775547   0.5151886  -0.6741764
  -0.0996564   0.0379554  -0.0341175   0.7060327  -1.0374568   0.8491786
   0.5542615   1.7453790  -0.9821405   0.1330043  -0.2494880  -0.0453138
  -1.5497639   0.2096291   0.9278432   0.2602496  -0.0204344  -1.0315692
   0.0930370   0.0011725   0.2187101   0.6016842  -0.1791772   0.0514557
  -1.4660372  -0.7996588  -1.0373899  -0.1287549   0.0417303  -0.0857306
   0.4119341  -0.3905335   0.4002076   0.7465550  -0.0915824  -0.2361455
   0.1261292  -0.2526172   0.2345595  -1.0079716  -0.6836364  -0.7808816
  -0.7217338   0.1135235  -0.1611601   0.2707685   0.1558225  -0.0581983
  -1.2017894  -0.9512502  -0.3701130  -0.1636866  -0.8664497  -0.1153445
  -0.3343890   0.0118000   0.3696161   0.6497366  -0.7521430   1.1335833
   0.3182826  -0.7035979  -0.4731100   0.2926044   0.1595244  -0.3772630
   0.1283294   0.6881053   0.9470748   0.2889037  -0.6064429  -1.6272063
   0.0644721  -0.2968225   0.1463620  -0.7017039   1.3796469  -0.8834603
   0.5731065   0.3896653   0.0329283   0.0724489  -0.2616308  -0.1564600
   1.6839051  -0.2093504  -0.0779458   0.5552057  -1.0059599   0.8962992
  -0.7623561  -0.1726620   0.3492060   0.7285361  -0.5741931  -0.8978331
   2.7866069   0.4587780   1.3685764  -0.1432283   0.1562320  -0.0690396
  -1.0145098   0.2696669   2.0355470  -0.0635652   0.2957621  -0.8071562
   0.2348453  -0.1681817   0.1597107  -0.8497562  -0.5720911  -1.5819968
  -0.2515126   0.3100972  -0.2069121   0.1078819  -0.2067745   0.3732469
   0.2024298   0.0516907   0.2222158   0.3429265  -0.0648190  -0.3574968
  -0.1194131   0.0203749   0.0224134  -0.5632487  -0.3610911   0.0700757
  -0.4984906  -0.5962045   0.4509956   0.2748948   0.1001598   0.2162660
   1.0412083   0.1648693   0.6415249  -0.4809651  -1.2825562   0.5868111
  -0.0280813  -0.0670549  -0.1077195  -0.7977529  -0.8355356  -0.2604720
  -0.4083619  -0.0789750  -1.7614919   0.0602465  -0.0663282   0.0136759
   0.6639551   0.7341774   0.7674897   0.3453448   0.2828494   0.3762667
   0.0172189  -0.0846607  -0.1219059   0.8072384   0.1078457   0.9132945
   0.5544966  -1.3069059  -0.0799377   0.0348315  -0.0150665  -0.2989597
  -0.4085480   0.5315124   0.3975719  -0.3069006   0.3088974   0.2616894
   0.3242202  -0.0535408   0.0372965   0.8777965   1.1954106  -0.0648893
   0.0173687   0.0709752   0.4289204  -0.2871783   0.2596620   0.0370659
   0.6361116  -0.0896368  -0.6865665   0.1501373  -1.4923352   0.1057490
   0.2385901   0.2211498  -0.0113834  -1.7379871  -0.2488437  -0.5554953
   0.6879386   0.6320069   0.3688591  -0.0973592  -0.4873078   0.2672519
   1.0954139   1.0574003   1.0339075  -0.9408602  -0.1719997  -0.5110777
  -0.1642439  -0.0504888   0.3149966  -0.8501741  -1.2504480  -0.5000161
  -0.0457546  -0.1806384   0.6794491  -0.2353114   0.1218921   0.2750495
   0.3696007   0.7468798  -0.1639975   0.4607902   0.2270131   0.2939766
  -0.1513119  -0.2932258  -0.1441277  -0.2719924  -0.6052099   0.3797238
   0.8839624   0.1161807  -0.8356956  -0.0882137  -0.0464356  -0.2249427
  -0.2673996  -0.2783405   0.3237345   0.5292690  -1.2874703   1.1186665
   0.3815780   0.1293751  -0.2231161  -0.0788191  -1.4404270  -0.9256152
   0.5892974  -0.4297130  -0.1371385  -0.1224759  -0.1477271  -0.1946720
  -0.4207546   0.0150675   1.9730974   0.5136619  -0.5571496   0.8689551
  -0.2452254   0.0206622  -0.1602715   0.7772871  -1.1084306   0.2222042
  -1.2326601  -0.1105577  -0.7423437   0.2729688   0.0108459  -0.2612415
  -0.4232213   0.6703584   0.4185443   1.1533145  -0.1818024  -1.0895404
  -0.0229431   0.0155758   0.1212370   0.5858029   0.1262207  -0.0383669
   1.0240707  -1.0165558  -0.2844632   0.1231539  -0.0328809   0.0392568
  -0.1225708   0.1200696   0.2492459   0.0916178   0.6717554   1.2061651
  -0.4086188   0.2836292  -0.0980991  -0.0872027  -0.8930356   0.5830500
  -0.2404434  -0.3574244  -0.6847943  -0.0562035  -0.1610396   0.0054402
   1.3560060   0.4692803   0.4664236  -0.7558467  -1.4779280  -0.3805039
   0.1898991  -0.3721507  -0.1656461  -0.6483378   0.4370160  -0.0572488
   0.6229188   1.0399444   0.0938324   0.0181482  -0.1354001  -0.1920914
   2.0138245   0.3020899   1.3662620   0.9463766  -0.5860660   1.0217651
  -0.2985525  -0.0104188   0.0897603  -0.9667087   0.4096770  -0.5576118
   0.1773942  -0.2611100   1.1220252   0.1892015  -0.0799855  -0.1518050
   0.1320778  -1.1762550   1.4743820   1.2889532   1.1434460  -0.6997108
  -0.0256814  -0.3313787  -0.0049011  -1.8796074  -0.5880180  -0.6310148
  -0.2890928   1.1513363  -0.4069976  -0.1186307   0.2863764   0.2893992
   0.0911655  -1.2251123  -0.2124568   1.2428455  -0.5741149  -0.4532523
   0.3177838   0.2097708   0.1591512  -1.4591055  -0.7720601   0.1686703
   1.4806523  -0.9693877   0.5668616  -0.1526268   0.0185227   0.4352786
  -1.4690875   1.2853366   0.2045552  -1.5566608   0.3197626   0.9192403
   0.1213405  -0.2254193  -0.1881074  -0.5926363   0.1403455  -0.4935611
   0.7566974   0.1308845  -0.6772939   0.3898210  -0.0605454  -0.0269144
  -0.8552285   0.9549600   0.0241980   1.2751000  -1.0975904   0.2211248
  -0.1198860  -0.0719384  -0.1438122   0.6226000   0.3024486  -1.3288997
  -0.8608406   0.3710796   1.3338118   0.1910636  -0.2202896   0.2249532
   1.4814408   0.3498576   0.9957235  -0.7300903   0.4794677  -1.1111882
  -0.2839338   0.0179892  -0.2004011  -0.8559221  -1.0504741  -0.7277660
   2.0286882  -0.3295380  -0.6750351  -0.1061803  -0.3875127   0.3077430
  -0.5205499   1.0479688   1.5382636   0.5880341  -0.4401291   0.6967935
  -0.1018693  -0.1276592  -0.0251886   0.6316635  -0.8373684   0.4571999
   1.1962097  -0.1191764  -0.7427866  -0.1395904   0.2779063  -0.1834198
  -0.2671291  -0.7612195  -0.5659575   2.3576778   0.6583459   0.1693664
   0.0141964   0.0686254   0.2849225  -0.4840270  -0.1703155   0.5371407
  -0.0338315   0.6559291  -0.2123598  -0.1907049  -0.1045502   0.2860219
  -0.4443188  -0.1217813   0.7081462   1.2081113  -0.3533872  -0.0067872
   0.0931177   0.1342064   0.0525305   0.9139336  -1.1283117   0.6706034
   0.1745528   0.0158362   1.4590446  -0.1341838  -0.0507435  -0.2633709
  -1.3693915   0.0757948  -1.1105843   0.0685880   0.3486287  -0.2865216
   0.1045453  -0.0847246   0.2804010  -1.3674192   0.7496603   1.0065878
   1.0886189   1.1919677  -0.5797271   0.0203060   0.0583796  -0.3661061
  -0.0627656  -0.5658487   0.7184307   1.1735130  -0.7409652   1.8758733
  -0.0999225   0.1264095  -0.2094928   1.0358528   0.2885425   0.2219349
  -0.6554964  -0.3067732   0.2543790  -0.0392727   0.0019778   0.1520871
   0.6281553   0.4065310   0.7436181   0.0745457   1.8071604   1.2794015
   0.0516860   0.0913723   0.0099227  -1.0281914  -0.1189337   0.7392322
  -0.2302342   0.9794814   0.0074144  -0.0424177  -0.0859413   0.2970970
   1.0838384   1.3780005   0.5581321  -0.7330690  -0.5300653   0.3870822
  -0.0440769   0.1147104   0.0335622   0.6045624   0.7367155   0.3761536
  -0.1749377  -0.8610421  -0.0904939   0.1545685  -0.0282527  -0.0591077
  -0.3053723  -1.1088247  -0.9341006   0.5290227   0.2812397  -0.1664125
  -0.0948384   0.1949037  -0.1686775   0.4161784  -0.7173869   1.2516561
   0.2097235   0.4870856   0.2331541  -0.1776440  -0.0966702  -0.3636997
  -0.6156441   0.1961628  -0.5264201  -0.5628971  -0.6159907  -0.5540045
   0.0560619  -0.1734679   0.1700385   0.2193768   0.7923269   0.8611967
   1.2683001   0.3342125   1.4361929  -0.1045200  -0.0985658  -0.1200433
  -0.5006355   0.6987441  -0.6390147  -1.6526130  -0.9189317  -0.0095410
  -0.0587002  -0.3209246  -0.1662672  -0.3328605   0.5476064   0.7312956
   0.6882080   0.5406718  -1.1405872  -0.2048005  -0.2045012  -0.1348171
   0.2849336   0.3064087   0.3453969  -0.8983503  -0.3138680  -0.3476404
   0.3417425  -0.4182609   0.0286879   0.1780460   0.7857712   1.3209153
  -0.5857966   0.6710733   0.3100674   0.3288172   0.0327790   0.0532119
   0.1538399  -0.2949666  -0.3062880   0.4613858   0.4531181  -1.0776615
   0.3125257   0.2301425   0.0180068   0.2424718   0.4069047  -0.6053916
  -0.8420766  -0.6929917  -0.1138813   0.5976643  -0.6104750  -0.0829014
   0.5929458  -0.5044436   0.4198942   0.3592666   1.5853031   0.5550355
  -0.0241556  -0.2317624   0.0884361   0.4296111  -0.2910644  -0.2812749
  -1.4427296   0.4685767   1.2199402  -0.0574697  -0.2039028  -0.1907146
   1.1597199  -0.1004234  -0.6080400  -0.2354826   0.9312913   0.9156564
   0.1218197  -0.1937361   0.0784230  -0.4885793   0.0235380  -0.5065671
  -0.4702193  -1.3724273  -0.1977780  -0.0975775  -0.0639579   0.2805651
   0.8265539   0.0980330  -1.5006217   0.7598417  -0.0892818   0.9688709
   0.2296062   0.3422089  -0.3055087  -0.8540644   0.1733905  -0.7911174
  -0.1066705   1.1739519  -0.5316330   0.0251533   0.0296397  -0.0940590
  -1.6630019   0.2098206   1.0810461  -0.4131605  -0.8088069  -0.0695868
   0.2917947   0.6014093   0.1908524   0.6015121   1.4508377  -0.1150248
   0.2342109   0.9731349  -1.4184196   0.5376690   0.0738856   0.0094695
  -0.4297328  -0.8415477   0.0491307   0.6039962   0.2055081   1.0604159
   0.1425310   0.0028052   0.0866466   0.8003283  -1.0915213   0.3763194
   1.2708551   0.9615967   0.9379788  -0.2666693  -0.2233364  -0.2432377
   0.3875114   0.1957816  -0.0138246   0.5632104  -1.0066101  -0.7667852
   0.0924538  -0.1080253  -0.1460520   0.6795425   0.8200335  -0.0069671
   0.2177149  -0.3653263  -0.2152581  -0.0170758   0.2859453   0.0774033
  -0.8843907   0.4788365   0.9929472   0.7732184   0.4463402   0.8348094
  -0.1924239   0.0171225   0.2216354  -0.0684639   1.5271619   0.1831709
  -0.8080213  -0.3584901  -0.0071746  -0.1364465  -0.0255149  -0.1898455
   0.1617960  -0.4392536   0.3317515  -0.6300967  -1.0359336   0.1151996
   0.1028026  -0.1990477  -0.3916935   0.7296700   0.1010788  -0.0371374
  -0.8658091   0.3465476  -0.8647256  -0.1939396   0.1416517   0.2095785
  -0.5889396   0.0066452   0.2382094   0.5764477  -0.5315970  -0.4089892
   0.2781919   0.0476451  -0.2016445  -0.4386017   0.7199255   0.0018763
  -1.0348009  -0.1838317  -0.3841580   0.1609464  -0.0928783   0.1242953
  -0.7083386  -0.9955642  -0.3601089   1.2589819  -0.3143624  -0.0213857
  -0.0149360   0.0540137  -0.0463079   0.4466942  -0.5934075   1.7679773
  -0.0786580   0.0930294  -0.6937582  -0.0348470   0.2200874  -0.1254421
  -0.6909506  -1.2863851  -0.2407850   1.4580343   0.2204286   1.6943023
   0.1510862  -0.3616752   0.1262288  -0.0487133   0.0854208   1.8756184
   1.2579528  -1.0982262   1.0383119  -0.0198589   0.0310936  -0.0360986
  -0.8616717   0.0218183  -0.5049630  -0.5556299   1.1787828   1.0374564
   0.0039586  -0.2337412  -0.1456049  -0.7725198  -0.1157645   0.7521593
   0.2463186   0.7643812   0.2386350  -0.0285697   0.2036488   0.1141349
  -0.5487700  -0.2497497   0.5352071   0.5893451   1.0219090  -0.1566689
   0.0575588  -0.1232348   0.1984458  -0.0377750  -0.2484917   0.6146596
   0.3919325   0.8429514  -0.6149343  -0.2573615  -0.1109781  -0.1711386
   0.1839230  -0.6539573  -0.0213595  -1.2503358  -0.4660639   0.1775498
  -0.0669211   0.1339030   0.3143215   0.4125918  -0.7549913  -1.1251440
  -0.8766870  -1.0306689  -0.6058973  -0.0221105  -0.3177179   0.0898678
   0.2701082   0.3669893   0.1063394  -0.3956524   0.2161880   0.2467184
  -0.0158407   0.0162767  -0.2136195  -0.3972832   0.1348212  -1.3520701
  -1.0453159   1.5394411   1.7854017   0.0471594  -0.0548377  -0.0985250
   0.4923252  -0.0117335  -0.6050309   0.5169781   0.1313482   0.3547252
  -0.0227354   0.1085049  -0.0884671  -1.1161899   0.0317615  -0.3030263
   1.2452889   0.9001589   0.5460270   0.0473045   0.3308560  -0.4360141
   0.5880539   0.1054831   0.6722527   0.4802385  -0.5162278   0.6308767
  -0.1862969   0.1789226   0.0781327   0.0576712   0.4571327   0.6154908
   0.3453799   0.7137132   0.1900062  -0.0718454   0.0662219  -0.0840899
   0.3930105  -0.5571407  -1.2592666  -0.4997991   0.7392594  -0.6859337
  -0.4041420   0.1080147  -0.1609688   1.5133227  -0.1870885   0.5179347
  -0.4030669  -0.8869567  -0.2253880  -0.1167198   0.1122086  -0.0332365
   1.1461077   0.7111661  -0.4442496  -1.8518352   0.6499605   0.4754067
  -0.0362682   0.3970401  -0.2949104  -1.2684842   0.5576504   0.8461190
  -0.3564900  -0.1158099  -0.5023884  -0.3331317   0.2192524   0.1217855
   0.2843586   0.1997191   1.3164272  -0.0253178  -0.4926409   0.1967095
  -0.0095347   0.0983668   0.1721664  -0.3636008   1.2690755   0.5159969
   0.3819531   0.5017435  -0.1965444   0.0050432  -0.0147379   0.0147420
   0.2465511   0.3674623  -0.5407013   1.3684372   1.6117396  -0.4049704
  -0.0439431  -0.1016278   0.2308064   1.6891070  -0.5428759   0.5549357
  -1.2031354  -0.0108256   0.5586374  -0.0150129   0.2494139  -0.0468626
   0.5503188  -0.1933790  -0.8214248   1.1446584   1.4023956   0.2742941
   0.3730975   0.1060368   0.5056693  -0.8278194   1.1639486  -0.4129392
   0.3092223   0.1712028   0.3636198  -0.1817840  -0.1612382   0.3031086
   0.2536457  -0.4612959  -0.2961543   0.2444253   0.1444428  -0.0875502
  -0.0772597  -0.1208504  -0.0850211  -0.0015355  -0.7795096   0.6119032
   0.1881503   0.6734683   1.2911444  -0.3532066   0.1358298   0.0211424
   1.0112483   0.6788631  -0.0987855   1.2087303   1.3535876   0.2959868
  -0.1902252   0.3104687   0.0865934  -1.0819580   0.5426538  -0.1154641
  -0.7553160   0.2835938  -0.1402592  -0.1623931  -0.0544734   0.1615190
  -0.9965198  -0.4573484  -0.5648115  -1.1191036  -0.4186396   0.2271322
  -0.0818977  -0.0925749   0.1488229  -0.0319161  -1.2043119  -0.3235463
  -0.7692989  -0.3077020   0.1033543  -0.0262831  -0.0820728  -0.1430165
  -1.4355775   1.2408247  -0.0715836   0.5462263  -0.0309023  -0.0557666
   0.1770665  -0.1319898  -0.0688880   0.9312748   0.2234927   1.1210730
  -0.5814362   0.3387791   1.8108315  -0.1355659  -0.2038681   0.2438933
  -0.6189665   0.3211756  -0.2343867  -1.7606056  -0.6537144   1.4189323
  -0.2394967   0.2435263  -0.1690002   0.2878287  -0.1341627  -1.4521646
  -1.2427547  -0.6222051   0.1065941   0.0333174  -0.0243005   0.1310511
  -0.7928847  -1.9965188  -0.9674144  -1.0625042   0.3570277  -0.1658518
  -0.1250239  -0.0470868   0.1106514   0.2035985   1.5501211  -0.9221745
   0.0691076   0.5667327  -0.1776102   0.1848504   0.1298443   0.3312358
  -0.7083792   1.2026240   0.6475787  -0.7869556  -0.4360376   0.3066630
  -0.0932002   0.2655098   0.2912316   0.3821667   1.2884208  -0.5807446
   0.0913714   0.0157513  -1.8768796   0.0449639   0.0339545  -0.0629409
  -0.5287072  -0.7235088  -0.1997696  -0.6883508   0.3025745   1.5680741
   0.3304223  -0.1678835  -0.3161297   0.1331856  -0.9264876  -0.1487766
  -0.2564563  -0.1752987   0.6502203  -0.0032960   0.2017268  -0.1622793
   0.3741674  -1.0814351  -1.4680782   0.2109722   0.0225272  -0.7684340
   0.0020944  -0.0636165  -0.1298306   1.2960451  -0.1812409   0.8372832
  -0.0831608  -1.3921475  -0.2122046   0.0730579  -0.0931541  -0.0114006
  -0.7702269  -0.1538544  -0.7106879   0.3123823   0.3999590  -0.6145042
  -0.0669942  -0.1115323   0.1006835   0.9437625   0.9825145   0.6425256
   0.7590429   0.3258407  -0.2111110   0.0391703  -0.0320805  -0.2654496
   1.7134021   0.0390660  -0.3593869  -0.4162985  -0.2562733  -1.5200031
  -0.0983633   0.0844823   0.1565238   0.0908930  -0.2412129  -1.3927568
  -0.5979834   0.0644717   1.4415119  -0.0537097   0.1348642  -0.3442190
   0.3300712   0.3107567  -0.6565225  -0.5050135  -1.1362192  -1.1568440
   0.0342284   0.3234901  -0.0831090  -0.4923107  -0.8949433  -0.0748755
  -0.5541662   1.2246127  -0.7696580   0.3476501  -0.0647080  -0.0697782
  -0.0403400  -0.2513861  -0.1088678   0.3463814  -0.2480821   0.4182922
   0.1051557   0.0173738   0.0012455  -1.0978179   0.0258564   0.8276629
   0.6448372   0.2082548  -0.5979055  -0.3977518   0.2905652  -0.1609233
   0.1165032   0.8886081  -0.4765136  -0.3182401   0.1026346   2.0780762
  -0.0369893   0.3065485   0.1966619  -0.4257129  -0.2338107  -1.4121228
   1.6415912  -1.4350160  -0.1965306   0.4114965  -0.1713826   0.2045647
   0.8543794  -1.8410320  -1.0301967   0.7547326  -0.5811630   1.6518767
  -0.1704142   0.1702956  -0.0140519  -0.5553409  -0.0704297   0.3854790
   1.6374135   0.2920613  -0.3037983   0.1386642   0.2325243  -0.0769056
  -0.7739484   0.9152014  -0.8828399  -0.9194318   0.6609407   1.2502444
   0.0893845  -0.2399514  -0.0450243   0.3438074  -1.1732110   1.1040805
  -0.1354456   1.1084532   0.2967514  -0.1884304  -0.0292284   0.0064558
   0.1730502  -1.4291079   1.1710023  -0.4433336  -0.7273640   0.5319119
   0.1386151   0.0470480  -0.0777567   1.2256833   0.0438752   0.7705361
   1.2031406   0.0145956  -0.8706659  -0.0879405   0.2245131   0.2849184
  -0.8400776  -0.3581338  -1.1321312  -0.1999910  -0.9978874  -0.3187274
  -0.3138059   0.0102235   0.0855380  -0.6241639   0.6004838  -0.4366832
  -0.2221721  -1.0703519  -0.0757389  -0.2819279   0.0385734  -0.3150811
  -1.1862888  -0.7011591  -0.3658873  -0.1130126  -0.2767457  -0.6004983
  -0.2021540   0.2445380   0.0030703   0.1385738   0.7760652  -0.3622360
  -0.7117635   0.3000549   0.3628058   0.1783315   0.0668800  -0.0092120
   0.0511828  -0.7812065   0.6967446  -0.0072349  -0.4515365  -0.9906435
  -0.2598458   0.0631539  -0.0742172  -1.0933642   0.3360185  -0.5809140
   1.6051721  -1.5796440   1.2810244  -0.2970043  -0.0028242   0.3278180
   0.1970369   0.4800688   0.9654847   0.7953167   1.2542934  -0.3748212
  -0.2597198   0.2207270   0.2465261  -0.0104354   0.9705156  -0.3067839
  -0.7489870  -0.0387472   1.4800971   0.1052196  -0.3078976   0.4554132
   0.4315968  -0.5636784  -0.6495681  -0.2001635   0.5127129   0.0201984
   0.1572733   0.1624466  -0.3342432  -0.0567929   0.2798079   0.2542861
  -0.8283748  -0.2777015   0.2635273  -0.0502559  -0.1099778  -0.0515592
   0.7445563   0.0211588   0.6453779  -0.3701493   0.2470497  -0.1653586
   0.1191800  -0.1327361   0.1100313   1.0098485  -1.5272399  -0.0044603
  -1.1978804  -0.2695372  -0.7775306   0.0056315  -0.3177574  -0.2007778
   0.3937374   0.6595795  -0.0902648   0.4691007   1.4820493   0.2632067
  -0.1892412   0.3090758   0.0111359   0.3128819  -0.2321087  -0.6108937
  -0.3549578  -1.5898588   0.1629374   0.0413528  -0.0357256  -0.3008500
   0.1912148   0.2362906  -0.3587527   0.6059426   0.7238776   0.9251117
  -0.0936549  -0.1789058   0.2887142  -0.4641882  -0.8245310   1.3881518
   0.3288405  -0.2905677  -1.2055831  -0.2974016  -0.3740784   0.0030172
  -1.7257134  -0.2584220  -0.2835222   0.9556780   0.5159827  -1.3437336
   0.0402604   0.1041165   0.2977123   1.7951933  -0.4618863   0.4886388
   0.1744843  -0.1353503  -0.8674326  -0.3998284   0.2901704  -0.1296533
  -0.1893960  -0.7067014   0.0198006   0.6156865   1.6385362   0.5301036
  -0.4336435  -0.0592782  -0.3281426   0.3101107  -0.2688058  -0.3541824
   0.7280377  -0.2104178   0.0660468  -0.0139822   0.0404121   0.1357871
  -1.1196087   0.5546115  -0.7330795  -0.2900988   0.2785866  -0.6962014
  -0.2182354   0.1242373  -0.0817686  -1.0682613   0.2813348   0.8117747
  -0.3002091  -0.2675100  -0.8586072  -0.0783124   0.0779100  -0.1417256
  -0.2840613   0.8681152  -0.0247393  -0.0254405  -0.9715748  -0.9206987
  -0.0816833   0.0972575  -0.0465476  -0.7437069  -0.0982465   0.2842684
   0.1604918   0.7127394  -0.3392001  -0.1868372  -0.2528574  -0.0684992
  -1.2445556  -0.8760024   0.0266438  -1.3523216   1.1786363   0.2548902
  -0.1871639  -0.1165623  -0.0006284   2.1361984   0.0390116  -0.8566627
  -0.1679390   0.0653243  -0.1353479   0.2274525   0.1711066   0.0158410
  -0.3271095  -1.4878043  -0.2923193   0.9058111   1.4431909  -0.2943790
  -0.1634667  -0.3922404  -0.0868622   0.7014429  -0.3490111  -0.2237248
   1.2807831   0.7440128  -0.4594563   0.0665759  -0.1108542   0.1702088
  -0.9706627   0.1042291   0.2977085  -0.0732193  -0.6331613  -0.1164322
   0.0315874   0.3430804  -0.1930142   0.2623212   0.0775444   0.0463420
   0.6623787  -0.6293016   0.2678436  -0.0211933   0.0047565   0.3356056
  -0.2853400   0.9419544  -1.2099080   1.0453055   0.7034592   0.1804100
  -0.2197825   0.1839252  -0.0533035   0.6605031  -0.3461154   0.6009094
  -0.8680988   0.9580624   0.4074817   0.1534671   0.1284937   0.2095344
  -1.9863614  -0.6824462  -1.3665427  -1.1364209   0.8886566   0.0059913
  -0.2294951  -0.1528713  -0.0127097  -1.0157594  -0.2285069  -0.3779019
   0.1050623  -0.6365385   0.3833488  -0.1588686   0.1292574  -0.2238584
   0.7854797  -0.5163019  -0.2515641  -0.8073244   0.7263680  -0.4914260
   0.0597151   0.4866428   0.0539677  -0.3434859   0.2188386  -1.4635783
  -0.2748675   0.0959026   0.3080491  -0.0170736  -0.0426545   0.1655629
   1.1687023  -0.6823366   1.6631622  -0.0796697   0.3532014   1.3680324
   0.1513184   0.2175610  -0.0618351  -0.2062722  -0.9771868  -0.6754607
   0.0101414  -0.2872848  -0.1642204   0.0696201  -0.1127910   0.0706943
  -0.4057490  -0.5785980   0.0441087  -0.1391910   0.1655018  -0.3957566
  -0.1154597   0.2006204  -0.0755054   0.8122547  -0.5436887  -1.0243232
  -0.9941944   0.4395134   0.3127144   0.2126562   0.0519202  -0.1223538
  -1.4472637  -0.0504588  -0.5262555   0.4802997   0.9751668   0.3140863
  -0.0911596  -0.0607372   0.0236543  -0.5623370  -0.5899407  -0.2785778
  -0.3331559   1.9889748   1.0313371  -0.0171090   0.0871576   0.0954245
   0.6275070   0.1750067  -1.0088466  -1.2018316   0.3003741   0.6483924
   0.2065299  -0.2183236  -0.2592180  -0.5170733   0.0003771  -0.1818124
  -1.1311358  -1.5953158  -0.3297830  -0.0906734  -0.0669155  -0.0378057
   0.6384976   1.0906054   0.8296356   0.1993381   0.6655451  -0.8748158
  -0.0676832   0.1066283  -0.0518756   0.0809268  -0.4366353   0.9743317
  -0.8437100  -0.3297507   1.0863794  -0.0824485   0.4636005   0.2661121
   0.2475754   0.5879762   0.4458857  -0.6280703   0.5838459  -0.9398614
  -0.3077278  -0.0179634   0.0935359  -0.0676978   0.5693262  -0.7858259
  -0.4733097  -0.5057318  -0.3586825   0.1040906  -0.4752306  -0.1685583
  -0.1740799  -1.7835370   0.3305073   1.7191308   1.2211030   0.5814748
   0.0162503   0.0347985   0.4538453  -0.1069945   1.2011844  -0.4813427
  -0.0647995   0.5935475  -0.3265536   0.3261179   0.1195732  -0.0389950
   0.3086880  -0.1603914   0.1979827  -0.0696439  -0.0170239  -0.9955211
  -0.1009099  -0.2787884  -0.0993485  -0.2733584   0.6901232   0.6186068
  -1.1937874  -0.3526677   1.4617054   0.3440244   0.0351944  -0.2396598
   0.6745246   0.5035033   0.0209804  -1.5021836  -0.1918819  -1.3308612
  -0.1337553  -0.3288370  -0.0523234  -0.8146332   0.0468740  -0.2230387
  -0.6592996  -0.5828535  -1.0270177  -0.3619071   0.1022635   0.3120578
  -0.1955583  -0.0925928  -1.3719353  -0.8952205  -0.0202994   0.6512787
   0.1912268  -0.1133470   0.0774507  -0.1910326   0.7079319  -1.2051928
   1.0974161   1.2293134  -0.7410677   0.1299972  -0.0687532   0.0387706
  -0.2420046  -0.0788068  -0.5733242  -0.1116235  -0.3413759  -1.2785575
   0.0002647  -0.3145381  -0.1679432   0.5521225   0.5977451   0.4299069
  -0.6090853  -0.7361812  -0.5513961  -0.0818212  -0.0379698  -0.0091120
  -0.6397744   0.2995193   0.8319211   1.3234348   0.5037817  -0.6950325
   0.2846223  -0.0577981  -0.0812557  -0.2043897  -0.2147816   0.2183865
  -1.3948720  -0.7508473  -0.8242128  -0.2207220  -0.2348291  -0.1171485
  -0.3801871   1.0151685   1.5668540  -0.3940400  -0.4825371  -0.6256406
  -0.2770233   0.3901977  -0.1494199  -0.0447341   0.4032449  -0.4076990
   1.3586552   0.1720510   0.4323643  -0.0696863   0.2095771  -0.2021215
   0.3447314  -1.5253898   0.4445276   0.5725986   0.9482684   0.8866466
  -0.1016248   0.0410268  -0.0239150   0.4454197   1.7443160   0.8059479
   0.2300810   0.0507231   0.0204933  -0.1561900  -0.0630606  -0.0078187
   0.1688802   0.0203015  -0.2590828  -1.2502180   0.6519014   0.8109278
   0.0113271  -0.2636995  -0.2219943   0.5393342   1.1681951  -0.8979907
   0.1123480  -2.0231500  -0.5355661  -0.5252629  -0.0526329   0.0132764
  -2.0272409   0.8182710  -0.1689205  -0.2471033   0.1543138   0.0358650
  81.4855175  81.4855175  81.4855175 109.4712219 109.4712219 109.4712219
