Cpptraj Generated Restart                                                       
40242
  41.9329987  43.7389984  73.4700012  42.3069992  44.4039993  74.0250015
  42.1100006  42.8520012  73.8270035  40.9430008  43.9420013  73.5139999
  42.2750015  43.8349991  72.0630035  43.3030014  44.0480003  72.0459976
  41.9370003  42.4640007  71.3460007  40.8829994  42.3610001  71.0889969
  42.5919991  42.4570007  70.4570007  42.2949982  41.1889992  72.1709976
  43.1679993  41.3120003  73.0339966  41.8530006  40.0719986  71.8629990
  41.5760002  45.0099983  71.4540024  40.3380013  45.0229988  71.2519989
  42.3670006  45.9920006  71.0169983  43.3559990  45.9519997  71.1100006
  41.8359985  47.1679993  70.3109970  41.0550003  47.5369987  70.9749985
  42.8899994  48.1940002  70.1740036  43.5250015  48.2970009  71.0000000
  43.5289993  47.7849998  69.3489990  42.4560013  49.6440010  69.7020035
  41.2890015  50.0489998  69.9430008  43.3180008  50.4179993  69.3190002
  41.1510010  46.8969994  68.9700012  40.0180016  47.3320007  68.7109985
  41.7249985  46.0330009  68.0759964  42.6689987  45.6959991  68.3960037
  41.5200005  45.8110008  66.6350021  41.5040016  46.8190002  66.0960007
  42.5890007  44.9070015  66.0729980  42.4280014  44.7989998  65.0520020
  43.9010010  45.6790009  66.1859970  44.1730003  45.7039986  67.2590027
  44.7190018  45.0989990  65.5869980  43.8600006  46.7109985  65.8119965
  42.7430000  43.4550018  66.6380005  43.0079994  43.5289993  67.7289963
  41.8359985  42.9039993  66.5500031  43.8120003  42.5439987  66.0059967
  44.0159988  41.7019997  66.6529999  43.5099983  42.1730003  64.9739990
  44.8050003  43.0429993  66.0009995  40.1819992  45.2500000  66.2269974
  39.9700012  44.9379997  65.0569992  39.1739998  45.2280006  67.1380005
  39.2869987  45.7290001  68.0120010  37.8740005  44.7109985  66.8889999
  37.7589989  44.2809982  65.8889999  37.4739990  43.5699997  67.8690033
  37.6160011  43.9840012  68.8619995  36.3969994  43.2750015  67.7829971
  38.2589989  42.2599983  67.6630020  37.6959991  41.2130013  66.8600006
  36.6959991  41.2779999  66.5260010  38.4449997  40.0309982  66.7149963
  38.0060005  39.2589989  66.1159973  39.7459984  39.9620018  67.2929993
  40.3409996  39.1059990  67.1539993  40.1850014  40.9799995  68.1299973
  41.1800003  40.8639984  68.6709976  39.4650002  42.0530014  68.3369980
  39.8520012  42.8699989  68.9240036  36.7669983  45.7900009  67.0009995
  35.6479988  45.6170006  66.5690002  37.1339989  46.9059982  67.6910019
  38.1529999  47.0330009  67.7890015  36.3160019  48.1380005  67.9199982
  35.2960014  47.7960014  68.1299973  36.9280014  49.0060005  69.0729980
  37.7560005  49.6040001  68.7409973  36.1829987  49.7560005  69.3140030
  37.4179993  48.2490005  70.3690033  36.6170006  48.0519981  71.0640030
  38.0709991  47.3919983  70.1510010  38.4189987  49.2039986  71.0550003
  39.2659988  49.1529999  70.4509964  38.0480003  50.2500000  71.1350021
  38.6590004  48.7770004  72.4560013  38.0769997  48.0750008  72.8960037
  39.7140007  49.1679993  73.1689987  40.6389999  49.8069992  72.6370010
  40.6640015  50.1269989  71.6500015  41.3240013  50.2309990  73.1989975
  39.8240013  48.8100014  74.3809967  39.0509987  48.3009987  74.8209991
  40.7140007  48.9000015  74.8779984  36.0229988  48.9650002  66.6520004
  36.8730011  49.1300011  65.7880020  34.8650017  49.7000008  66.5899963
  34.2859993  49.7490005  67.3710022  34.6679993  50.5680008  65.3880005
  34.7509995  50.0190010  64.4339981  33.2249985  51.1559982  65.4520035
  33.1380005  51.8889999  66.2860031  33.0900002  51.7299995  64.4729996
  32.2299995  49.9970016  65.3750000  32.3769989  49.5849991  64.3990021
  32.5009995  49.1920013  66.0979996  30.7539997  50.3689995  65.5009995
  30.5450001  51.0419998  66.3399963  30.4619999  50.9309998  64.6849976
  29.9689999  49.1320000  65.6679993  30.1830006  48.4780006  64.8410034
  30.2639999  48.6069984  66.5699997  28.5049992  49.4529991  65.8079987
  27.9410000  48.6640015  65.9309998  28.3589993  50.0909996  66.6340027
  28.2220001  49.9449997  64.9960022  35.7620010  51.6689987  65.1669998
  36.4710007  52.0820007  66.0950012  35.7709999  52.2589989  63.9440002
  35.1419983  51.9140015  63.2400017  36.7350006  53.3470001  63.5019989
  36.4519997  53.7109985  62.4449997  36.5169983  54.5979996  64.4179993
  35.4459991  54.7659988  64.4020004  36.8549995  54.3499985  65.4049988
  37.1110001  55.8870010  63.8689995  38.1879997  55.8650017  64.1029968
  37.0330009  55.8820000  62.7739983  36.5639992  57.1990013  64.4449997
  36.5139999  57.1749992  65.5100021  37.2430000  57.9630013  64.1460037
  35.2779999  57.5589981  63.8380013  35.1479988  57.5600014  62.8269997
  34.1290016  57.9230003  64.4440002  33.0709991  58.1660004  63.8120003
  33.0800018  58.0050011  62.8030014  32.2420006  58.5849991  64.2689972
  34.0820007  57.9360008  65.7289963  34.9420013  57.9150009  66.2720032
  33.2989998  58.2270012  66.1709976  38.2369995  52.9980011  63.4269981
  38.9770012  53.8250008  62.9500008  38.6759987  51.7900009  63.8709984
  37.9879990  51.2529984  64.3970032  40.0569992  51.2879982  63.6980019
  40.8530006  52.0359993  63.7980003  40.1860008  50.3289986  64.9130020
  39.5660019  50.6370010  65.7669983  39.8120003  49.3209991  64.6579971
  41.6580009  50.0769997  65.3089981  41.6510010  49.3670006  66.1029968
  42.2099991  49.7890015  64.4049988  42.3440018  51.2639999  65.9329987
  43.4020004  50.9949989  66.0619965  42.3740005  52.1660004  65.3170013
  41.7449989  51.6440010  67.2440033  42.2620010  51.3030014  68.0459976
  40.8479996  52.5200005  67.4840012  40.4550018  53.4360008  66.6470032
  40.7700005  53.3419991  65.6660004  39.8209991  54.1599998  66.9940033
  40.3610001  52.6430016  68.6910019  40.6090012  51.9259987  69.3079987
  39.8810005  53.4510002  69.0149994  40.2229996  50.6059990  62.3199997
  39.3279991  50.0610008  61.7000008  41.4790001  50.6749992  61.7519989
  42.1129990  51.3470001  62.1870003  41.8580017  50.1209984  60.4539986
  41.2290001  49.2620010  60.3019981  41.6090012  51.2280006  59.4150009
  40.6300011  51.6539993  59.6240005  42.2210007  52.0670013  59.5519981
  41.6609993  50.7229996  57.9420013  42.6100006  50.1520004  57.7529984
  40.3479996  49.8880005  57.6959991  39.6510010  50.5349998  57.1529999
  40.4710007  48.9290009  57.2039986  39.9049988  49.6339989  58.7019997
  41.8279991  51.8650017  56.9729996  41.7360001  51.4959984  55.9249992
  41.0550003  52.5449982  57.2249985  42.7849998  52.2490005  57.2299995
  43.2099991  49.5530014  60.4550018  44.2070007  50.1910019  60.1599998
  43.3370018  48.3380013  60.9819984  42.4280014  47.8759995  61.2369995
  44.6059990  47.5359993  61.1030006  45.3149986  48.2519989  61.4339981
  44.4650002  46.4770012  62.2130013  43.6710014  45.8040009  61.7570000
  45.7599983  45.6879997  62.4830017  46.5139999  46.2470016  63.0349998
  45.6580009  44.7649994  62.9609985  46.2820015  45.5629997  61.5970001
  44.1529999  47.1629982  63.3559990  43.2000008  47.2500000  63.4550018
  45.0849991  46.9669991  59.7960014  44.3009987  46.2830009  59.1199989
  46.4339981  47.0550003  59.5099983  46.9220009  47.6469994  60.1549988
  46.9949989  46.5050011  58.2439995  46.1949997  46.0460014  57.7400017
  47.5400009  47.6459999  57.3569984  48.3330002  48.2379990  57.9420013
  48.1389999  47.0149994  56.0800018  48.6940002  46.1259995  56.3120003
  47.4350014  46.5610008  55.3629990  48.8400002  47.7270012  55.5120010
  46.4099998  48.5009995  56.8019981  45.8149986  48.0449982  56.0769997
  45.7560005  48.7700005  57.6769981  46.7820015  49.8209991  56.1829987
  45.8590012  50.3440018  56.0489998  47.5120010  50.4140015  56.7540016
  47.2830009  49.6529999  55.1910019  48.0299988  45.4710007  58.5789986
  49.1160011  45.8160019  59.0200005  47.7939987  44.2140007  58.2099991
  46.8330002  44.0169983  57.9119987  48.7509995  43.1040001  58.3610001
  49.3610001  43.2420006  59.2169991  47.9020004  41.8400002  58.6609993
  47.1920013  41.6529999  57.8569984  48.6129990  40.9690018  58.7500000
  47.0859985  42.0029984  59.9819984  47.7830009  42.0639992  60.7830009
  46.4780006  42.8870010  59.8009987  45.8269997  40.7089996  60.2150002
  46.6689987  39.3149986  59.6749992  46.0639992  38.4290009  59.7869987
  47.1300011  39.3479996  58.7290001  47.5670013  39.1949997  60.3240013
  49.7299995  42.8510017  57.1609993  49.7050018  41.7430000  56.5359993
  50.6699982  43.8079987  56.9920006  50.6730003  44.6829987  57.5209999
  51.6010017  43.7340012  55.9119987  51.0649986  43.3110008  55.0180016
  52.0239983  45.1699982  55.5880013  52.8349991  45.0639992  54.9109993
  51.1209984  45.5629997  55.0740013  52.4760017  46.1250000  56.6720009
  52.4819984  45.7809982  57.8600006  53.0320015  47.1629982  56.2019997
  52.8470001  42.7639999  56.1189995  54.0309982  43.1660004  56.2659988
  52.5890007  41.4830017  56.1230011  51.6699982  41.1030006  55.9529991
  53.7019997  40.3940010  56.2010002  54.6759987  40.8419991  56.5009995
  53.4160004  39.3610001  57.3359985  52.7029991  38.6080017  56.9799995
  54.4099998  38.8590012  57.4930000  52.9630013  39.8600006  58.6899986
  52.0130005  40.1790009  58.4830017  52.8009987  38.7290001  59.6980019
  52.3769989  37.8569984  59.1689987  53.7659988  38.4230003  60.0390015
  52.1049995  39.1100006  60.5219994  53.7910004  40.9459991  59.3750000
  53.8559990  41.7779999  58.6409988  53.3289986  41.3429985  60.2560005
  54.8580017  40.6320000  59.5890007  53.8510017  39.6409988  54.8800011
  52.9609985  39.5540009  54.1160011  55.0480003  39.0589981  54.7480011
  55.7260017  39.2299995  55.5190010  55.3989983  38.3699989  53.5509987
  55.3810005  39.2080002  52.7999992  56.8089981  37.8629990  53.6100006
  57.1180000  37.5550003  52.5820007  57.5079994  38.7430000  53.7620010
  57.1510010  36.8170013  54.6720009  56.7140007  35.4500008  54.7130013
  57.1780014  34.9099998  55.8279991  56.8069992  33.9840012  56.3219986
  57.8190002  35.8349991  56.5750008  58.3149986  35.6310005  57.4129982
  57.8650017  37.0099983  55.8129997  58.3619995  37.9309998  56.1720009
  54.4889984  37.1669998  53.0999985  53.6790009  36.5929985  53.8730011
  54.6049995  36.7420006  51.8100014  55.4290009  37.3100014  50.7480011
  56.2910004  36.7029991  50.5390015  55.5299988  38.4199982  50.7890015
  54.5130005  37.1469994  49.5470009  55.1040001  37.1409988  48.6090012
  53.7229996  37.8470001  49.4949989  54.0460014  35.7589989  49.7369995
  54.8689995  35.0149994  49.5099983  53.1119995  35.5289993  49.1479988
  53.7050018  35.7309990  51.2449989  52.6739998  36.0099983  51.4010010
  53.9920006  34.3450012  51.8670006  55.0229988  33.7910004  51.5800018
  53.1320000  33.7560005  52.6780014  52.2599983  34.1839981  52.8779984
  53.4480019  32.5820007  53.4939995  52.6310005  31.8220005  53.4459991
  54.3569984  32.1320000  53.1529999  53.7290001  32.8370018  54.9650002
  54.0859985  31.8889999  55.6520004  53.5390015  34.0830002  55.4710007
  53.3320007  34.7789993  54.7470016  53.6910019  34.4819984  56.8740005
  54.5760002  34.0379982  57.1720009  53.8409996  35.9510002  57.1769981
  54.2919998  36.0730019  58.1259995  54.5660019  36.3590012  56.4790001
  52.8489990  36.3940010  57.1469994  52.5810013  33.9790001  57.7719994
  52.8030014  33.8989983  58.9850006  51.4410019  33.6250000  57.3129997
  51.3600006  33.6689987  56.3400002  50.2970009  33.0180016  58.0209999
  49.8899994  32.2159996  57.3750000  50.6479988  32.5719986  58.9580002
  49.1479988  33.9879990  58.1809998  48.3050003  33.8769989  59.0629997
  49.0190010  35.0299988  57.3530006  49.6749992  35.0099983  56.6090012
  47.8870010  36.0180016  57.3629990  47.9700012  36.5649986  58.3499985
  48.1199989  37.0589981  56.2700005  48.1090012  36.5779991  55.3120003
  47.1240005  37.5670013  56.1850014  49.4020004  37.9020004  56.4599991
  49.3740005  38.2939987  57.4539986  50.2470016  37.2799988  56.3600006
  49.4869995  38.9199982  55.2400017  48.6139984  39.5649986  55.2260017
  50.3849983  39.5359993  55.4169998  49.6020851  38.2080231  53.8692474
  48.7012825  37.6148949  53.7181702  49.6222153  38.9545212  53.0803185
  50.7725525  37.3099632  53.6941795  50.7280464  36.5032043  54.3209915
  50.7613716  36.9008560  52.7563591  51.6635017  37.7677002  53.8311768
  46.5229988  35.3440018  57.2760010  45.7540016  35.4640007  58.2050018
  46.3829994  34.5279999  56.2350006  47.0419998  34.7290001  55.4939995
  45.1349983  33.8950005  55.8730011  44.3899994  34.7410011  55.8549995
  45.2039070  33.4553757  54.3724823  46.0570602  32.7821426  54.2865982
  43.9295616  32.8140945  53.8261490  44.0912018  32.5364418  52.7794876
  43.6494102  31.9110012  54.3802338  43.0832329  33.5126915  53.8730202
  45.5576973  34.6200180  53.6068535  44.7730827  35.1788216  53.3357353
  44.7859993  32.6629982  56.7700005  43.6450005  32.3559990  57.0900002
  45.8330002  31.9829998  57.3730011  46.8199997  32.0989990  57.0460014
  45.6259995  30.6159992  57.8699989  44.6080017  30.3899994  57.9599991
  46.0639992  29.5249996  56.8810005  47.1440010  29.3770008  56.7449989
  45.8870010  28.5580006  57.3269997  45.4410019  29.7530003  55.4920006
  44.3670006  29.8390007  55.5789986  45.8880005  30.6730003  55.0250015
  45.7420006  28.6749992  54.4980011  45.3559990  28.8880005  53.4780006
  46.8100014  28.5030003  54.4580002  45.2639999  27.2080002  54.7770004
  45.6119995  26.9109993  55.7519989  44.2080002  27.1830006  54.8320007
  45.6599998  26.3600006  53.6160011  46.6879997  26.0799999  53.5919991
  45.0810013  25.4860001  53.5239983  45.5429993  26.8700008  52.7239990
  46.2509995  30.3829994  59.2529984  46.0070000  29.2959995  59.7739983
  46.9249992  31.3799992  59.8750000  47.1150017  32.1739998  59.3300018
  47.2270012  31.4379997  61.3520012  46.7560005  30.5279999  61.7960014
  48.8230019  31.3369999  61.5130005  49.1020012  30.2520008  61.3040009
  49.2239990  32.0919991  60.7820015  49.4230003  31.7490005  62.8610001
  49.4679985  32.8129997  62.9850006  48.7989998  31.3150005  63.5979996
  50.8289986  31.1040001  63.0610008  51.1949997  31.0620003  64.1340027
  50.8419991  30.1270008  62.6699982  51.7130013  31.9440002  62.1980019
  51.7500000  31.6870003  61.1320000  52.3300018  33.0830002  62.5470009
  52.9900017  33.7630005  61.6660004  52.7949982  33.6170006  60.6839981
  53.5260010  34.5359993  62.0550003  52.3180008  33.5909996  63.7869987
  51.6389999  33.2529984  64.4179993  52.8959999  34.3969994  63.9399986
  46.5849991  32.6860008  62.0340004  45.8670006  32.5229988  63.0000000
  46.7080002  33.8740005  61.4869995  47.1150017  33.9790001  60.6310005
  46.1510010  35.0489998  62.1290016  46.3590012  34.9220009  63.1689987
  46.7169991  36.3590012  61.5909996  46.8740005  36.1920013  60.5260010
  45.9700012  37.1590004  61.7299995  48.0470009  36.6479988  62.2290001
  48.1549988  37.1640015  63.5279999  47.2150002  37.3530006  64.1210022
  49.3969994  37.2340012  64.1740036  49.5410004  37.6329994  65.2379990
  50.5620003  36.9000015  63.5219994  51.7890015  37.1279984  64.1600037
  51.6660004  37.0470009  65.1380005  50.4580002  36.3779984  62.2500000
  51.4599991  36.2229996  61.7319984  49.2130013  36.2210007  61.5569992
  49.0810013  35.8050003  60.6100006  44.6049995  35.1139984  62.0219994
  43.9389992  35.3219986  63.0400009  44.0569992  34.9529991  60.8110008
  44.6590004  34.8479996  59.9850006  42.6290016  35.0270004  60.6040001
  42.2989998  36.0629997  60.9910011  42.5289993  34.9869995  59.0120010
  43.0839996  35.8440018  58.5620003  43.0800018  34.1230011  58.6699982
  41.0909996  34.9119987  58.4119987  40.4819984  34.1910019  58.9469986
  40.3959999  36.2290001  58.5699997  40.8940010  36.9749985  57.8969994
  39.3540001  36.1080017  58.3110008  40.3349991  36.5839996  59.5820007
  41.0820007  34.5379982  56.9790001  41.7750015  35.1199989  56.3339996
  41.4280014  33.5000000  56.9080009  40.0559998  34.5890007  56.5830002
  41.8209991  33.9990005  61.4150009  40.9189987  34.4920006  62.0779991
  42.2680016  32.7140007  61.4819984  43.1489983  31.9370003  60.5999985
  44.0680008  32.4160004  60.3759995  42.5740013  31.5690002  59.6899986
  43.3559990  30.6350002  61.3930016  44.2220001  30.7849998  62.0670013
  43.6430016  29.7259998  60.8470001  42.1020012  30.4050007  62.1879997
  42.3349991  29.8910007  63.1469994  41.4440002  29.7910004  61.5070000
  41.5620003  31.8129997  62.4109993  40.5340004  31.8230000  62.1739998
  41.5190010  32.3779984  63.8269997  40.4539986  32.3419991  64.4359970
  42.5929985  32.9179993  64.3109970  43.4339981  33.0309982  63.7249985
  42.6040001  33.4780006  65.6510010  42.4650002  32.6430016  66.3570023
  44.0830002  33.8709984  65.9189987  44.1150017  34.1679993  66.9869995
  44.6710014  32.9580002  65.8769989  44.4199982  34.6809998  65.3820038
  41.4900017  34.6010017  65.8119965  40.7239990  34.5480003  66.7669983
  41.5169983  35.5919991  64.9140015  42.2379990  35.6489983  64.2429962
  40.5519981  36.7999992  64.9100037  40.6759987  37.3359985  65.8209991
  40.9399986  37.6920013  63.7050018  40.9490013  37.0410004  62.8849983
  39.9029999  38.7879982  63.4020004  40.2369995  39.2519989  62.5340004
  38.8670006  38.5740013  63.1669998  39.9760017  39.4809990  64.2419968
  42.4090004  38.2519989  63.7879982  42.3209991  39.1660004  64.3529968
  42.9930000  37.5330009  64.3040009  43.0429993  38.6199989  62.4350014
  42.5369987  39.4379997  61.9029999  43.9669991  39.0579987  62.6899986
  43.3230019  37.8030014  61.7509995  39.1069984  36.2789993  64.7109985
  38.1819992  36.7690010  65.3270035  38.8979988  35.2690010  63.8260002
  39.6539993  34.9259987  63.3269997  37.5060005  34.6839981  63.5810013
  36.8320007  35.5209999  63.2760010  37.5040016  33.6479988  62.3899994
  38.2529984  32.8269997  62.4690018  36.1730003  32.8820000  62.2779999
  36.2410011  32.3590012  61.2729988  36.0830002  32.1119995  63.0200005
  35.2599983  33.4939995  62.4889984  37.7389984  34.3699989  61.0499992
  36.7820015  34.8240013  60.7649994  38.6129990  35.0379982  61.1879997
  37.9430008  33.5690002  60.3069992  36.8590012  34.1710014  64.8690033
  35.8489990  34.7319984  65.3059998  37.5800018  33.2229996  65.5279999
  38.4539986  32.9449997  65.0690002  37.3559990  32.6479988  66.8840027
  36.3689995  32.1290016  66.8990021  38.3499985  31.5879993  67.1859970
  39.3120003  32.0909996  67.2730026  38.1269989  31.2689991  68.1699982
  38.4570007  30.4340000  66.2040024  37.4519997  29.9279995  66.0749969
  38.5779991  30.7360001  65.1839981  39.3440018  29.2929993  66.6809998
  40.4389992  29.4930000  66.6090012  39.2109985  29.1879997  67.7839966
  39.0849991  28.0370007  65.9449997  38.9529991  28.0760002  64.9609985
  39.1510010  26.8120003  66.5380020  39.4920006  26.6310005  67.7730026
  39.8610001  27.3969994  68.2880020  39.6279984  25.6210003  68.0820007
  39.0800018  25.7110004  65.8320007  38.8829994  25.8040009  64.8389969
  39.3170013  24.8260002  66.2389984  37.2340012  33.7029991  68.0090027
  36.5680008  33.4350014  69.0110016  37.9029999  34.8479996  67.8509979
  38.6209984  34.8730011  67.1760025  37.7290001  35.9900017  68.7089996
  37.6739998  35.5480003  69.6439972  39.0169983  36.8320007  68.6800003
  39.8759995  36.1809998  68.6890030  39.0940018  37.3769989  67.7519989
  39.3129997  37.7809982  69.7699966  40.1300011  38.3650017  69.4980011
  38.4490013  38.3800011  69.8720016  39.5410004  37.1889992  71.1930008
  39.5950012  35.9679985  71.3659973  39.5309982  37.9510002  72.2220001
  36.5289993  36.8969994  68.5530014  36.0040016  37.3870010  69.5230026
  36.1180000  37.1539993  67.2799988  36.6329994  36.6520004  66.5439987
  34.9179993  37.8670006  66.8679962  34.8769989  38.7649994  67.4820023
  35.0410004  38.2039986  65.3860016  35.0579987  37.3530006  64.7050018
  34.3190002  38.9550018  65.0419998  35.9860001  38.7789993  65.4049988
  33.5859985  37.1549988  67.0719986  32.5989990  37.7980003  67.5159988
  33.6209984  35.7719994  66.9319992  34.4410019  35.2449989  66.6159973
  32.4860001  34.9500008  67.2300034  31.6119995  35.3489990  66.7360001
  32.6599998  33.5050011  66.5589981  33.7400017  33.2500000  66.6389999
  31.7819996  32.3740005  67.0749969  31.8740005  32.3310013  68.1669998
  30.7180004  32.3629990  66.7819977  32.2340012  31.4150009  66.6880035
  32.4140015  33.5690002  65.0000000  31.3460007  33.7369995  64.9469986
  32.9729996  34.3590012  64.5149994  32.6220016  32.3330002  64.1159973
  32.4790001  32.5009995  63.0449982  33.6910019  32.0489998  64.4010010
  31.9020004  31.5739994  64.4029999  32.1279984  34.9140015  68.7279968
  30.9810009  34.9319992  69.1979980  33.1910019  34.7169991  69.5000000
  34.0789986  34.5180016  68.9639969  33.1020012  34.8390007  70.9929962
  32.4119987  34.0950012  71.3850021  34.4990005  34.5019989  71.5810013
  34.8549995  33.5089989  71.1729965  35.1689987  35.2939987  71.2419968
  34.5390015  34.5530014  73.1050034  34.2639999  35.5369987  73.4359970
  33.9210014  33.7369995  73.4649963  35.9080009  34.4780006  73.8249969
  35.6949997  34.5699997  74.8870010  36.2420006  33.4879990  73.6760025
  36.9300003  35.5649986  73.3140030  37.1570015  35.4550018  72.2590027
  36.4700012  36.5960007  73.4850006  38.1930008  35.4669991  74.0650024
  38.9840012  36.0390015  73.7160034  37.9179993  35.8190002  74.9349976
  38.5460014  34.4790001  74.2089996  32.6529999  36.1980019  71.4260025
  31.8770008  36.1829987  72.3219986  33.1539993  37.2700005  70.8580017
  34.0400009  37.1030006  70.3990021  32.6180000  38.7060013  71.0490036
  32.6829987  38.8829994  72.1230011  33.6399994  39.7519989  70.4879990
  34.0019989  39.4920006  69.5090027  33.2169991  40.8100014  70.5319977
  34.8959999  39.8359985  71.3669968  34.6119995  40.0070000  72.3489990
  35.3149986  38.8339996  71.4540024  35.9790001  40.8510017  70.9140015
  36.9370003  40.4570007  71.3150024  36.1489983  40.8349991  69.8509979
  35.6790009  42.2480011  71.3919983  34.6699982  42.4080009  71.5540009
  36.6150017  43.1689987  71.5839996  37.9039993  42.8969994  71.5019989
  38.1870003  41.9220009  71.3949966  38.5670013  43.4790001  71.9919968
  36.2729988  44.3590012  72.0220032  35.2770004  44.5740013  72.0999985
  36.9620018  44.8619995  72.4970016  31.2029991  38.9809990  70.5910034
  30.6310005  40.0289993  70.9400024  30.6809998  38.0979996  69.7929993
  31.2910004  37.2760010  69.4970016  29.3439999  38.0709991  69.1159973
  29.3169994  37.1370010  68.6719971  28.5939999  38.0340004  69.8669968
  29.1270008  39.1990013  68.0350037  27.9969997  39.3580017  67.5960007
  30.1919994  39.6949997  67.4909973  31.0349998  39.1510010  67.7379990
  30.1860008  40.8030014  66.4550018  29.6119995  41.5680008  66.8229980
  31.6989994  41.1689987  66.2109985  32.3219986  40.2840004  66.0139999
  31.7150002  41.8740005  65.4209976  32.3009987  41.8390007  67.4840012
  32.4480019  41.1040001  68.2500000  33.6580009  42.4560013  67.1819992
  33.4630013  43.3779984  66.5199966  34.1590004  42.8040009  68.0660019
  34.2550011  41.7000008  66.6989975  31.3589993  42.9099998  68.0759964
  30.9459991  43.4490013  67.2890015  30.5739994  42.3629990  68.4909973
  31.8710003  43.5019989  68.8659973  29.5690002  40.2779999  65.1060028
  29.9799995  39.2690010  64.5680008  28.6110001  40.9469986  64.5189972
  28.3479996  41.8310013  64.9860001  28.0779991  40.6150017  63.1949997
  27.8439999  39.5750008  63.1279984  26.7390003  41.4290009  63.0050011
  25.9740009  41.1199989  63.7099991  26.9990005  42.4469986  63.2099991
  26.1009998  41.2459984  61.6170006  25.2029991  41.8899994  61.5569992
  26.8299999  41.3820000  60.8320007  25.6140003  39.8050003  61.4370003
  26.3969994  39.0760002  61.4990005  24.8700008  39.5369987  62.1759987
  25.0319996  39.6180000  60.0940018  24.0639992  39.9599991  59.9900017
  25.6529999  39.0320015  59.0579987  25.0389996  39.0009995  57.9430008
  24.0709991  39.3149986  58.0000000  25.3600006  38.4889984  57.1559982
  26.7849998  38.4510002  59.0670013  27.3810005  38.4799995  59.9090004
  26.9190006  37.7579994  58.2630005  29.2150002  40.9059982  62.2400017
  29.6760006  42.0690002  62.1899986  29.7269993  39.9249992  61.4939995
  29.2099991  39.0400009  61.6720009  31.0060005  39.9329987  60.7509995
  31.4489994  40.8959999  60.8230019  31.9969997  39.1119995  61.5699997
  31.5830002  38.1040001  61.6160011  33.4760017  39.0839996  61.1780014
  33.9490013  38.5559998  61.9669991  33.6139984  38.4370003  60.3279991
  33.9109993  40.0800018  60.9840012  32.1430016  39.5639992  62.8959999
  31.3369999  39.2680016  63.4150009  30.9769993  39.4580002  59.3089981
  30.0650005  38.7340012  58.8810005  31.9769993  39.9539986  58.5670013
  32.7309990  40.4560013  59.1020012  32.2680016  39.6100006  57.1860008
  31.6130009  38.8209991  56.9410019  31.7889996  40.7939987  56.3199997
  30.7220001  40.9220009  56.4580002  32.3359985  41.6409988  56.7410011
  32.0880013  40.6269989  54.8489990  33.1889992  40.6329994  54.8769989
  31.4319992  39.3470001  54.2430000  31.4220009  39.3419991  53.1100006
  31.9400005  38.3779984  54.4420013  30.4589996  39.1839981  54.6360016
  31.4619999  41.8009987  54.0979996  30.3589993  41.6800003  54.1110001
  31.6599998  42.7290001  54.6069984  31.8160000  41.8209991  53.0820007
  33.7910004  39.1839981  56.9560013  34.6559982  39.8320007  57.6020012
  34.1419983  38.3370018  55.9809990  33.4599991  37.7630005  55.5279999
  35.5740013  38.0979996  55.5880013  36.2400017  38.9280014  55.9249992
  36.0180016  36.7169991  56.0800018  35.4900017  35.9539986  55.4900017
  37.5299988  36.6629982  55.7449989  38.1419983  37.4300003  56.2220001
  37.9329987  35.6910019  56.0309982  37.7089996  36.5569992  54.6780014
  35.7929993  36.4519997  57.5919991  36.6469994  36.7830009  58.1710014
  34.8460007  36.9510002  57.9529991  35.5499992  34.8899994  57.7970009
  36.3969994  34.3689995  57.4090004  35.4970016  34.7249985  58.8989983
  34.6679993  34.5279999  57.3300018  35.6520004  38.1240005  54.0629997
  34.9249992  37.3730011  53.3530006  36.5569992  38.9290009  53.4860001
  37.0530014  39.5480003  54.0810013  36.4970016  39.2190018  52.0079994
  35.7309990  38.5740013  51.5050011  36.1800003  40.7420006  51.8230019
  36.8559990  41.2179985  52.4570007  36.4430008  41.0070000  50.8489990
  34.6430016  41.0579987  52.1689987  34.4119987  40.9210014  53.2379990
  34.4160004  42.5029984  51.8590012  34.3790016  42.8069992  50.7750015
  33.3820000  42.7379990  52.2290001  35.2649994  43.0120010  52.2879982
  33.6660004  40.1780014  51.3419991  33.6969986  39.0929985  51.5050011
  32.6300011  40.5299988  51.5449982  33.9010010  40.3610001  50.3170013
  37.8440018  38.7980003  51.3040009  38.9109993  38.8559990  51.8520012
  37.6899986  38.1850014  50.1080017  36.8030014  38.3180008  49.6329994
  38.7459984  37.5779991  49.2830009  39.6819992  37.9599991  49.5919991
  38.6800003  36.0320015  49.4160004  37.8790016  35.5099983  48.9049988
  39.5530014  35.5530014  48.9739990  38.5950012  35.7639999  50.4780006
  38.6040001  37.9490013  47.7939987  37.4939995  38.1269989  47.2669983
  39.6910019  38.0390015  47.0439987  41.0690002  37.9010010  47.4799995
  41.1380005  36.9440002  47.9760017  41.3149986  38.6370010  48.1819992
  41.9039993  37.8709984  46.2470016  41.8199997  36.9119987  45.7849998
  42.9319992  38.1679993  46.3219986  41.1710014  38.8979988  45.3479996
  41.4169998  38.6240005  44.3339996  41.3880005  39.9539986  45.5709991
  39.7210007  38.4350014  45.6100006  39.0460014  39.3190002  45.5270004
  39.2099991  37.3139992  44.6790009  38.4720001  37.6360016  43.7649994
  39.7159996  36.1049995  44.8419991  40.2000008  35.9449997  45.7389984
  39.3790016  34.9809990  43.9570007  38.6030006  35.2490005  43.2210007
  40.5429993  34.4949989  43.1469994  40.1739998  33.8489990  42.3289986
  41.1710014  35.6580009  42.3569984  42.2249985  35.3959999  42.1969986
  40.6899986  35.8450012  41.4350014  41.0519981  36.5999985  42.8600006
  41.5159988  33.8149986  43.9580002  42.3429985  33.7480011  43.4339981
  38.8380013  33.8380013  44.8120003  38.9339981  33.8689995  46.0429993
  38.3100014  32.8880005  44.1450005  38.0429993  33.1209984  43.1819992
  37.8040009  31.5900002  44.7099991  37.1160011  31.8799992  45.5480003
  37.0810013  30.7989998  43.5800018  37.7050018  30.5730000  42.7070007
  36.9780006  29.8120003  43.9790001  35.7210007  31.4220009  43.3160019
  35.0019989  31.3330002  44.1739998  35.7760010  32.4339981  43.0239983
  35.0870018  30.6310005  42.1539993  35.3489990  29.5699997  42.2760010
  33.9539986  30.7759991  42.2439995  35.6559982  30.9669991  40.8149986
  36.2739983  31.8250008  40.7659988  35.3989983  30.2830009  39.7319984
  34.6990013  29.1730003  39.7190018  34.3979988  28.7919998  40.5180016
  34.6110001  28.5709991  38.8680000  35.9879990  30.7049999  38.6809998
  36.1669998  31.7029991  38.7910004  35.6119995  30.2539997  37.8230019
  38.9319992  30.7080002  45.3260002  38.6580009  29.9939995  46.2350006
  40.2019997  30.7150002  44.8619995  40.3030014  31.2360001  44.0110016
  41.3720016  30.2959995  45.5320015  41.3009987  29.2840004  45.8330002
  42.7060013  30.5830002  44.8390007  42.7290001  31.5839996  44.5449982
  44.0019989  30.1840000  45.5979996  44.0579987  29.1590004  45.6539993
  44.7509995  30.6170006  44.9659996  44.1870003  30.6170006  46.5449982
  42.7500000  29.9740009  43.4760017  41.9389992  30.3209991  42.8969994
  43.6119995  30.3040009  42.9379997  42.6920013  28.9130001  43.5499992
  41.4650002  30.9349995  46.9020004  41.6469994  30.2420006  47.9399986
  41.3139992  32.2220001  47.0470009  41.1069984  32.9350014  46.3370018
  41.5439987  32.7970009  48.4249992  42.4109993  32.2729988  48.7999992
  41.8639984  34.2999992  48.3839989  40.9630013  34.7529984  47.8330002
  42.0099983  34.8959999  49.8190002  42.7680016  34.3030014  50.2820015
  42.1660004  35.9659996  49.8040009  41.1399994  34.8269997  50.3989983
  43.1259995  34.5919991  47.6240005  43.2929993  35.6599998  47.3310013
  43.9469986  34.2080002  48.2500000  43.1689987  34.0919991  46.6889992
  40.3450012  32.3680000  49.3139992  40.5239983  31.9969997  50.5009995
  39.1090012  32.3089981  48.8330002  38.8880005  32.7659988  47.9830017
  37.9679985  31.6739998  49.5419998  37.8209991  32.2290001  50.4039993
  36.7109985  31.8309994  48.6899986  36.4840012  32.8880005  48.4210014
  36.9230003  31.4109993  47.7949982  35.7799988  31.4190006  49.2179985
  38.2529984  30.2280006  50.0040016  38.1069984  29.8409996  51.1759987
  38.7540016  29.3560009  49.1080017  39.0149994  29.6860008  48.1749992
  39.0239983  27.9790001  49.4399986  38.1920013  27.5240002  49.9319992
  39.3400002  27.2310009  48.1049995  40.2379990  27.7579994  47.6570015
  39.6080017  26.1609993  48.2669983  38.4720001  27.3530006  47.5089989
  40.2430000  27.8299999  50.3390007  40.2820015  26.9020004  51.1250000
  41.2500000  28.6970005  50.2389984  41.3100014  29.3139992  49.4809990
  42.4109993  28.6720009  51.1809998  42.7420006  27.6630001  51.2729988
  43.5099983  29.5730000  50.5690002  43.1730003  30.4869995  50.1399994
  44.1570015  29.7810001  51.4459991  44.3610001  28.8929996  49.4869995
  43.6170006  28.5730000  48.6959991  45.0190010  29.6210003  49.1329994
  45.2439995  27.7259998  49.9129982  45.4599991  27.4370003  51.1209984
  45.8230019  27.1159992  48.9710007  41.9220009  29.1480007  52.5620003
  42.3209991  28.5499992  53.5789986  41.0130005  30.1760006  52.6640015
  40.7130013  30.6130009  51.8139992  40.2599983  30.4529991  53.9399986
  41.0929985  30.6439991  54.6749992  39.3479996  31.6410007  53.8499985
  38.7490005  31.5219994  52.9650002  38.6819992  31.6350002  54.6669998
  40.0839996  32.9449997  53.7140007  40.5870018  33.1279984  54.6850014
  40.8470001  32.8790016  52.9480019  38.9150009  34.3129997  53.2570000
  40.1150017  35.6269989  53.1020012  40.7060013  35.6570015  54.0000000
  40.7709999  35.4070015  52.3230019  39.5419998  36.5359993  52.9739990
  39.5460014  29.2600002  54.4819984  39.8160019  28.7549992  55.5719986
  38.5489998  28.8010006  53.7500000  38.3219986  29.2579994  52.8800011
  37.7849998  27.6250000  54.1150017  37.3009987  27.8579998  55.0419998
  36.7439995  27.3719997  52.9840012  36.3110008  28.3139992  52.6860008
  37.2879982  27.0769997  52.1189995  35.6110001  26.4069996  53.2169991
  35.4659996  26.4389992  54.3110008  34.7599983  26.8290005  52.6479988
  36.0620003  24.9680004  52.8759995  37.0820007  24.7600002  52.1459999
  35.3619995  24.0090008  53.2799988  38.6010017  26.3920002  54.4519997
  38.0810013  25.5799999  55.1329994  39.9140015  26.1560001  54.1559982
  40.2760010  26.7329998  53.4239998  40.6749992  25.1049995  54.7200012
  39.9550018  24.2609997  54.7109985  41.9080009  24.7709999  53.8359985
  41.5429993  24.3090000  52.9129982  42.4389992  25.7019997  53.5379982
  42.8450012  23.7320004  54.4519997  43.4879990  24.1770000  55.2379990
  42.2130013  22.9349995  54.8400002  43.7579994  23.1359997  53.3380013
  44.6580009  23.8330002  52.8310013  43.5320015  22.0030003  52.8520012
  40.9970016  25.3069992  56.2270012  40.8930016  24.3209991  56.9510002
  41.3689995  26.5349998  56.5600014  41.4589996  27.2049999  55.8170013
  41.6479988  27.0079994  57.8930016  42.1959991  26.2859993  58.5579987
  42.6320000  28.1959991  57.8089981  42.4059982  28.9619999  57.0769997
  42.5550003  28.8740005  58.6440010  43.6549988  27.8460007  57.8429985
  40.3209991  27.4249992  58.7400017  40.4269981  27.6819992  59.9150009
  39.2350006  27.5650005  58.0330009  39.3639984  27.6170006  57.0369987
  37.9650002  27.9799995  58.6240005  38.1320000  28.1569996  59.6310005
  37.5629997  29.3260002  58.1570015  37.3030014  29.2240009  57.1380005
  36.6040001  29.6410007  58.5870018  38.5040016  30.5179996  58.3050003
  39.5480003  30.3920002  57.8979988  37.7220001  31.7619991  57.7439995
  36.7700005  31.8190002  58.3089981  38.4039993  32.6020012  57.8479996
  37.4900017  31.6180000  56.6850014  38.7309990  30.6800003  59.8120003
  39.3100014  29.9080009  60.2859993  39.2989998  31.6130009  59.8800011
  37.7980003  30.8820000  60.2719994  36.9399986  26.8899994  58.4959984
  35.7540016  27.2269993  58.5519981  37.3380013  25.6509991  58.3950005
  38.2799988  25.5820007  58.0460014  36.4339981  24.5489998  58.0800018
  35.8629990  24.9489994  57.2709999  37.2859993  23.3869991  57.6259995
  38.0159988  23.8649998  56.9729996  37.8829994  22.9190006  58.4150009
  36.5270004  22.2999992  56.9480019  36.0439987  21.7870007  57.7669983
  35.8030014  22.7000008  56.2099991  37.3709984  21.3980007  56.0470009
  38.1059990  20.8889999  56.6329994  36.7340012  20.6270008  55.6409988
  37.7989998  22.2919998  55.0120010  37.5029984  23.2660007  55.0169983
  38.7500000  22.0480003  54.1489983  39.0400009  22.7800007  53.1430016
  38.4220009  23.5139999  52.8440018  39.8139992  22.4080009  52.5499992
  39.4360008  20.9449997  54.2799988  39.4129982  20.4480000  55.1329994
  40.2439995  20.8320007  53.6689987  35.5099983  24.1520004  59.2439995
  35.9760017  24.1770000  60.3740005  34.2490005  23.9340000  58.8880005
  34.0460014  24.1819992  57.9410019  33.1069984  23.5200005  59.7470016
  32.3190002  23.1770000  59.0750008  33.5050011  22.6930008  60.2999992
  32.5660019  24.5769997  60.7789993  31.6159992  24.3439999  61.5209999
  33.1710014  25.7220001  60.8110008  33.8559990  25.8050003  60.1259995
  32.7299995  26.9389992  61.5540009  32.5909996  26.6860008  62.6090012
  33.9739990  27.8740005  61.5229988  34.3769989  27.9740009  60.5279999
  33.5589981  28.8840008  61.7540016  35.1250000  27.7430000  62.4729996
  35.5680008  26.7880001  62.2830009  36.1520004  28.8209991  62.2070007
  37.1710014  28.7409992  62.6850014  36.3440018  28.9410000  61.1080017
  35.7109985  29.7479992  62.5530014  34.7649994  27.8020000  63.9360008
  34.3110008  28.8490009  64.1539993  34.0750008  26.9440002  64.2040024
  35.6910019  27.5949993  64.5279999  31.4349995  27.4950008  61.0320015
  31.1919994  27.3460007  59.8240013  30.6410007  28.0909996  61.8919983
  30.9239998  28.4850006  63.2939987  31.8059998  29.1070004  63.3030014
  30.9769993  27.5440006  63.7869987  29.6599998  29.2189999  63.8139992
  29.8360004  30.2670002  63.8419991  29.3460007  28.9169998  64.8369980
  28.5930004  28.8810005  62.8240013  27.8700008  29.7339993  62.8499985
  28.0380001  27.9540005  63.0359993  29.4169998  28.7579994  61.4990005
  28.8959999  28.1320000  60.8250008  29.6509991  30.1049995  60.7519989
  29.5109997  31.2080002  61.3219986  30.0760002  29.8789997  59.5050011
  30.0990009  28.8889999  59.2179985  30.5079994  30.8889999  58.4799995
  30.4939995  31.8899994  58.7109985  31.9850006  30.5020008  57.9930000
  32.1290016  29.5090008  57.6419983  32.5830002  31.4349995  56.8650017
  32.4949989  32.4690018  57.2500000  33.7070007  31.2549992  56.6459999
  32.0830002  31.2210007  55.9070015  33.0009995  30.5370007  59.1020012
  32.8790016  29.6329994  59.7150002  33.9630013  30.4619999  58.6599998
  33.1510010  31.7509995  59.9480019  32.2439995  31.7919998  60.5900002
  34.0579987  31.6359997  60.5849991  33.4189987  32.6489983  59.3610001
  29.6369991  30.7390003  57.3009987  29.6480007  29.6849995  56.6489983
  28.7929993  31.7469997  56.9179993  28.7830009  32.6220016  57.5470009
  27.8820000  31.6320000  55.7589989  27.5060005  30.5540009  55.6430016
  26.5890007  32.3969994  56.0340004  26.1879997  32.0099983  56.9910011
  26.9179993  33.4099998  56.2200012  25.6200008  32.2560005  54.8870010
  24.7999992  32.9910011  54.9099998  26.0849991  32.4700012  53.9389992
  24.8859997  30.9650002  54.8219986  25.5949993  30.1730003  54.6010017
  24.4570007  30.8160000  55.8390007  23.7269993  30.9629993  53.9109993
  23.8509998  30.3470001  53.0849991  22.5580006  31.6229992  54.0099983
  22.1760006  32.3639984  55.0309982  22.8010006  32.5470009  55.8300018
  21.2789993  32.8089981  54.9430008  21.7040005  31.4480000  53.0559998
  21.8859997  30.9470005  52.1819992  20.6980000  31.6770000  53.2319984
  28.5650005  31.9419994  54.4710007  28.5249996  33.0449982  53.9830017
  29.1900005  30.8549995  53.9099998  29.2169991  29.9619999  54.4199982
  29.8829994  30.9500008  52.5890007  30.6879997  31.6599998  52.6090012
  30.7250004  29.6660004  52.2809982  30.0209999  28.8610001  52.2789993
  31.1580009  29.7509995  51.3059998  31.8859997  29.4179993  53.2369995
  31.6970005  28.6009998  54.3790016  30.7099991  28.2840004  54.5540009
  32.8190002  28.3519993  55.2430000  32.6920013  27.7089996  56.0919991
  34.1100006  28.9069996  54.9300003  35.1269989  28.7140007  55.7599983
  34.8619995  28.2619991  56.5489998  34.1809998  29.7350006  53.8219986
  35.0839996  30.0979996  53.4840012  33.1139984  30.0590000  53.0040016
  33.2570000  30.8589993  52.2459984  28.8840008  31.2840004  51.4790001
  27.9810009  30.5020008  51.1559982  29.2450008  32.3199997  50.6870003
  30.1359997  32.8870010  50.8440018  28.4009991  32.8110008  49.5900002
  27.5499992  32.1180000  49.6279984  27.7070007  34.1269989  50.0029984
  28.4680004  34.7830009  50.4819984  27.2570000  34.7410011  49.2330017
  26.6639996  33.9140015  51.1389999  25.8419991  33.3129997  50.7010002
  27.0209999  33.2700005  51.8940010  26.0879993  35.2120018  51.7190018
  25.4759998  36.0180016  51.0060005  26.0580006  35.3989983  53.0060005
  25.6350002  36.2109985  53.4239998  26.4260006  34.6650009  53.5950012
  29.0249996  32.7420006  48.1749992  29.0580006  33.7459984  47.4090004
  29.4309998  31.5650005  47.7639999  29.1790009  30.7450008  48.3600006
  30.0170002  31.3430004  46.4169998  29.5419998  31.9769993  45.7109985
  31.5340004  31.5310001  46.5789986  31.6620007  32.5309982  47.0110016
  32.1500015  30.6100006  47.6619987  31.7080002  30.7950001  48.6399994
  32.1080017  29.5730000  47.4850006  33.1870003  30.7479992  47.7719994
  32.2980003  31.2730007  45.4239998  32.1320000  32.0839996  44.9199982
  29.7469997  29.8659992  45.9129982  29.6709995  28.9400005  46.7099991
  29.6900005  29.6709995  44.5909996  29.5769997  30.6100006  43.5099983
  30.3640003  31.3330002  43.6570015  28.6439991  31.0960007  43.6730003
  29.6599998  29.8400002  42.1829987  30.6770000  29.6329994  41.9599991
  29.1189995  30.3349991  41.3419991  28.9689999  28.5629997  42.6020012
  29.2749996  27.7059994  42.0239983  27.8869991  28.6910000  42.6590004
  29.4869995  28.3530006  44.0209999  28.7049999  27.8409996  44.5400009
  30.6919994  27.4150009  44.2000008  30.6739998  26.2210007  43.9430008
  31.8010006  28.0209999  44.7029991  31.7709999  29.0440006  44.8670006
  32.9799995  27.3020000  45.1940002  33.2859993  26.5149994  44.4809990
  34.0349998  28.3969994  45.2060013  34.0890007  28.9230003  44.2980003
  33.6749992  29.1350002  45.8950005  35.0470009  28.1049995  45.5779991
  32.8520012  26.6159992  46.5330009  33.7550011  25.8349991  46.7330017
  31.8700008  26.8509998  47.4199982  31.2329998  27.6590004  47.2610016
  31.7660007  25.9790001  48.6559982  32.5950012  25.2180004  48.5909996
  32.1010017  26.8950005  49.8899994  31.2639999  27.6499996  49.9430008
  32.0629997  26.0860004  51.2039986  32.9039993  25.4090004  51.2089996
  32.0600014  26.7689991  52.1080017  31.1469994  25.5629997  51.3170013
  33.5299988  27.5580006  49.7770004  33.6160011  28.0629997  48.8100014
  33.6240005  28.2590008  50.6049995  34.7750015  26.6320000  49.8230019
  34.6640015  26.0510006  50.6759987  34.7470016  26.0349998  48.8810005
  35.6769981  27.2910004  49.9220009  30.3330002  25.3689995  48.7719994
  29.2840004  26.0130005  48.5690002  30.2240009  24.0960007  49.1669998
  31.0930004  23.6410007  49.2309990  28.9510002  23.2919998  49.3370018
  28.2040005  23.9869995  49.6749992  28.5790005  22.6320000  48.0089989
  29.4769993  22.0510006  47.7400017  27.7490005  21.9699993  48.1419983
  28.2070007  23.6320000  46.9049988  28.9440002  24.3570004  46.6549988
  28.0480003  23.0070000  46.0190010  26.8029995  24.2250004  47.2190018
  26.0499992  23.4720001  47.2540016  26.8729992  24.6000004  48.2150002
  26.3689995  25.3600006  46.3590012  25.7199993  25.1910000  45.6430016
  26.4589996  26.6989994  46.6969986  25.9069996  27.4720001  45.8209991
  25.5079994  27.0429993  45.0130005  26.0450001  28.4880009  45.8160019
  27.0310001  27.2150002  47.7490005  27.6569996  26.6840000  48.3860016
  26.9150009  28.1749992  47.9459991  29.1620007  22.1490002  50.3089981
  29.9699993  21.2479992  49.9669991  28.6159992  22.1200008  51.5410004
  28.9939995  21.3889999  52.1819992  27.6660004  23.0939999  52.1640015
  28.0820007  24.0970001  52.2330017  26.2980003  23.0650005  51.4090004
  25.6070004  23.6369991  51.9599991  26.3799992  23.4239998  50.3880005
  25.7339993  22.0779991  51.5190010  27.3279991  22.6189995  53.5970001
  27.2439995  21.4300003  53.8400002  26.8759995  23.4860001  54.4609985
  26.9349995  24.4699993  54.2890015  26.0279999  23.1730003  55.6010017
  26.1140003  22.0559998  55.7639999  26.5760002  23.6930008  56.9140015
  26.7369995  24.7940006  56.7869987  25.8939991  23.6320000  57.7410011
  27.9869995  23.1040001  57.2420006  27.8980007  22.0620003  56.9389992
  28.8029995  23.6790009  56.7599983  28.1989994  23.2210007  58.7669983
  27.8330002  22.3689995  59.5960007  28.8029995  24.2740002  59.1829987
  24.5830002  23.5020008  55.1619987  24.1079998  22.8400002  54.1650009
  23.7240009  24.3910007  55.6949997  22.7509995  24.2950001  55.4879990
  23.9689999  25.5709991  56.5849991  24.7169991  25.3630009  57.3860016
  24.3589993  26.7450008  55.6660004  24.5900002  27.6009998  56.2900009
  25.2970009  26.4780006  55.1419983  23.3230000  27.1070004  54.6489983
  21.9650002  27.4389992  54.8880005  21.3799992  27.8789997  53.7550011
  20.3279991  27.9780006  53.6209984  22.3190002  27.8700008  52.8139992
  22.1900005  27.9340000  51.7869987  23.5429993  27.4430008  53.3190002
  24.5219994  27.1359997  52.7610016  22.7600002  25.8290005  57.5279999
  21.7010002  25.1959991  57.4280014  22.8759995  26.7360001  58.5270004
  23.7819996  27.3220005  58.5680008  21.8309994  27.0079994  59.6080017
  21.1270008  26.2210007  59.6809998  22.4750004  27.1959991  61.0169983
  21.6399994  27.1060009  61.7200012  23.5319996  26.1620007  61.3790016
  24.1490002  25.8369999  60.5750008  24.1900005  26.5900002  62.1749992
  23.0470009  25.2910004  61.7550011  23.0559998  28.4880009  61.0569992
  23.7129993  28.5569992  60.3520012  21.0200005  28.3029995  59.2249985
  19.9020004  28.4169998  59.7169991  21.4930000  29.1730003  58.3650017
  22.4360008  29.1790009  58.1419983  20.9090004  30.4740009  58.1339989
  21.5090008  30.9790001  57.4080009  19.8610001  30.4120007  57.7500000
  20.9580002  31.4230003  59.3969994  20.2509995  32.5120010  59.3370018
  21.6650009  31.1170006  60.4760017  22.2220001  30.3040009  60.3969994
  21.7129993  31.8390007  61.7470016  21.0429993  32.6739998  61.7379990
  21.3320007  31.0340004  62.9389992  22.0319996  30.2019997  63.0019989
  21.2859993  31.7110004  63.7729988  19.9179993  30.4410000  62.8470001
  19.1930008  31.2570000  63.0079994  19.7880001  30.0279999  61.8559990
  19.5000000  29.4150009  63.8400002  19.5160007  29.8579998  64.8440018
  18.3889999  29.2490005  63.7150002  20.2590008  28.1480007  63.8320007
  19.9099998  27.4480000  63.1920013  21.2049999  27.7630005  64.6750031
  21.7229996  28.5610008  65.5139999  21.2929993  29.4699993  65.7559967
  22.4300003  28.2609997  66.1669998  21.7490005  26.5830002  64.5569992
  21.3360004  25.9279995  63.9010010  22.5690002  26.3610001  65.2099991
  23.1679993  32.3549995  61.8779984  23.5079994  32.7859993  62.9259987
  24.0489998  32.2729988  60.8769989  23.7719994  31.8850002  60.0589981
  25.4370003  32.6489983  61.0019989  25.8519993  32.1899986  61.8930016
  26.3929996  32.1710014  59.8870010  26.1569996  32.9290009  59.1199989
  27.3829994  32.3899994  60.2430000  26.2970009  30.6459999  59.5009995
  27.0960007  30.5330009  58.7630005  26.5450001  29.9829998  60.3199997
  24.9689999  30.2299995  58.8580017  24.1660004  31.1399994  58.4529991
  24.6469994  29.0009995  58.7869987  25.5680008  34.2000008  61.2869987
  24.9459991  35.0449982  60.6720009  26.4570007  34.5569992  62.2789993
  26.9529991  33.9339981  62.8499985  26.7910004  35.9690018  62.3839989
  25.9729996  36.5009995  62.0130005  26.9610004  36.2849998  63.9290009
  26.7479992  37.3219986  64.0100021  25.9829998  35.6759987  64.8059998
  25.0380001  35.6259995  64.2969971  26.3379993  34.6889992  65.0039978
  25.8209991  36.1679993  65.7549973  28.4029999  36.0239983  64.3700027
  28.6369991  35.0519981  64.0569992  29.0240002  36.6139984  63.6959991
  28.7280006  36.3880005  65.8130035  28.9780006  37.4160004  65.7620010
  27.9379997  36.1100006  66.4850006  29.5590000  35.7690010  66.0270004
  27.9740009  36.3450012  61.4620018  28.1250000  37.5709991  61.4430008
  28.6320000  35.4070015  60.7439995  28.3020000  34.4550018  60.9339981
  29.8330002  35.5970001  60.0089989  30.1480007  36.6559982  60.1290016
  31.0690002  34.8489990  60.4809990  31.0590000  33.8170013  60.2540016
  32.3100014  35.2709999  59.6539993  33.2290001  34.9119987  60.1920013
  32.3009987  34.6450005  58.7169991  32.2500000  36.3590012  59.3419991
  31.3549995  35.0029984  61.9900017  30.4820004  34.6269989  62.4980011
  32.1739998  34.3769989  62.1370010  31.5990009  36.0120010  62.2739983
  29.5489998  35.1459999  58.5800018  29.0400009  34.0540009  58.3899994
  29.8110008  35.9459991  57.5460014  30.1620007  36.9280014  57.6609993
  29.6040001  35.5649986  56.1259995  29.0620003  34.6860008  56.0369987
  28.7970009  36.7330017  55.5330009  29.3630009  37.6529999  55.6749992
  28.6469994  36.5270004  54.5180016  27.4400005  37.1150017  56.1339989
  26.9230003  36.4990005  57.0839996  26.7740002  37.9669991  55.5019989
  30.9629993  35.5569992  55.3860016  31.8209991  36.3909988  55.7260017
  31.1380005  34.7490005  54.3530006  30.3320007  34.2809982  53.9729996
  32.4010010  34.7379990  53.5699997  32.9700012  35.6279984  53.7939987
  33.2179985  33.4620018  53.8759995  33.3190002  33.5299988  54.9609985
  32.5839996  32.5960007  53.5519981  34.6930008  33.5639992  53.2999992
  35.0509987  34.6110001  53.3009987  35.6710014  32.9049988  54.2779999
  36.6720009  32.9550018  53.9910011  35.5830002  33.2649994  55.3279991
  35.3549995  31.8740005  54.4560013  34.9630013  33.0820007  51.8549995
  35.7770004  33.5970001  51.3089981  35.3370018  32.0559998  51.8100014
  34.0390015  33.0999985  51.2739983  32.0810013  34.8330002  52.0660019
  31.3519993  33.9710007  51.5940018  32.6910019  35.7799988  51.2890015
  33.2949982  36.5000000  51.6969986  32.3909988  35.9669991  49.8380013
  32.4000015  34.9580002  49.4309998  31.0090008  36.6679993  49.6749992
  30.7450008  36.6790009  48.5670013  30.2719994  36.1409988  50.2070007
  31.0270004  38.0499992  50.2410011  31.3339996  38.0250015  51.3059998
  31.8010006  38.7120018  49.7449989  29.3759995  38.8600006  50.0750008
  28.6660004  38.4599991  51.7560005  29.4559994  38.5660019  52.4860001
  27.9330006  39.1959991  52.0730019  28.2749996  37.3950005  51.7989998
  33.5379982  36.6619987  49.1069984  34.4080009  37.2750015  49.7350006
  33.5629997  36.5900002  47.7879982  32.8650017  35.9889984  47.3279991
  34.5760002  37.2929993  46.9959984  35.4739990  37.1609993  47.5209999
  34.7859993  36.6689987  45.6580009  33.9220009  36.9300003  45.0289993
  35.6549988  37.1329994  45.2620010  35.0029984  34.8660011  45.4650002
  34.1870003  34.6320000  44.5060005  34.2070007  38.8409996  46.9249992
  33.0559998  39.1650009  47.1220016  35.1819992  39.7379990  46.7540016
  36.0379982  39.2820015  46.6199989  35.1170006  41.2019997  46.7490005
  35.0060005  41.6450005  47.7060013  36.4519997  41.7910004  46.2680016
  36.6180000  41.4550018  45.1949997  36.2190018  42.8740005  46.2500000
  37.7050018  41.4860001  47.0239983  38.9480019  41.8680000  46.5709991
  39.7900009  41.5989990  47.5439987  40.8479996  41.8180008  47.6110001
  39.1100006  41.1389999  48.6119995  39.6020012  40.9029999  49.4910011
  37.8160019  41.0620003  48.3520012  37.0620003  40.7610016  49.0009995
  34.0309982  41.8629990  45.8569984  33.3339996  42.7980003  46.2290001
  33.9510002  41.3680000  44.6240005  34.5750008  40.5719986  44.4329987
  32.9420013  41.6959991  43.6459999  32.9119987  42.7270012  43.5439987
  33.3979988  41.0779991  42.3100014  33.4840012  40.0260010  42.4959984
  32.5460014  41.1879997  41.5989990  34.3650017  41.3880005  42.0810013
  31.5230007  41.3030014  44.0480003  30.6280003  42.0830002  43.9109993
  31.3490009  40.0660019  44.5909996  32.0730019  39.3989983  44.7039986
  30.0529995  39.6059990  45.1380005  29.3689995  39.5340004  44.2770004
  30.1110001  38.1570015  45.5299988  30.4909992  37.9879990  46.5509987
  28.7439995  37.4370003  45.5670013  28.7730007  36.3310013  45.7029991
  28.1110001  37.8019981  46.3680000  28.1970005  37.7890015  44.6419983
  31.0949993  37.4939995  44.7270012  31.2840004  36.6180000  45.1650009
  29.4950008  40.3569984  46.3409996  28.2900009  40.5870018  46.4230003
  30.3899994  40.8160019  47.1699982  31.3659992  40.5849991  47.0060005
  30.1700001  41.9230003  48.1459999  29.3419991  41.6889992  48.8489990
  31.4559994  42.0250015  48.9850006  31.6919994  41.1459999  49.5019989
  32.3520012  42.1969986  48.4000015  31.5200005  43.2309990  49.9309998
  30.8840008  43.3260002  51.1110001  30.3390007  42.5340004  51.4690018
  30.7880001  44.4739990  51.9199982  30.1800003  44.5719986  52.8359985
  31.3150005  45.6339989  51.4329987  31.3230000  46.4459991  52.0950012
  31.9920006  45.6469994  50.1829987  32.4889984  46.5639992  49.9280014
  32.0270004  44.4850006  49.4500008  32.4550018  44.4090004  48.4690018
  29.7959995  43.2350006  47.5439987  28.7749996  43.7900009  47.8889999
  30.3999996  43.6469994  46.4360008  31.2320004  43.1440010  46.1069984
  30.1130009  44.9070015  45.7169991  29.9400005  45.7879982  46.4230003
  31.2649994  45.2529984  44.7509995  31.7700005  44.3170013  44.4780006
  30.9200001  46.0660019  43.4819984  31.8160000  46.3419991  42.9889984
  30.3829994  45.2960014  42.8549995  30.2509995  46.9249992  43.6549988
  32.1539993  46.1739998  45.3610001  33.0200005  45.8100014  45.2719994
  28.6779995  44.8400002  45.0379982  27.8010006  45.5719986  45.4370003
  28.4200001  43.8009987  44.2070007  29.2040005  43.1660004  43.9900017
  27.0860004  43.3969994  43.7280006  26.6280003  44.1619987  43.0369987
  27.3260002  42.1139984  42.9669991  28.2180004  41.5299988  43.1720009
  26.4549999  41.4739990  43.1689987  27.3959999  42.2260017  41.4150009
  27.3369999  41.1749992  41.1230011  26.5410004  42.7719994  41.0209999
  28.8740005  43.0369987  40.7239990  28.6580009  43.1479988  38.9529991
  27.8129997  43.6049995  38.5169983  29.4410000  43.7360001  38.5800018
  28.6940002  42.1969986  38.4449997  25.9939995  43.2019997  44.6749992
  24.8899994  43.5880013  44.3470001  26.2959995  42.7729988  45.9029999
  27.1359997  42.3120003  45.9770012  25.4069996  42.6660004  46.9819984
  24.5230007  42.1710014  46.5019989  26.0170002  41.7340012  48.0750008
  27.0860004  41.9070015  48.2379990  25.5960007  42.1599998  49.0149994
  25.5860004  40.2879982  47.9840012  25.9659996  39.8460007  47.1020012
  26.0949993  39.7389984  48.7389984  24.0779991  40.1020012  48.1300011
  23.7810001  40.8170013  48.8639984  23.5629997  40.1739998  47.1920013
  23.7709999  38.8260002  48.7599983  24.5090008  38.1819992  48.6739998
  22.8910007  38.4510002  49.7050018  21.7910004  39.0419998  49.8699989
  21.6240005  39.9339981  49.4889984  21.1180000  38.7770004  50.5369987
  23.1359997  37.3979988  50.4580002  23.9790001  36.7859993  50.3549995
  22.3810005  37.0859985  51.0429993  24.9480000  44.0190010  47.6129990
  23.8969994  43.9879990  48.2220001  25.7129993  45.0730019  47.4039993
  26.6019993  44.9160004  46.9900017  25.3279991  46.4440002  47.7190018
  24.6830006  46.4389992  48.5499992  26.6459999  47.1870003  48.1920013
  27.3129997  47.0289993  47.4080009  26.3630009  48.2019997  48.1980019
  27.1970005  46.7080002  49.5519981  27.1250000  45.5979996  49.4729996
  28.5879993  47.2799988  49.7509995  28.9680004  46.9980011  50.7159996
  29.2360001  46.9430008  48.9309998  28.5270004  48.3499985  49.7280006
  26.3309994  47.1959991  50.7509995  25.3099995  46.8600006  50.5830002
  26.7019997  46.8450012  51.6920013  26.2579994  48.2719994  50.6440010
  24.5279999  47.0950012  46.5919991  23.6809998  47.9389992  46.8889999
  24.7479992  46.6399994  45.3269997  25.4710007  45.9630013  45.1059990
  23.9480000  46.9529991  44.1940002  23.7099991  47.9420013  44.2169991
  24.7649994  46.7890015  42.9160004  24.8899994  45.7190018  42.7480011
  24.2609997  47.2750015  42.0880013  26.0849991  47.5569992  42.8930016
  26.6630001  47.2519989  43.7680016  26.9669991  47.2999992  41.6829987
  27.9050007  47.8969994  41.7169991  27.1749992  46.2789993  41.5330009
  26.4050007  47.5349998  40.7830009  25.8360004  49.0900002  42.9370003
  25.2590008  49.3720016  43.8919983  26.7670002  49.5989990  43.0190010
  25.3110008  49.5019989  42.1040001  22.5289993  46.2439995  44.2599983
  21.5779991  46.5800018  43.4869995  22.3360004  45.2739983  45.1360016
  23.0419998  44.9939995  45.7350006  21.2579994  44.3800011  45.0740013
  21.0949993  44.1419983  44.0019989  21.6840000  43.0379982  45.7509995
  22.5209999  42.6790009  45.2239990  22.0249996  43.1930008  46.7910004
  20.6089993  42.1100006  45.8250008  20.6180000  41.6380005  44.9900017
  20.0009995  44.9469986  45.7039986  20.1070004  45.7879982  46.6250000
  18.8360004  44.4420013  45.3569984  18.4640007  43.7449989  44.1320000
  19.1700001  42.8779984  43.8489990  18.4740009  44.5260010  43.3989983
  17.0380001  43.3499985  44.4339981  17.0499992  42.3540001  44.9949989
  16.5090008  43.3059998  43.4830017  16.4920006  44.4930000  45.2770004
  15.6700001  44.0579987  45.8750000  16.2800007  45.3899994  44.7089996
  17.6469994  44.7220001  46.1879997  17.6420002  45.7809982  46.5000000
  17.6439991  43.9389992  47.5390015  17.0590000  44.5239983  48.4339981
  18.3409996  42.7760010  47.7299995  18.7210007  42.3800011  46.8310013
  18.5370007  41.9720001  48.9920006  17.7049999  42.3660011  49.6629982
  18.3990002  40.5260010  48.8499985  19.3239994  40.2280006  48.2470016
  18.2910004  39.7140007  50.2220001  19.1560001  39.9500008  50.7500000
  17.4549999  40.0779991  50.7879982  18.2469997  38.6300011  50.2120018
  17.1359997  40.0530014  48.0530014  17.1529999  40.7179985  47.2000008
  17.2649994  39.0690002  47.6609993  16.3500004  40.2210007  48.7470016
  19.8209991  42.4140015  49.7179985  20.8680000  41.6910019  49.7690010
  19.9020004  43.7379990  50.1510010  19.0809994  44.3580017  50.0229988
  21.1609993  44.3779984  50.4239998  21.7929993  44.1790009  49.5849991
  20.9799995  45.9080009  50.5009995  20.4519997  46.2050018  49.6279984
  20.4029999  46.2330017  51.3870010  22.3540001  46.6440010  50.5130005
  22.8840008  46.4440002  51.4659996  22.8640003  46.2849998  49.6100006
  22.0629997  48.1889992  50.3289986  23.0389996  48.5999985  50.1090012
  21.4340000  48.3629990  49.4220009  21.4529991  48.7589989  51.5139999
  21.7539997  48.3940010  52.4199982  20.3659992  49.6059990  51.5250015
  19.7329998  49.7999992  52.6489983  20.2639999  49.5260010  53.4780006
  18.9300003  50.4459991  52.7570000  19.9360008  50.1920013  50.4749985
  20.4750004  50.1269989  49.6479988  19.0769997  50.6580009  50.5349998
  21.8740005  43.7290001  51.5750008  21.1490002  43.3820000  52.5540009
  23.2199993  43.6279984  51.5919991  23.7430000  43.8639984  50.7680016
  23.9279995  43.2249985  52.7949982  23.4080009  42.3279991  53.1059990
  25.3169994  42.6259995  52.4739990  25.8069992  42.4169998  53.4099998
  25.1229992  41.2809982  51.8790016  24.9969997  40.5410004  52.6650009
  24.2779999  41.3489990  51.0970001  26.0139999  40.9210014  51.3460007
  26.2649994  43.5139999  51.7060013  26.4370003  44.4199982  52.2840004
  27.1860008  42.9059982  51.6240005  25.9150009  43.7560005  50.6920013
  23.8950005  44.2620010  53.9070015  23.8059998  45.4640007  53.6129990
  23.9549999  43.8549995  55.1819992  24.0219994  42.4920006  55.7019997
  24.5459995  41.7630005  55.0429993  22.9430008  42.1899986  55.7550011
  24.5279999  42.6100006  57.1100006  25.6660004  42.6459999  57.1479988
  24.0520000  41.8019981  57.5979996  23.8920002  43.8590012  57.5519981
  24.4570007  44.2120018  58.4480019  22.9039993  43.8300018  57.8969994
  24.0000000  44.7260017  56.3419991  23.1700001  45.4580002  56.3790016
  25.2630005  45.5800018  56.4280014  26.1989994  45.4290009  55.6969986
  25.2759991  46.5719986  57.3400002  24.3899994  46.5680008  57.8559990
  26.4230003  47.3100014  57.8190002  27.1790009  47.4710007  57.0239983
  25.9050007  48.6570015  58.3260002  25.4610004  49.0870018  57.4630013
  25.1840000  48.4119987  59.0979996  27.0049992  49.5499992  58.8489990
  27.3379993  50.5989990  58.2169991  27.2870007  49.2809982  60.0589981
  27.9729996  49.8240013  60.5439987  26.9510002  48.3790016  60.4790001
  27.0699997  46.4809990  58.9389992  26.6270008  46.3720016  60.1129990
  28.0680008  45.7220001  58.5769997  28.3519993  45.6969986  57.6139984
  28.7029991  44.7799988  59.5330009  27.9470005  44.1389999  59.9830017
  29.6189995  43.8419991  58.7659988  30.3339996  44.4389992  58.2439995
  30.2889996  43.2529984  59.4630013  28.9020004  43.0239983  57.6440010
  28.7719994  43.5190010  56.2630005  29.1539993  44.5460014  56.1080017
  28.3220005  42.6580009  55.2400017  28.2660007  43.0089989  54.2120018
  28.0209999  41.3089981  55.5369987  27.7150002  40.5250015  54.5309982
  27.5209999  39.5839996  54.7859993  28.1210003  40.8639984  56.9109993
  27.8540001  39.8320007  57.1459999  28.3910007  41.7449989  57.9690018
  28.5480003  41.3460007  58.9490013  29.5039997  45.3829994  60.6969986
  29.9640007  46.5009995  60.5070000  29.5219994  44.9150009  61.9650002
  29.0230007  43.9720001  62.1160011  30.3239994  45.2369995  63.1619987
  30.1650009  46.3230019  63.3950005  29.9890003  44.4000015  64.4540024
  30.1770000  43.3670006  64.2890015  30.6450005  44.8810005  65.1940002
  28.6049995  44.3839989  64.9079971  28.1469994  43.4510002  65.5080032
  27.7840004  45.3660011  64.6699982  26.9099998  45.3479996  65.1999969
  28.1369991  46.2360001  64.3690033  31.8330002  45.0880013  62.8860016
  32.5719986  46.0070000  63.1839981  32.3349991  44.0009995  62.2900009
  31.6749992  43.2789993  61.9860001  33.7270012  43.8190002  61.8069992
  34.2859993  44.8170013  61.8590012  34.2879982  42.7319984  62.7910004
  34.1520004  43.0999985  63.8199997  33.6180000  41.9249992  62.7939987
  35.7309990  42.3330002  62.4869995  35.8260002  42.0449982  61.4059982
  36.7299995  43.4379997  62.7449989  37.7540016  43.1609993  62.7999992
  36.5859985  44.1829987  61.9519997  36.5279999  43.8580017  63.7430000
  35.9910011  41.0349998  63.3059998  35.4659996  40.1790009  62.9519997
  37.0429993  40.7639999  63.2159996  35.6669998  41.1969986  64.3190002
  33.6860008  43.3889999  60.3520012  32.8250008  42.5839996  59.9959984
  34.6990013  43.8590012  59.5839996  35.3709984  44.4239998  60.0379982
  34.9720001  43.2989998  58.2639999  34.5009995  42.3590012  58.0320015
  34.5390015  44.3320007  57.2400017  35.1170006  45.1980019  57.4790001
  34.9560013  43.8450012  55.8629990  34.6030006  42.8419991  55.5499992
  34.5750008  44.5509987  55.1370010  36.0209999  43.8170013  55.9049988
  33.0449982  44.7039986  57.2420006  32.3670006  44.0079994  56.7130013
  32.7229996  44.7620010  58.2690010  32.7330017  46.1539993  56.7550011
  33.5900002  46.8839989  57.0629997  32.7560005  46.1349983  55.6300011
  31.6940002  46.4580002  57.0219994  36.4770012  43.0600014  58.1450005
  37.2859993  43.9560013  58.5340004  36.8790016  41.9220009  57.7050018
  36.1710014  41.3170013  57.4109993  38.2480011  41.5120010  57.3569984
  38.9440002  42.2379990  57.8120003  38.5470009  40.1710014  58.0040016
  38.0680008  39.4830017  57.3260002  40.1220016  39.9679985  58.0699997
  40.6800003  40.3149986  57.2120018  40.5800018  40.5690002  58.8580017
  40.3619995  38.9059982  58.0849991  37.9169998  39.9830017  59.4029999
  38.0359993  40.8930016  60.0009995  36.8559990  39.8699989  59.2130013
  38.4140015  38.6959991  60.0340004  39.4959984  38.7490005  60.1599998
  37.8199997  38.4889984  60.9360008  38.2789993  37.9309998  59.2849998
  38.4410019  41.5299988  55.8510017  37.4640007  41.1399994  55.1829987
  39.6100006  41.8699989  55.3300018  40.3110008  42.2000008  55.9809990
  39.7960014  41.8359985  53.8940010  39.0789986  41.0550003  53.4650002
  39.4160004  43.2690010  53.3110008  38.3419991  43.3559990  53.4360008
  39.7919998  44.0589981  53.9080009  39.8919983  43.5130005  51.8750000
  40.9669991  43.6080017  51.9309998  39.6969986  42.7050018  51.1629982
  39.1529999  45.0340004  51.1660004  37.6829987  44.4370003  50.3100014
  37.6380005  45.0670013  49.3709984  37.6990013  43.3470001  50.0239983
  36.7330017  44.5120010  50.8549995  41.1669998  41.3619995  53.5620003
  42.1150017  42.0670013  53.9179993  41.2610016  40.2010002  52.8540001
  40.4430008  39.5880013  52.6339989  42.5009995  39.6689987  52.2849998
  43.3250008  39.9210014  52.9239998  42.4379997  38.1080017  52.2610016
  41.9239998  37.7649994  53.1949997  41.8699989  37.8170013  51.3899994
  43.8110008  37.4430008  52.3800011  44.7949982  38.1500015  52.2949982
  43.8889999  36.1899986  52.5509987  42.7309990  40.2039986  50.8849983
  41.7729988  40.3660011  50.0929985  44.0180016  40.4529991  50.5740013
  44.7109985  40.0149994  51.1349983  44.4379997  41.0680008  49.2999992
  45.4679985  41.0870018  49.4129982  44.2597961  40.0400925  48.1399651
  43.1882896  40.0195122  47.9283638  44.7654915  40.4202576  47.2476959
  44.7440453  38.6158180  48.4818840  44.2135925  38.1826019  49.3391724
  44.5211487  37.9333153  47.6547661  46.2280540  38.4141006  48.7219315
  47.0816727  39.2920380  48.6341972  46.5237694  37.1374359  48.9810791
  44.0359993  42.5120010  48.9539986  43.4930000  42.8390007  47.9210014
  44.1899986  43.3170013  50.0239983  44.4920006  42.8499985  50.8339996
  43.6259995  44.6629982  50.0480003  42.5620003  44.6310005  49.7109985
  43.5709991  45.1469994  51.5439987  44.5989990  45.2280006  51.9420013
  42.9179993  46.0550003  51.4910011  43.1310005  44.5099983  52.2350006
  44.4080009  45.6570015  49.2280006  44.3769989  46.8460007  49.4959984
  44.9490013  45.1870003  48.0680008  44.9570007  44.1710014  48.0110016
  45.6380005  45.9609985  46.9980011  45.4970016  46.9739990  47.2360001
  47.0950012  45.5040016  47.0110016  47.8050003  46.2070007  46.4819984
  47.4510002  45.5849991  48.0349998  47.1539993  44.0180016  46.4790001
  46.8860016  42.8380013  47.1279984  47.2309990  41.7910004  46.3660011
  46.9729996  40.7750015  46.6279984  47.5270004  42.2840004  45.1910019
  47.8310013  41.6580009  44.3919983  47.5040016  43.6800003  45.2050018
  47.7340012  44.3450012  44.3489990  45.0219994  45.7210007  45.6389999
  45.3499985  46.3740005  44.7070007  44.1759987  44.6959991  45.4389992
  43.9459991  44.1329994  46.2439995  43.9519997  44.0279999  44.1559982
  44.9529991  43.7210007  43.8359985  43.1879997  42.6949997  44.4199982
  43.7840004  42.2000008  45.1739998  42.2449989  42.9020004  44.8600006
  43.0769997  41.8250008  43.2420006  41.8590012  41.3759995  42.8400002
  40.9269981  41.7099991  43.3160019  41.6469994  40.7140007  41.7220001
  40.6199989  40.5670013  41.4389992  42.6850014  40.2589989  40.9589996
  42.4980011  39.7610016  40.0670013  43.9949989  40.6599998  41.3390007
  44.7939987  40.3349991  40.7690010  44.2039986  41.4529991  42.4480019
  45.2340012  41.7929993  42.6160011  43.4099998  44.8260002  42.9790001
  42.8160019  45.8979988  43.1599998  43.4710007  44.3629990  41.7739983
  43.8190002  43.4269981  41.6399994  43.3180008  45.0139999  40.4449997
  43.5919991  46.0800018  40.5620003  44.3079987  44.3429985  39.4729996
  44.1850014  44.7639999  38.5149994  45.8139992  44.5120010  39.8650017
  45.9059982  43.9189987  40.8069992  46.5019989  43.9790001  39.1189995
  46.0509987  45.5470009  39.9290009  44.0629997  42.9640007  39.4169998
  43.2599983  42.8120003  38.9049988  41.8930016  44.9399986  39.8050003
  41.7340012  45.4500008  38.6920013  40.8989983  44.3429985  40.4669991
  41.1290016  43.7420006  41.2010002  39.4790001  44.3100014  39.9910011
  39.4739990  44.0919991  38.8829994  38.7770004  43.0690002  40.6320000
  39.2879982  42.1329994  40.4729996  38.7029991  43.2439995  41.6660004
  37.3839989  42.9949989  40.0760002  37.1129990  43.2540016  38.8740005
  36.4910011  42.5830002  40.8479996  38.7989998  45.6199989  40.3149986
  38.7890015  45.9860001  41.5130005  38.1399994  46.3790016  39.3590012
  38.0970001  46.1450005  37.9650002  37.4690018  45.2809982  37.7659988
  39.1710014  45.9119987  37.6080017  37.4869995  47.4949989  37.4290009
  37.0099983  47.3079987  36.5089989  38.2490005  48.2459984  37.3460007
  36.5579987  47.9160004  38.5099983  35.6720009  47.2490005  38.4799995
  36.3670006  48.9259987  38.5750008  37.4169998  47.5309982  39.7659988
  38.1409988  48.2869987  40.0369987  36.4459991  47.3820000  40.9300003
  36.5649986  48.2589989  41.7560005  35.6749992  46.2799988  41.1180000
  35.7000008  45.5989990  40.3569984  34.8310013  45.8699989  42.3699989
  34.1570015  46.7350006  42.7179985  34.0769997  44.6080017  41.9679985
  33.1520004  44.5559998  42.4459991  33.7779999  44.6959991  40.8880005
  34.6119995  43.6710014  42.1809998  35.5589981  45.6080017  43.6259995
  34.8829994  45.5800018  44.6529999  36.8709984  45.4309998  43.5480003
  37.2779999  45.4539986  42.6329994  37.7869987  45.1749992  44.6769981
  37.3160019  44.6839981  45.5369987  38.8829994  44.2519989  44.0989990
  38.4679985  43.3349991  43.9510002  39.3460007  44.7229996  43.2779999
  39.8740005  44.1160011  45.0989990  39.6189995  43.3839989  45.6660004
  38.3269997  46.5270004  45.1860008  38.1920013  46.8260002  46.3889999
  38.7900009  47.4259987  44.3079987  38.7389984  47.1389999  43.3339996
  39.0740013  48.8269997  44.6320000  39.9280014  48.8530006  45.3909988
  39.5169983  49.5909996  43.3740005  38.8030014  49.3860016  42.5239983
  39.6119995  51.1310005  43.5709991  40.2980003  51.4379997  44.3889999
  40.0359993  51.4389992  42.6069984  38.6409988  51.5379982  43.7560005
  40.9749985  49.1469994  43.0279999  41.7179985  49.7809982  43.5070000
  41.1819992  48.1030006  43.2560005  41.1419983  49.2490005  41.4860001
  40.5200005  48.5880013  40.8629990  40.8330002  50.2459984  41.1769981
  42.1720009  49.1619987  41.2060013  37.7929993  49.4799995  45.2610016
  37.8470001  50.1619987  46.2960014  36.6279984  49.2900009  44.6990013
  36.6170006  48.6730003  43.8260002  35.4109993  49.8909988  45.1599998
  35.6769981  50.9059982  45.2159996  34.3419991  49.6160011  44.1189995
  33.5979996  50.3950005  44.2039986  34.8370018  49.7550011  43.1209984
  33.8959999  48.6199989  44.2709999  34.9669991  49.4109993  46.5760002
  34.6389999  50.2939987  47.3919983  35.1370010  48.1510010  46.8750000
  35.4259987  47.5449982  46.1199989  35.0519981  47.6739998  48.2719994
  34.0460014  47.7159996  48.5320015  35.3689995  46.1300011  48.2010002
  35.1549988  45.7709999  49.1879997  34.7089996  45.6529999  47.4440002
  36.4599991  45.9140015  47.9760017  35.8230019  48.4860001  49.2459984
  35.3610001  48.9809990  50.2270012  37.1059990  48.7369995  48.9959984
  37.5050011  48.4830017  48.0940018  38.0040016  49.4049988  49.9360008
  37.9140015  48.9220009  50.8909988  39.4319992  49.4230003  49.4430008
  39.4599991  49.6949997  48.3940010  39.9059982  50.1819992  50.1339989
  40.1090012  48.1030006  49.6689987  40.1250000  47.9370003  50.7420006
  39.6230011  47.2669983  49.1209984  41.5999985  48.1920013  49.1160011
  42.2480011  48.9410019  49.6339989  41.9850006  47.3269997  49.5499992
  41.8429985  48.4129982  47.6660004  42.2490005  49.3129997  47.3629990
  41.9220009  47.4490013  46.7750015  41.2050018  46.3520012  46.8740005
  40.3470001  46.4729996  47.4160004  41.1879997  45.7120018  46.1110001
  42.6440010  47.6899986  45.7239990  42.9850006  48.6790009  45.6699982
  42.6320000  47.0159988  44.9370003  37.5190010  50.8310013  50.1699982
  37.3339996  51.1199989  51.3409996  37.2760010  51.6940002  49.1940002
  37.4980011  51.4160004  48.2550011  36.5680008  52.9500008  49.3199997
  37.2239990  53.6669998  49.8730011  36.4529991  53.3989983  48.2610016
  35.2159996  52.9070015  50.1059990  35.0730019  53.8460007  50.9420013
  34.3260002  51.9690018  49.9360008  34.3709984  51.4210014  49.0810013
  33.1479988  51.9290009  50.7400017  32.7340012  52.8989983  50.6889992
  32.1910019  50.9669991  50.1139984  31.8969994  51.3520012  49.1360016
  32.7410011  50.0099983  49.9430008  30.9400005  50.6399994  50.9570007
  29.8129997  51.5200005  50.8520012  29.7989998  52.4090004  50.2649994
  28.5760002  51.2239990  51.5410004  27.6399994  51.8330002  51.4230003
  28.4150009  50.0810013  52.4259987  27.1970005  49.7500000  52.9480019
  26.4009991  50.3009987  52.9189987  29.5730000  49.2949982  52.5060005
  29.5030003  48.3330002  53.0940018  30.7590008  49.4980011  51.8050003
  31.5809994  48.7389984  51.8380013  33.4160004  51.4420013  52.1679993
  32.9959984  52.0719986  53.1230011  34.1119995  50.3129997  52.4350014
  34.5270004  49.8440018  51.6090012  34.3880005  49.8260002  53.7560005
  33.4620018  49.6069984  54.3149986  35.1629982  48.4510002  53.5909996
  36.0250015  48.7070007  52.9230003  35.6959991  48.0919991  54.9879990
  34.8639984  47.9199982  55.6839981  36.2169991  47.1609993  54.9790001
  36.4269981  48.7970009  55.3470001  34.2169991  47.3779984  52.8800011
  33.4799995  46.9739990  53.6059990  33.5559998  47.7000008  52.0509987
  35.0019989  46.1290016  52.4449997  35.4519997  45.7060013  53.3540001
  34.4339981  45.3849983  51.8790016  35.8419991  46.3660011  51.7620010
  35.1529999  50.8279991  54.5839996  34.7729988  51.1780014  55.6629982
  36.2039986  51.4760017  54.0289993  36.5730019  51.1450005  53.1529999
  36.9550018  52.5730019  54.6679993  37.4850006  52.2830009  55.5559998
  38.1609993  53.0629997  53.8930016  38.7420006  53.8380013  54.4819984
  38.8460007  52.2400017  53.7809982  37.7369995  53.4239998  52.5589981
  37.6220016  52.5989990  52.1119995  36.0810013  53.7719994  55.0009995
  36.2410011  54.3969994  56.0909996  35.1129990  54.0740013  54.1730003
  35.0429993  53.6450005  53.2029991  34.0789986  55.0950012  54.4860001
  34.4580002  56.0369987  54.7849998  33.3400002  55.3839989  53.1829987
  32.8400002  54.4889984  52.7779999  32.2290001  56.3979988  53.5750008
  32.6389999  57.1689987  54.1959991  31.8269997  56.8559990  52.6730003
  31.3850002  55.9370003  54.0999985  34.2060013  55.9410019  52.2910004
  34.8670006  55.3470001  51.8489990  33.0940018  54.6679993  55.5709991
  32.8409996  55.4500008  56.4230003  32.6559982  53.4389992  55.6769981
  32.9319992  52.8230019  54.8769989  31.8619995  52.9550018  56.8400002
  31.1019993  53.7290001  57.0279999  31.1630001  51.6139984  56.4109993
  31.9330006  50.8860016  56.1440010  30.7360001  51.0359993  57.2109985
  30.2159996  51.6809998  55.2159996  30.8390007  51.8030014  54.2960014
  29.7609997  50.7070007  55.1749992  29.1450005  52.7060013  55.1899986
  29.6569996  53.6710014  55.1889992  28.5820007  52.5709991  54.2999992
  28.1520004  52.5830002  56.3310013  27.9599991  51.7120018  56.7140007
  27.3349991  53.5279999  56.7200012  27.5359993  54.7540016  56.3520012
  28.4109993  54.9469986  55.8899994  26.7460003  55.4029999  56.2980003
  26.3579998  53.3079987  57.5449982  26.2409992  52.3870010  57.9049988
  25.6329994  54.0299988  57.6809998  32.6839981  52.7999992  58.1730003
  32.1230011  53.0330009  59.2620010  33.9529991  52.3370018  58.1599998
  34.3139992  51.9910011  57.2890015  34.8019981  52.4150009  59.3639984
  34.3160019  51.7500000  60.0559998  36.1850014  52.0149994  59.0169983
  36.4939995  52.5200005  58.0810013  37.1590004  52.1949997  60.1809998
  36.7830009  51.6040001  61.1110001  38.0579987  51.7080002  59.8460007
  37.4099998  53.2169991  60.3040009  36.2010002  50.4720001  58.7540016
  35.4249992  50.1450005  58.0009995  37.2439995  50.1180000  58.5540009
  36.0029984  49.9640007  59.6800003  34.9220009  53.9049988  59.9599991
  34.6580009  54.1040001  61.1370010  35.2610016  54.8829994  59.1529999
  35.1010017  54.7570000  58.1749992  35.5089989  56.2809982  59.6500015
  36.3429985  56.3069992  60.3639984  35.8959999  57.1300011  58.3440018
  36.8199997  56.7340012  57.8989983  35.1349983  56.9399986  57.6689987
  36.1290016  58.6599998  58.5289993  36.3899994  59.0359993  57.5589981
  35.1529999  59.0250015  58.8820000  37.2169991  59.0029984  59.5449982
  37.1090012  60.0530014  60.1809998  38.2010002  58.2330017  59.7649994
  34.2739983  56.8969994  60.2010002  34.3629990  57.6279984  61.1990013
  33.1679993  56.5779991  59.5209999  33.3230019  55.8730011  58.7639999
  31.7749996  56.8250008  59.9620018  31.5779991  57.9189987  60.0909996
  30.7980003  56.5279999  58.8919983  30.9599991  55.5379982  58.4840012
  29.8719997  56.5989990  59.3339996  30.8449993  57.5629997  57.8650017
  30.8209991  58.5239983  58.3590012  31.8419991  57.6049995  57.3460007
  29.5480003  57.3180008  56.6539993  29.9309998  58.6559982  55.5120010
  30.9039993  58.3779984  55.1440010  29.2689991  58.6850014  54.6339989
  30.0070000  59.6170006  56.0810013  31.3829994  56.2309990  61.3359985
  30.3069992  56.4840012  61.8680000  32.2700005  55.5410004  61.9830017
  33.0629997  55.2459984  61.4570007  32.1640015  54.8709984  63.2299995
  33.1450005  54.4560013  63.4700012  31.9279995  55.6259995  63.9650002
  31.2159996  53.7400017  63.2830009  30.7859993  53.4920006  64.3929977
  30.8110008  53.2420006  62.1539993  31.1830006  53.6590004  61.3429985
  29.8470001  52.1969986  61.9840012  29.2439995  52.2109985  62.9259987
  28.9890003  52.5169983  60.7470016  29.6529999  52.4799995  59.8569984
  28.2229996  51.7210007  60.5760002  28.2689991  53.8759995  60.6780014
  28.9930000  54.6899986  60.5299988  27.6720009  53.8320007  59.8100014
  27.3939991  54.2260017  61.8349991  26.9130001  53.3219986  62.5589981
  27.1399994  55.3909988  62.0340004  30.3799992  50.7799988  61.8689995
  29.5830002  49.8330002  62.2010002  31.6760006  50.5229988  61.5320015
  32.2599983  51.1910019  61.0820007  32.2799988  49.2200012  61.4459991
  31.7250004  48.5470009  61.9959984  32.2060013  48.6910019  60.0019989
  32.8820000  47.8089981  59.9949989  31.1219997  48.5209999  59.8740005
  32.5289993  49.4379997  59.2919998  33.7299995  49.2500000  61.9490013
  34.3370018  50.3600006  62.0169983  34.3180008  48.0760002  62.2299995
  33.7929993  47.2239990  62.0040016  35.7750015  47.9199982  62.3089981
  36.2420006  48.8940010  62.5610008  36.0439987  46.9920006  63.4410019
  35.5740013  46.0219994  63.2760010  37.1209984  46.8040009  63.6049995
  35.5130005  47.3139992  64.3610001  36.3959999  47.3250008  61.0340004
  35.6850014  46.5289993  60.4119987  37.6440010  47.6349983  60.6590004
  38.1829987  48.2919998  61.2490005  38.4239998  47.0559998  59.5190010
  37.8030014  46.2719994  59.1279984  38.6049995  47.7789993  58.8100014
  39.7420006  46.3849983  59.9199982  40.4640007  46.9049988  60.7859993
  40.0359993  45.1980019  59.3440018  39.2620010  44.7579994  58.9160004
  41.2589989  44.4370003  59.2709999  42.0999985  44.9589996  59.7659988
  41.2939987  43.1459999  60.0670013  40.3930016  42.5270004  59.9049988
  42.5989990  42.3720016  59.6380005  42.4529991  42.0540009  58.5929985
  43.4599991  43.0009995  59.7849998  42.6389999  41.4599991  60.2540016
  41.2290001  43.4519997  61.6279984  42.0460014  44.0970001  61.8880005
  40.3059998  44.0639992  61.8839989  41.2270012  42.2490005  62.6529999
  40.4640007  41.4529991  62.4269981  42.2369995  41.7439995  62.7010002
  41.0279999  42.6870003  63.6660004  41.4819984  44.3769989  57.6940002
  40.7379990  43.7029991  57.0139999  42.6090012  44.8300018  57.1910019
  43.2770004  45.2260017  57.8370018  43.1510010  44.6549988  55.8590012
  42.4339981  44.2659988  55.1889992  43.4690018  45.9819984  55.1819992
  44.1910019  46.4930000  55.8639984  44.0139999  45.8030014  54.2299995
  42.2949982  46.9000015  54.8050003  40.9879990  46.4290009  54.7760010
  40.6669998  45.5579987  55.2779999  39.9640007  47.3530006  54.4189987
  38.9119987  47.1689987  54.6209984  40.3460007  48.6119995  53.9459991
  39.5600014  49.3380013  53.8240013  41.6650009  48.9669991  53.7249985
  41.9129982  49.9440002  53.3479996  42.6590004  48.0699997  54.1720009
  43.6279984  48.3559990  54.1279984  44.4080009  43.8129997  55.9830017
  45.2360001  43.9939995  56.8709984  44.5410004  42.8040009  55.0859985
  43.8370018  42.8019981  54.3670006  45.5610008  41.8089981  55.1080017
  46.3610001  42.1010017  55.8209991  44.9399986  40.5200005  55.5089989
  44.2729988  40.1409988  54.7680016  45.6300011  39.7239990  55.5460014
  44.2970009  40.3730011  56.8639984  44.7859993  41.0620003  57.6240005
  43.2379990  40.6339989  56.7550011  44.2779999  38.6710014  57.6230011
  43.5439987  37.8199997  56.1510010  42.7350006  38.4269981  55.7560005
  44.1720009  37.7290001  55.2910004  43.2490005  36.7760010  56.4080009
  46.1399994  41.5870018  53.7000008  45.4420013  41.5449982  52.7130013
  47.4669991  41.6580009  53.5139999  48.0779991  41.7859993  54.3199997
  48.1529999  41.1879997  52.2859993  47.8530006  40.1459999  52.0890007
  47.8279991  42.0730019  51.0289993  46.7239990  42.0709991  50.9150009
  48.2589989  43.5130005  51.1180000  47.9700012  44.1180000  50.2190018
  47.9290009  43.9580002  52.0209999  49.3769989  43.5649986  51.1080017
  48.4150009  41.5379982  49.8870010  47.9099998  40.7739983  49.5620003
  49.7070007  41.2970009  52.4939995  50.1250000  42.0309982  53.4099998
  50.4669991  40.6389999  51.5929985  50.0489998  40.0349998  50.9160004
  51.9560013  40.8759995  51.5929985  52.2229996  41.1759987  52.6399994
  52.5960007  39.5639992  51.2529984  52.3549995  39.2220001  50.2290001
  53.6720009  39.6189995  51.3240013  52.2270012  38.7070007  51.8779984
  52.3279991  42.0550003  50.6310005  53.3940010  42.6139984  50.8359985
  51.4210014  42.4620018  49.6780014  50.6759987  41.8110008  49.4900017
  51.6440010  43.5340004  48.7140007  52.6660004  43.8800011  48.7649994
  51.5740013  42.9809990  47.2809982  51.6969986  43.7929993  46.5730019
  52.7120018  41.9860001  47.0880013  52.6150017  41.1440010  47.8349991
  52.6279984  41.5699997  46.1129990  53.5820007  42.6399994  47.1510010
  50.4000015  42.3050003  47.0789986  49.5970001  42.8849983  47.2340012
  50.7010002  44.7350006  48.9179993  49.7639999  44.8779984  48.1829987
  50.8790016  45.6479988  49.8860016  51.8419991  45.5470009  50.9980011
  52.8470001  45.6850014  50.6189995  51.7120018  44.5239983  51.4519997
  51.4900017  46.6080017  52.0009995  52.3139992  47.3320007  52.0909996
  51.0279999  46.1129990  52.8919983  50.3089981  47.3600006  51.3750000
  50.5760002  48.3359985  51.2120018  49.5449982  47.4290009  52.1469994
  49.8440018  46.6069984  50.1389999  48.8590012  46.1990013  50.4659996
  49.5340004  47.5890007  49.0699997  50.3470001  47.7709999  48.1990013
  48.3959999  48.3009987  49.0880013  47.2420006  48.2150002  49.9599991
  47.4970016  48.4350014  50.9659996  46.8180008  47.2620010  49.8149986
  46.3190002  49.4039993  49.5260010  46.5890007  50.2400017  50.1189995
  45.2599983  49.1990013  49.6609993  46.6430016  49.6590004  48.0509987
  46.5499992  50.6819992  47.8339996  45.9770012  49.0410004  47.3950005
  48.0550003  49.1769981  47.9519997  48.2109985  48.5859985  47.0670013
  48.9959984  50.3930016  47.8750000  49.2999992  51.0979996  48.8580017
  49.6870003  50.5719986  46.7560005  49.5919991  49.9059982  46.0379982
  50.7500000  51.5750008  46.5219994  50.7439995  51.8680000  45.4700012
  50.5299988  52.4570007  47.2150002  52.1759987  51.0250015  46.7760010
  53.0919991  51.8240013  46.9389992  52.3730011  49.7459984  46.8540001
  51.5620003  49.1020012  46.8779984  53.7540016  49.1899986  46.9910011
  54.2840004  49.7319984  47.7949982  53.6360016  47.7570000  47.3849983
  52.8940010  47.6809998  48.1520004  53.3779984  47.1220016  46.5369987
  54.8720016  47.3050003  48.0839996  54.8520012  47.4770012  49.0849991
  54.6199989  49.3160019  45.7150002  54.0880013  49.2280006  44.6479988
  55.9469986  49.5260010  45.8930016  56.2760010  49.5950012  46.8489990
  56.9850006  49.5979996  44.8390007  56.4939995  49.3269997  43.8660011
  57.6049995  51.0499992  44.8069992  58.0600014  51.3170013  45.7490005
  58.4900017  51.0740013  44.1069984  56.6459999  52.1980019  44.3989983
  56.2389984  51.9199982  43.4529991  55.8699989  52.3580017  45.1300011
  57.2280006  53.5699997  44.2509995  56.3820000  54.2820015  44.1609993
  57.7480011  53.8639984  45.1769981  58.1329994  53.7470016  43.1080017
  57.7220001  53.6699982  42.2190018  59.4029999  53.4700012  43.0569992
  59.9539986  53.3810005  41.9000015  59.2420006  53.4059982  41.1629982
  60.9869995  53.4230003  41.7719994  60.1510010  53.3009987  44.0789986
  59.7239990  53.6399994  44.9319992  61.1479988  53.2470016  43.9900017
  58.1180000  48.5660019  44.9720001  59.1899986  48.7050018  44.4449997
  57.8759995  47.4230003  45.5940018  57.0130005  47.3540001  46.1170006
  58.8380013  46.3050003  45.8849983  59.7830009  46.5449982  45.3540001
  59.0559998  46.2550011  47.3650017  59.3300018  47.2060013  47.7400017
  58.1710014  45.9090004  47.9049988  60.0499992  45.1409988  47.7120018
  60.5530014  44.4169998  46.8699989  60.2799988  45.0340004  48.9020004
  58.3059998  44.9329987  45.3230019  57.5099983  44.3089981  45.9799995
  58.8240013  44.4220009  44.2249985  59.5009995  45.1839981  43.1860008
  60.3540001  45.7690010  43.5239983  58.8009987  45.9469986  42.8489990
  59.7809982  44.2220001  42.0429993  60.6220016  43.5909996  42.2319984
  59.9169998  44.7340012  41.0569992  58.5219994  43.3520012  42.1209984
  58.7050018  42.3940010  41.6100006  57.7449989  44.0040016  41.7700005
  58.4099998  43.2309990  43.6080017  57.3409996  43.0159988  43.9580002
  59.2109985  41.9970016  44.1669998  59.0489998  40.8860016  43.6489983
  60.0919991  42.2159996  45.1599998  60.2109985  43.2099991  45.3330002
  61.0890007  41.1809998  45.6720009  60.9119987  40.1020012  45.4589996
  62.5040016  41.5040016  45.1119995  62.6809998  42.5379982  45.1040001
  63.3079987  41.0340004  45.6370010  62.6870003  41.0709991  43.6669998
  62.5489998  39.7610016  43.2270012  62.3359985  38.9449997  43.8950005
  62.8450012  39.4210014  41.8979988  62.8339996  38.3880005  41.5089989
  63.1619987  40.4339981  40.9609985  63.4879990  40.2669983  39.8899994
  63.0900002  41.7919998  41.3520012  63.3709984  42.5690002  40.6599998
  62.8600006  42.1160011  42.7239990  62.9949989  43.1489983  43.0620003
  61.0229988  41.1790009  47.1920013  62.0410004  41.5569992  47.8339996
  59.8829994  40.8820000  47.8860016  58.5660019  40.7760010  47.1780014
  58.6259995  39.9790001  46.4399986  58.2270012  41.6370010  46.6440010
  57.5239983  40.4700012  48.2430000  57.4339981  39.3600006  48.3720016
  56.6419983  40.9990005  48.0040016  58.2159996  40.8839989  49.5050011
  57.9700012  40.2779999  50.2599983  57.9809990  41.9020004  49.7560005
  59.7719994  40.8349991  49.3079987  60.1899986  41.7350006  49.6780014
  60.4239998  39.6549988  50.0029984  61.0499992  38.7729988  49.3660011
  60.2840004  39.5530014  51.3359985  59.8089981  40.3180008  51.7809982
  60.9029999  38.5110016  52.1020012  61.9679985  38.4449997  51.8190002
  60.9620018  38.9119987  53.5779991  59.9939995  39.2529984  53.9070015
  61.4690018  38.1619987  54.1279984  61.9900017  40.0559998  53.7529984
  63.0480003  39.7929993  53.5929985  61.9049988  40.8330002  52.9589996
  61.8590012  40.7350006  55.1090012  61.3359985  40.0649986  56.0110016
  62.3419991  41.9239998  55.4169998  61.9599991  42.3170013  56.2949982
  62.7779999  42.5139999  54.6809998  60.1980019  37.1549988  51.8759995
  59.0499992  37.1320000  51.3149986  60.7340012  36.0880013  52.4980011
  61.6809998  36.2379990  52.8320007  60.0900002  34.7410011  52.3989983
  59.0530014  34.7680016  52.6500015  60.4480019  34.1489983  51.0499992
  59.9449997  33.2439995  51.0279999  60.0330009  34.7190018  50.2910004
  61.7929993  34.0149994  50.8199997  62.0169983  33.0349998  50.7190018
  60.5870018  33.7869987  53.4939995  61.6199989  33.9850006  54.0680008
  59.7799988  32.6870003  53.7229996  58.8810005  32.6459999  53.2229996
  60.1250000  31.7380009  54.7949982  60.1689987  32.4099998  55.6790009
  58.9459991  30.7730007  54.9700012  58.3580017  30.6599998  54.0919991
  59.2529984  29.8120003  55.2900009  57.9799995  31.1889992  56.1150017
  58.2999992  31.9979992  57.0330009  56.8590012  30.5599995  56.1980019
  56.3320007  30.7280006  57.0159988  56.7000008  29.7709999  55.5369987
  61.4990005  31.0459995  54.4799995  62.2760010  30.8600006  55.4420013
  61.8050003  30.7210007  53.2400017  61.1380005  30.9720001  52.4630013
  63.1469994  30.2830009  52.8030014  63.8170013  30.7089996  53.4889984
  63.2089996  28.7989998  52.8250008  64.2060013  28.3740005  52.5239983
  62.9500008  28.5860004  53.7919998  62.3219986  28.3959999  52.3349991
  63.5680008  30.9680004  51.4749985  62.6549988  31.4990005  50.8170013
  64.7990036  30.9209995  51.0099983  65.9420013  30.3260002  51.6710014
  65.9459991  29.2420006  51.4560013  65.9250031  30.4279995  52.7449989
  67.1439972  31.0300007  51.0890007  68.0120010  30.3740005  51.0839996
  67.3290024  32.0060005  51.5439987  66.6699982  31.1350002  49.6329994
  66.8460007  30.2070007  49.0960007  67.1399994  31.9169998  49.0970001
  65.2200012  31.5330009  49.7690010  65.2480011  32.6059990  49.9539986
  64.5410004  31.1229992  48.4519997  64.2710037  29.9599991  48.1949997
  64.3470001  32.1440010  47.5600014  64.7689972  33.0429993  47.7739983
  63.9109993  32.0149994  46.1689987  63.8009987  31.0000000  45.9440002
  62.5979996  32.8129997  45.9770012  62.8240013  33.8660011  46.0639992
  62.1809998  32.6549988  44.4930000  62.2220001  31.6049995  44.2179985
  61.2220001  33.0589981  44.2570000  62.9290009  33.1640015  43.8919983
  61.4770012  32.4609985  47.0499992  61.3030014  31.3379993  46.9210014
  61.8790016  32.6539993  48.0499992  60.1469994  33.2610016  46.9550018
  59.5519981  33.1170006  47.8419991  60.3639984  34.3349991  47.0509987
  59.6049995  33.0340004  46.0349998  65.0080032  32.4930000  45.2550011
  65.3539963  33.6800003  45.3230019  65.4599991  31.5979996  44.4249992
  64.9459991  30.6980000  44.4430008  66.2470016  31.9050007  43.2080002
  67.1309967  32.4529991  43.4990005  66.6439972  30.5450001  42.6329994
  65.7389984  29.8980007  42.5449982  67.1900024  30.7180004  41.1250000
  67.9869995  31.4570007  41.1489983  67.6549988  29.8239994  40.7879982
  66.4280014  30.9810009  40.3959999  67.6900024  29.7649994  43.5110016
  68.6729965  30.1910000  43.4790001  67.4069977  29.8549995  44.5730019
  67.8109970  28.2689991  43.3199997  68.3150024  28.0480003  42.3199997
  68.4449997  27.8750000  44.1500015  66.8919983  27.7329998  43.4059982
  65.4380035  32.7659988  42.2550011  64.3990021  32.3950005  41.6910019
  65.9980011  33.9370003  41.9280014  66.8919983  34.1640015  42.3409996
  65.3659973  34.9970016  41.1389999  64.3119965  34.7649994  40.9650002
  65.4059982  36.4179993  41.7290001  66.5120010  36.6580009  41.8129997
  64.8949966  37.1349983  41.1399994  64.9120026  36.6339989  43.1619987
  64.0569992  35.8460007  43.6360016  65.5120010  37.4539986  43.9099998
  66.1579971  35.0390015  39.8019981  66.9199982  35.9679985  39.5649986
  65.8150024  34.1800003  38.8650017  65.0940018  33.4630013  39.0979996
  66.5910034  34.1010017  37.6240005  67.5839996  34.5610008  37.7080002
  66.7379990  32.6059990  37.2270012  67.1620026  32.1839981  38.1430016
  65.7689972  32.1419983  37.0660019  67.4680023  32.2760010  35.9449997
  67.3089981  31.2099991  35.6889992  67.0749969  32.7849998  35.1030006
  68.9940033  32.5730019  35.9700012  69.5380020  33.3750000  36.7659988
  69.7340012  31.9349995  35.1739998  65.7949982  34.7700005  36.4410019
  64.7939987  34.2599983  35.9599991  66.3580017  35.9080009  35.9850006
  67.1539993  36.2869987  36.4360008  65.9329987  36.3839989  34.7190018
  64.8860016  36.5480003  34.7550011  66.5130005  37.7970009  34.5569992
  66.3649979  38.2709999  35.5070000  67.5859985  37.7589989  34.4539986
  65.8949966  38.6529999  33.3650017  65.5159988  38.0180016  32.5909996
  65.1600037  39.2840004  33.7430000  66.9000015  39.6049995  32.6790009
  67.8799973  39.1310005  32.0779991  66.7070007  40.8230019  32.6059990
  66.3659973  35.4690018  33.5550003  67.5000000  34.9780006  33.5400009
  65.4720001  35.1780014  32.5680008  64.5530014  35.3359985  32.8440018
  65.7340012  34.3289986  31.2560005  66.6309967  34.6969986  30.8110008
  65.6930008  32.9090004  31.8110008  66.2429962  32.7470016  32.7159996
  64.6819992  32.6320000  32.1049995  66.0139999  31.8490009  30.7929993
  65.0719986  31.6560001  30.3999996  66.6780014  32.3670006  30.1240005
  66.6669998  30.5690002  31.3610001  67.4179993  30.9009991  32.1699982
  65.8949966  29.9309998  31.7509995  67.4089966  29.9150009  30.2700005
  67.2910004  30.1779995  29.3139992  68.1959991  28.8490009  30.4200001
  68.8229980  28.3449993  29.3710003  68.5429993  28.4829998  28.3880005
  69.4940033  27.5939999  29.5400009  68.5449982  28.2579994  31.5799999
  68.2389984  28.8980007  32.3950005  69.1060028  27.4349995  31.7609997
  64.6620026  34.6580009  30.1980000  63.5690002  35.1910019  30.4599991
  64.8619995  34.3600006  28.9270000  65.7099991  33.8709984  28.6480007
  63.8359985  34.3650017  27.8610001  63.3289986  35.3100014  27.9720001
  64.4820023  34.2719994  26.4799995  65.3850021  34.8619995  26.3899994
  64.8199997  33.2869987  26.4249992  63.6320000  34.5859985  25.2210007
  64.1520004  34.1790009  24.3920002  62.6559982  34.0130005  25.3209991
  63.3300018  36.0699997  25.1320000  62.5040016  36.4819984  24.3180008
  63.9640007  36.9760017  25.7269993  62.7570000  33.2779999  28.0839996
  63.2089996  32.1599998  28.4220009  61.4630013  33.5639992  28.0410004
  61.1940002  34.4370003  27.5419998  60.4370003  32.5760002  28.1700001
  60.8419991  31.5389996  28.3449993  59.6069984  32.9819984  29.4549999
  59.7529984  34.0379982  29.6420002  58.0579987  32.5610008  29.4860001
  57.9360008  31.5559998  29.1100006  57.6839981  32.6980019  30.4669991
  57.6640015  33.2869987  28.8600006  60.2200012  32.2680016  30.6380005
  59.8330002  31.2649994  30.6200008  61.3180008  32.1749992  30.5389996
  59.9580002  32.9090004  32.0390015  60.4780006  33.8800011  32.1440010
  58.8800011  32.9819984  32.1150017  60.3530006  32.3269997  32.8450012
  59.4970016  32.4249992  26.9370003  59.0009995  33.3919983  26.2970009
  59.1409988  31.1630001  26.5310001  59.5730019  29.8540001  26.9990005
  59.4990005  29.7500000  28.0349998  60.6580009  29.7840004  26.7810001
  58.7649994  28.7560005  26.2329998  58.0349998  28.3349991  26.9169998
  59.4339981  28.0219994  25.7040005  58.0559998  29.5000000  25.1079998
  57.0569992  29.1119995  24.8260002  58.6710014  29.4820004  24.2360001
  58.1119995  30.9880009  25.4909992  58.5070000  31.5470009  24.6439991
  56.7639999  31.5660000  25.8829994  56.3610001  31.5209999  27.0389996
  56.0629997  32.1699982  25.0039997  56.4990005  32.2620010  24.0569992
  54.7280006  32.7960014  25.1009998  54.4480019  33.0320015  26.1480007
  54.7809982  34.2080002  24.4869995  55.2779999  34.0610008  23.5319996
  53.7690010  34.5190010  24.3430004  55.5499992  35.1819992  25.4699993
  54.9990005  35.0950012  26.4279995  56.5299988  34.8440018  25.7339993
  55.5180016  36.6220016  24.9669991  55.9809990  36.8629990  23.8069992
  55.0979996  37.5029984  25.7119999  53.5950012  31.9629993  24.4839993
  52.4819984  32.3610001  24.8360004  53.8940010  30.9540005  23.6800003
  54.9039993  30.7590008  23.4820004  53.0040016  29.9130001  23.2329998
  52.2439995  29.8160000  23.9939995  52.3820000  30.3980007  21.9260006
  53.2639999  30.6289997  21.3069992  51.7500000  29.6110001  21.5909996
  51.5900002  31.7129993  21.8530006  52.1139984  32.5289993  22.3460007
  51.4290009  32.0540009  20.8740005  50.2719994  31.6739998  22.5860004
  49.6339989  30.9459991  22.0909996  50.5260010  31.4430008  23.6469994
  49.5429993  32.9510002  22.5060005  48.6339989  32.9090004  22.0419998
  49.8400002  34.0750008  23.0510006  50.7029991  34.3569984  23.9039993
  51.3069992  33.6459999  24.2339993  50.9179993  35.2890015  24.1520004
  49.2350006  35.1209984  22.7609997  48.6030006  35.1110001  21.9920006
  49.2799988  35.9269981  23.3859997  53.8549995  28.6060009  23.0149994
  54.9760017  28.5620003  23.5499992  53.4199982  27.6650009  22.2639999
  52.5390015  27.8220005  21.7849998  54.2410011  26.4869995  21.8829994
  54.3590012  25.8770008  22.7609997  53.5190010  25.5760002  20.9230003
  53.2019997  26.1170006  19.9850006  54.3089981  24.7970009  20.6779995
  52.3370018  24.9139996  21.3939991  51.6669998  25.5529995  21.1289997
  55.6850014  26.6760006  21.4060001  55.8650017  27.6469994  20.6490002
  56.6650009  25.8419991  21.7280006  56.4220009  24.9629993  22.1860008
  58.0050011  26.0179996  21.1669998  57.9760017  26.6700001  20.3339996
  58.9500008  26.6250000  22.2609997  59.8499985  26.8799992  21.7609997
  58.5410004  27.6130009  22.6259995  59.3069992  25.6800003  23.3430004
  60.4799995  24.9829998  23.3869991  61.2439995  25.1919994  22.7339993
  60.4749985  24.0699997  24.4270000  61.2070007  23.3470001  24.5699997
  59.3810005  24.3659992  25.2250004  59.0000000  23.7250004  26.3859997
  59.6749992  23.1240005  26.9160004  57.6609993  23.8929996  26.7199993
  57.3129997  23.2999992  27.5660000  56.9150009  24.9020004  26.0979996
  55.9169998  25.0650005  26.4179993  57.3409996  25.6270008  24.9549999
  56.7519989  26.2779999  24.3600006  58.5919991  25.2639999  24.4839993
  58.5190010  24.6830006  20.7579994  58.0120010  23.6070004  21.1669998
  59.4809990  24.6840000  19.8160000  59.9189987  25.5380001  19.4920006
  60.1479988  23.4790001  19.4039993  59.7270012  22.5450001  19.9069996
  59.9059982  23.3740005  17.8719997  60.3750000  24.1980000  17.4039993
  60.2820015  22.4500008  17.5300007  58.4510002  23.3850002  17.4610004
  57.8289986  24.4060001  17.0949993  57.7620010  22.2320004  17.5860004
  56.7379990  22.0629997  17.2719994  58.2700005  21.4610004  17.8920002
  61.6430016  23.4220009  19.7719994  62.2620010  22.3540001  19.5550003
  62.2430000  24.4790001  20.2840004  61.7350006  25.3460007  20.4860001
  63.6300011  24.6060009  20.6289997  63.8549995  23.7310009  21.2000008
  64.4820023  24.5629997  19.4069996  64.2149963  23.6870003  18.7269993
  64.2949982  25.4839993  18.8689995  65.8799973  24.3199997  19.7189999
  66.4339981  24.5039997  18.8630009  63.9679985  25.8820000  21.4209995
  63.2050018  26.8659992  21.3850002  65.0729980  25.7199993  22.1459999
  65.4020004  24.7919998  22.1879997  65.8190002  26.8920002  22.7399998
  66.8379974  26.7290001  22.4829998  65.4970016  27.8029995  22.2590008
  65.5849991  27.0470009  24.2140007  66.3199997  27.8320007  24.8789997
  64.6259995  26.2679996  24.7420006  64.2460022  25.5620003  24.1359997
  64.0469971  26.3509998  26.1480007  64.7160034  26.9829998  26.6889992
  62.7060013  26.9580002  26.1399994  61.9819984  26.2630005  25.7989998
  62.4469986  27.1439991  27.1369991  62.4830017  28.3680000  25.4559994
  63.0410004  29.6170006  25.7439995  62.6739998  30.4379997  24.8180008
  63.0340004  31.4580002  24.7479992  61.8810005  29.8780003  23.9209995
  61.5960007  30.3880005  23.0750008  61.7080002  28.5480003  24.3719997
  61.1310005  27.7789993  23.8449993  64.0999985  24.9909992  26.8649998
  63.1640015  24.5660000  27.5130005  65.2080002  24.2509995  26.7360001
  66.0339966  24.7040005  26.2740002  65.3389969  22.9330006  27.3700008
  64.4960022  22.3040009  27.1219997  66.5579987  22.1900005  26.8689995
  67.4400024  22.7040005  27.2099991  66.6770020  21.2360001  27.3869991
  66.6279984  21.9270000  25.3799992  67.4169998  21.1919994  25.1019993
  65.6660004  21.4860001  25.1949997  66.8960037  23.1289997  24.4190006
  66.2020035  23.2500000  23.3929996  67.5599976  24.0979996  24.8740005
  65.2620010  23.0660000  28.9179993  64.8450012  22.0680008  29.5610008
  65.5520020  24.2369995  29.5300007  65.8740005  25.0340004  28.9330006
  65.3619995  24.4880009  30.9759998  66.1119995  23.6900005  31.4260006
  65.8669968  25.9379997  31.2259998  65.9879990  26.0149994  32.3149986
  66.8270035  26.0799999  30.7749996  64.9779968  27.0049992  30.6389999
  65.1050034  27.5820007  29.3980007  65.8889999  27.5179996  28.6779995
  64.1050034  28.4340000  29.2579994  64.1869965  29.1669998  28.6009998
  63.2410011  28.5030003  30.3439999  62.1640015  29.3320007  30.6989994
  61.7529984  29.9669991  30.0240002  61.6020012  29.1709995  31.9570007
  60.6949997  29.7530003  32.2480011  62.0750008  28.2159996  32.8849983
  61.5950012  28.1550007  33.8520012  63.1860008  27.3990002  32.5670013
  63.6459999  26.8239994  33.3639984  63.7840004  27.5639992  31.2549992
  63.8569984  24.3439999  31.4519997  63.6419983  24.1840000  32.6430016
  62.8810005  24.4179993  30.5209999  63.1629982  24.5820007  29.5400009
  61.4819984  24.2119999  30.8530006  61.2350006  24.7970009  31.7479992
  60.4729996  24.5979996  29.8330002  60.5330009  23.8379993  29.0939999
  59.0130005  24.6180000  30.3029995  58.1419983  24.5209999  29.5279999
  58.8979988  23.7320004  30.8850002  58.7470016  25.5279999  30.7649994
  60.6590004  26.0499992  29.3160000  61.6110001  26.1100006  28.9109993
  60.0130005  26.4880009  28.5489998  60.7709999  26.7029991  30.1019993
  61.1790009  22.8069992  31.3419991  60.5439987  22.5669994  32.3820000
  61.7919998  21.8719997  30.6870003  62.4959984  22.0300007  29.9839993
  61.3899994  20.4939995  30.7169991  60.7130013  20.3330002  31.5310001
  60.8040009  20.2140007  29.2870007  60.5149994  19.1669998  29.1490002
  59.5400009  20.9740009  28.8889999  58.7239990  20.9820004  29.6739998
  59.7309990  21.9619999  28.7999992  59.0769997  20.4190006  28.0650005
  61.8009987  20.5569992  28.2870007  62.3479996  19.7500000  28.1840000
  62.5610008  19.5200005  30.9200001  62.2840004  18.3509998  30.9979992
  63.8129997  19.9909992  31.0979996  64.0449982  20.8379993  30.5419998
  64.8610001  19.2530003  31.8040009  64.9380035  18.2180004  31.4260006
  66.1399994  19.9330006  31.4220009  66.1220016  20.9510002  31.7649994
  66.9300003  19.4689999  32.0559998  66.7030029  19.7719994  30.0100002
  67.6890030  20.4799995  29.7150002  66.4270020  18.7910004  29.2089996
  64.6360016  19.1189995  33.3289986  64.8980026  18.0200005  33.8530006
  64.1119995  20.1620007  33.9949989  63.9239998  21.0310001  33.4370003
  63.6769981  20.2000008  35.3959999  64.5609970  19.8390007  35.9550018
  63.4809990  21.6800003  35.8069992  64.4850006  22.1060009  35.9020004
  63.0029984  22.3980007  35.1650009  62.9609985  21.9220009  37.2270012
  61.6539993  21.8050003  37.4749985  60.9249992  21.4740009  36.6930008
  61.1790009  22.2999992  38.7169991  60.1220016  22.4510002  38.9230003
  62.0600014  22.6970005  39.7570000  61.6640015  22.9939995  40.7140007
  63.4150009  22.7500000  39.4659996  64.1740036  23.0459995  40.2029991
  63.8209991  22.4400005  38.1570015  64.8679962  22.4379997  38.0279999
  62.5270004  19.2080002  35.6549988  61.6940002  19.0149994  34.8349991
  62.4669991  18.6599998  36.8979988  63.2239990  18.9130001  37.4199982
  61.7389984  17.4909992  37.2970009  61.1399994  17.1639996  36.4309998
  62.7229996  16.3600006  37.6170006  63.0970001  16.4669991  38.6230011
  62.1300011  15.4449997  37.6629982  63.9770012  16.1560001  36.7400017
  63.7070007  16.0400009  35.7080002  64.5699997  17.0380001  36.8709984
  64.7570038  14.8610001  37.0900002  64.9270020  14.8940001  38.1049995
  64.1829987  13.9139996  36.9090004  66.0080032  14.7510004  36.2299995
  65.8669968  14.9020004  35.1679993  66.6709976  15.5279999  36.5519981
  66.8310013  13.5480003  36.4140015  66.4079971  12.6739998  36.0060005
  67.7109985  13.7340002  35.9589996  67.0250015  13.3120003  37.3730011
  60.7280006  17.8059998  38.4290009  59.8089981  17.0160007  38.7459984
  60.7830009  19.0270004  39.0439987  61.4519997  19.6849995  38.7430000
  59.9300003  19.4799995  40.1870003  59.6339989  18.6369991  40.7369995
  60.4090004  20.0830002  40.9519997  58.5760002  20.1310005  39.7159996
  58.4970016  20.5529995  38.5489998  57.5569992  20.1630001  40.6110001
  57.7270012  19.7679996  41.5519981  56.2680016  20.8250008  40.3759995
  55.7760010  20.2880001  39.5530014  55.3429985  20.4820004  41.5800018
  56.0089989  20.5170002  42.4280014  54.5390015  21.1539993  41.5979996
  54.8889999  19.0330009  41.3100014  54.2080002  18.9659996  40.4959984
  55.7029991  18.4190006  41.0540009  54.2599983  18.3859997  42.5209999
  54.3370018  17.3110008  42.2649994  54.9850006  18.5660000  43.3569984
  52.8349991  18.9060001  42.8709984  52.7529984  19.8750000  42.3619995
  52.1110001  18.2199993  42.4920006  52.6590004  18.9589996  44.3450012
  53.3040009  18.3309994  44.7750015  52.9220009  19.7660007  44.8370018
  51.6259995  18.8750000  44.5449982  56.4210014  22.3180008  40.0610008
  57.2379990  23.1009998  40.5480003  55.6720009  22.7959995  39.0540009
  55.0919991  22.1410007  38.5120010  55.7330017  24.1980000  38.5540009
  56.2690010  24.8020000  39.2719994  56.4269981  24.2500000  37.1940002
  55.7949982  23.5949993  36.6170006  56.6329994  25.5550003  36.4799995
  57.3400002  26.2010002  37.0419998  57.0690002  25.2129993  35.5079994
  55.6529999  26.0389996  36.2340012  57.6689987  23.6270008  37.2550011
  57.5000000  22.7019997  36.9609985  54.3330002  24.7360001  38.4150009
  53.4809990  24.0279999  37.9189987  54.1059990  26.0480003  38.7229996
  54.9589996  26.5170002  38.8269997  53.0610008  26.9839993  38.2970009
  52.2299995  26.3260002  37.9780006  52.5709991  27.7849998  39.5429993
  53.3769989  28.4829998  39.8160019  51.2799988  28.5389996  39.0810013
  51.5550003  29.3470001  38.3969994  50.6150017  27.8379993  38.5620003
  50.7449989  28.8519993  39.9720001  52.1899986  26.8770008  40.7099991
  51.4500008  27.4190006  41.2779999  51.7999992  25.8950005  40.4300003
  53.0429993  26.7959995  41.3750000  53.6720009  27.8180008  37.1609993
  54.7169991  28.4009991  37.4560013  52.9500008  28.0489998  36.0789986
  52.0489998  27.6870003  36.1020012  53.2709999  28.9669991  35.0000000
  54.0029984  29.7520008  35.2739983  53.8320007  28.1679993  33.8899994
  54.7519989  27.6830006  34.2060013  53.1679993  27.3279991  33.5989990
  54.2929993  28.7500000  32.5859985  54.4510002  30.0599995  32.3530006
  54.2589989  30.8959999  33.0670013  54.9529991  30.2709999  31.0960007
  54.9659996  31.1779995  30.5979996  55.1129990  29.0799999  30.4290009
  55.5540009  28.8209991  29.1399994  55.8219986  29.5590000  28.4090004
  55.6930008  27.4410000  28.8059998  55.9720001  27.1560001  27.8050003
  55.3320007  26.4099998  29.7040005  55.3370018  25.3589993  29.4610004
  54.9109993  26.7730007  31.0230007  54.7330017  26.0090008  31.8360004
  54.7379990  28.0939999  31.3570004  52.0699997  29.8139992  34.6790009
  50.9420013  29.3250008  34.6100006  52.3330002  31.1650009  34.6780014
  53.2840004  31.3659992  34.7599983  51.2830009  32.2270012  34.5359993
  50.2890015  31.7849998  34.7179985  51.6879997  33.3950005  35.4760017
  52.6860008  33.8170013  35.2369995  51.0660019  34.2340012  35.2400017
  51.5989990  33.1100006  36.9860001  52.7169991  32.8100014  37.7389984
  53.6899986  32.7989998  37.2949982  52.5909996  32.5449982  39.1329994
  53.4309998  32.2109985  39.7309990  51.3260002  32.6469994  39.7809982
  51.2649994  32.4290009  40.8919983  50.2019997  32.9269981  39.0460014
  49.3040009  33.0670013  39.6110001  50.3390007  33.2519989  37.6660004
  49.4580002  33.5159988  37.0779991  51.1419983  32.5709991  33.0169983
  52.1389999  32.4939995  32.2540016  49.9669991  33.0019989  32.5509987
  49.2260017  33.0620003  33.2579994  49.6850014  33.2999992  31.1350002
  50.5740013  33.7709999  30.8740005  49.2620010  32.0880013  30.3090000
  49.1150017  32.3349991  29.2029991  50.2179985  30.9050007  30.5060005
  50.2350006  30.5410004  31.5639992  49.9199982  30.0580006  29.8409996
  51.1860008  31.2329998  30.2399998  47.8820000  31.4669991  30.6340008
  47.1710014  32.3110008  30.6429996  47.5540009  30.8169994  29.8460007
  47.7900009  31.0979996  31.6650009  48.5820007  34.4230003  31.0349998
  47.7849998  34.5159988  31.9580002  48.5489998  35.2449989  29.9419994
  49.1809998  35.1250000  28.6690006  48.8019981  34.2630005  28.2579994
  50.2799988  35.0559998  28.7509995  48.7970009  36.2719994  27.7409992
  48.0180016  36.0320015  26.9669991  49.6699982  36.7809982  27.2940006
  48.1679993  37.2659988  28.7119999  47.4679985  37.8660011  28.1359997
  48.9570007  37.9650002  28.9810009  47.7330017  36.4049988  29.9069996
  47.7420006  36.9449997  30.8339996  46.2109985  36.1310005  29.7950001
  45.3880005  37.0270004  29.9309998  45.9500008  34.9099998  29.3829994
  46.7229996  34.3009987  29.2460003  44.7260017  34.5929985  28.6469994
  43.8989983  35.0070000  29.2010002  44.8730011  35.2350006  27.2430000
  43.9210014  35.4199982  26.7579994  45.4379997  36.1850014  27.2870007
  45.6889992  34.4980011  26.3670006  45.9000015  35.1119995  25.5289993
  44.5649986  33.0709991  28.4720001  45.5449982  32.3110008  28.3840008
  43.3030014  32.5760002  28.4680004  42.5820007  33.3349991  28.4139996
  42.9430008  31.1439991  28.3780003  43.4959984  30.6560001  29.2199993
  41.4090004  30.9909992  28.6900005  40.8740005  31.5429993  27.9589996
  41.0439987  29.4599991  28.4930000  41.3089981  29.2940006  27.4540005
  41.5449982  28.7779999  29.0970001  39.9140015  29.3719997  28.5340004
  41.1440010  31.4340000  30.0990009  41.6910019  30.8390007  30.8430004
  41.5019989  32.4889984  30.2759991  39.6940002  31.3959999  30.5219994
  39.4080009  30.3869991  30.7509995  39.6450005  32.0929985  31.3630009
  39.1090012  31.7600002  29.7810001  43.4790001  30.5370007  27.0620003
  44.0439987  29.4680004  27.0440006  43.4550018  31.4090004  26.0380001
  43.0320015  32.2760010  26.2290001  43.6780014  31.0300007  24.6410007
  43.1879997  30.0669994  24.4829998  43.0750008  32.1020012  23.6879997
  42.1320000  32.5000000  23.9829998  43.7709999  32.9560013  23.8099995
  43.1010017  31.7269993  22.1590004  44.0830002  31.2870007  21.8120003
  42.3009987  30.9500008  21.9950008  42.6370010  32.9099998  21.2889996
  43.4869995  33.6479988  21.2469997  42.4669991  32.5390015  20.2880001
  41.3510017  33.7849998  21.5990009  41.4459991  34.3330002  22.5039997
  41.3429985  34.5779991  20.8619995  40.1320000  32.9659996  21.6480007
  40.3069992  32.1599998  22.2919998  39.4189987  33.4420013  22.1159992
  39.7439995  32.6310005  20.7490005  45.2050018  30.9020004  24.3390007
  45.5820007  30.0839996  23.5300007  46.0309982  31.6310005  25.0909996
  45.7360001  32.4010010  25.5900002  47.4490013  31.3439999  25.3810005
  47.9099998  31.1000004  24.4340000  48.1269989  32.5540009  26.0419998
  47.9230003  33.5060005  25.5289993  47.7280006  32.7010002  27.0650005
  49.1879997  32.5060005  26.1079998  47.6650009  30.0639992  26.2129993
  48.5390015  29.3059998  25.8899994  46.8419991  29.8479996  27.2639999
  46.0760002  30.5739994  27.4459991  47.1069984  28.7549992  28.1520004
  48.1549988  28.7199993  28.3339996  46.6090012  28.9139996  29.1149998
  46.7620010  27.4080009  27.5990009  47.4379997  26.4190006  27.9090004
  45.6959991  27.3010006  26.8659992  45.0989990  28.1070004  26.7479992
  45.3180008  26.0540009  26.2010002  45.1529999  25.2929993  26.9029999
  44.1800003  26.3630009  25.2399998  44.5540009  27.1870003  24.6560001
  44.0289993  25.4950008  24.5419998  42.8110008  26.7259998  25.8379993
  42.4360008  26.3299999  26.9430008  41.9799995  27.3220005  25.0389996
  41.0589981  27.5680008  25.3549995  42.3380013  27.5820007  24.1669998
  46.4760017  25.5279999  25.3299999  46.7910004  24.3409996  25.3209991
  47.2169991  26.3680000  24.5869999  46.9939995  27.3220005  24.7959995
  48.2669983  25.9220009  23.6529999  47.9049988  25.1040001  23.0119991
  48.6920013  27.0529995  22.7229996  47.7869987  27.6310005  22.3990002
  49.1049995  27.9029999  23.3020000  49.6310005  26.7579994  21.5340004
  50.7019997  27.3789997  21.3029995  49.3240013  25.7789993  20.7709999
  49.5040016  25.5480003  24.4939995  50.1279984  24.5230007  24.2070007
  49.8260002  26.3470001  25.5400009  49.2080002  27.1060009  25.7689991
  50.9399986  26.0739994  26.4060001  51.8349991  26.0510006  25.8530006
  51.0839996  27.3069992  27.3369999  50.1180000  27.6030006  27.7929993
  51.9700012  27.1219997  28.6200008  51.6389999  26.2889996  29.2639999
  53.0070000  26.9629993  28.3029995  51.9140015  27.9829998  29.2670002
  51.6590004  28.4839993  26.5149994  52.7579994  28.2369995  26.3050003
  51.1819992  28.5620003  25.4860001  51.6049995  29.8670006  27.1450005
  50.5979996  30.2670002  27.0739994  51.9189987  29.7889996  28.1679993
  52.2400017  30.5279999  26.6289997  50.6749992  24.6910000  27.1529999
  51.6409988  23.9540005  27.4139996  49.4360008  24.3530006  27.4580002
  48.7490005  25.0660000  27.3850002  49.0289993  23.0599995  27.9979992
  49.6860008  22.8659992  28.8099995  47.5629997  23.2159996  28.5230007
  46.9519997  23.0359993  27.6019993  47.3069992  22.4850006  29.2129993
  47.3230019  24.1679993  28.9130001  49.1500015  21.8950005  27.0170002
  49.6839981  20.8139992  27.4139996  48.9010010  22.1569996  25.7369995
  48.5870018  23.1219997  25.4570007  49.1320000  21.2679996  24.6569996
  48.5800018  20.3549995  24.8549995  48.4580002  21.7500000  23.3439999
  47.4959984  22.2679996  23.5230007  49.0830002  22.4979992  22.8439999
  48.1980019  20.9459991  22.6840000  50.5800018  20.9459991  24.4190006
  50.9210014  19.7460003  24.1889992  51.4710007  21.9570007  24.3630009
  51.0989990  22.8929996  24.2390003  52.8800011  21.6989994  24.2600002
  53.0489998  20.9370003  23.4629993  53.5110016  23.0839996  24.1280003
  52.9269981  23.5900002  23.4080009  53.3979988  23.6949997  25.0270004
  55.2729988  22.9769993  23.5279999  54.8790016  22.6730003  22.3490009
  53.4039993  21.0000000  25.5750008  54.1809998  20.0410004  25.3939991
  52.9090004  21.2460003  26.7660007  52.3489990  22.1480007  26.7959995
  53.3619995  20.4589996  27.9090004  54.4510002  20.4290009  27.8589993
  52.9659996  21.1420002  29.2080002  51.9020004  21.2819996  29.1310005
  53.1399994  20.3770008  29.9260006  53.8289986  22.3439999  29.4570007
  53.9140015  22.9799995  28.5310001  53.0800018  23.2320004  30.4099998
  52.1710014  23.5739994  29.9449997  52.6549988  22.7180004  31.2719994
  53.6580009  24.1410007  30.6690006  55.1980019  22.0359993  29.8999996
  55.7459984  22.9930000  30.0699997  55.1069984  21.5610008  30.9209995
  55.7750015  21.4939995  29.1450005  52.8559990  19.0139999  27.8449993
  53.7080002  18.0979996  28.0569992  51.6559982  18.7539997  27.4139996
  51.0709991  19.6079998  27.4659996  51.0309982  17.4659996  27.1450005
  51.2709999  16.9020004  28.0750008  49.4889984  17.6450005  26.8400002
  49.4309998  18.4319992  26.0849991  49.1049995  16.7049999  26.6320000
  48.7910004  17.9689999  28.2399998  48.9990005  17.1149998  28.9099998
  49.2579994  18.8339996  28.6310005  47.3470001  18.2749996  27.9799995
  47.3839989  19.2520008  27.4319992  46.9469986  17.4759998  27.4009991
  46.4920006  18.3409996  29.1849995  46.5139999  17.6030006  29.8160000
  45.6220016  19.2660007  29.6060009  45.1839981  20.3400002  28.9680004
  45.4300003  20.4650002  27.9869995  44.6300011  21.1329994  29.3670006
  45.1640015  19.1509991  30.8750000  45.5699997  18.4549999  31.4540005
  44.5540009  19.8260002  31.2830009  51.6879997  16.6790009  25.9860001
  51.9720001  15.5139999  26.0450001  52.0929985  17.3850002  24.9120007
  51.8860016  18.3460007  24.9680004  52.9519997  16.8150005  23.7719994
  52.4959984  15.8260002  23.4689999  52.9220009  17.7950001  22.6420002
  51.8629990  18.0569992  22.5179996  53.3569984  18.7460003  22.8670006
  53.5400009  17.2290001  21.3799992  54.6049995  16.9090004  21.5540009
  53.0200005  16.3080006  21.0459995  53.5639992  18.1569996  20.2310009
  53.8549995  17.7049999  19.3190002  52.5429993  18.5720005  20.0699997
  54.5719986  19.2479992  20.5909996  54.0769997  19.9039993  21.2980003
  55.3720016  18.7539997  20.9769993  54.9420013  19.9820004  19.3519993
  55.6500015  20.7089996  19.6240005  55.2830009  19.3610001  18.6149998
  54.1170006  20.3959999  19.0489998  54.3800011  16.4699993  24.2660007
  54.9690018  15.5769997  23.6650009  54.9329987  17.1849995  25.2840004
  54.4459991  18.0830002  25.5750008  56.1290016  16.7549992  26.0909996
  56.7900009  16.1140003  25.5529995  56.8089981  18.0580006  26.3659992
  56.1879997  18.7600002  26.9480000  57.6590004  17.8290005  27.0550003
  57.3559990  18.7740002  25.1679993  58.3930016  18.2719994  24.6630001
  56.7960014  19.8470001  24.6149998  57.3460007  20.4610004  23.9759998
  55.9000015  20.1499996  25.0119991  55.8009987  15.8109999  27.2549992
  56.6059990  15.6429996  28.1870003  54.5540009  15.1890001  27.2450008
  53.8950005  15.4969997  26.5520000  54.1259995  14.0959997  28.0849991
  53.1380005  13.7060003  27.6910000  54.7859993  13.2089996  28.1110001
  53.8470001  14.4399996  29.5450001  53.7529984  13.5830002  30.4080009
  53.6850014  15.7290001  29.9480000  53.9449997  16.3780003  29.2110004
  53.4389992  16.1450005  31.3659992  54.0530014  15.5179996  32.0070000
  53.9739990  17.5970001  31.6320000  53.3069992  18.3710003  31.1569996
  53.6739998  17.9130001  32.6189995  55.4500008  17.7989998  31.2010002
  55.6399994  17.6380005  30.1550007  55.6599998  18.8600006  31.3110008
  56.4370003  17.0440006  32.1710014  56.8069992  17.7830009  32.8120003
  55.8300018  16.3160000  32.6310005  57.5970001  16.3409996  31.3449993
  57.0950012  15.5880003  30.7159996  58.1459999  17.1720009  30.8180008
  58.5260010  15.7189999  32.3149986  59.1170006  15.0410004  31.7819996
  59.1389999  16.3540001  32.8180008  57.9650002  15.2370005  32.9879990
  52.0299988  15.9779997  31.7889996  51.0250015  16.0990009  31.0359993
  51.9239998  15.7279997  33.0859985  52.7350006  15.6450005  33.7089996
  50.6640015  15.9029999  33.8470001  49.7929993  15.5550003  33.3429985
  50.7470016  15.0319996  35.0989990  51.4860001  15.4130001  35.7879982
  49.7879982  15.0530005  35.5530014  51.1969986  13.5719995  34.7389984
  50.8959999  13.1980000  33.7680016  52.3310013  13.5229998  34.7080002
  50.7599983  12.5860004  35.8670006  51.3170013  12.7770004  36.7379990
  49.6529999  12.8290005  35.9949989  50.9199982  11.0760002  35.4970016
  50.1969986  10.8269997  34.7939987  51.8790016  10.9890003  34.8880005
  50.7960014  10.2379999  36.6640015  51.1269989   9.2760000  36.5040016
  51.4850006  10.5790005  37.3530006  49.8269997  10.2060003  36.9739990
  50.3569984  17.3820000  34.1689987  51.1850014  18.1320000  34.7290001
  49.2169991  17.8840008  33.7190018  48.6049995  17.2220001  33.2659988
  48.9710007  19.3139992  33.4710007  49.7140007  19.8320007  34.1170006
  49.1559982  19.7959995  31.9249992  48.4529991  19.1970005  31.3530006
  48.8050003  21.3080006  31.7509995  49.5760002  21.8939991  32.3409996
  48.8089981  21.6229992  30.7500000  47.8330002  21.5289993  32.1520004
  50.5390015  19.4829998  31.3519993  50.9090004  18.5240002  31.7999992
  50.4920006  19.5189991  30.3239994  51.2630005  20.2530003  31.5219994
  47.5810013  19.6860008  33.9490013  46.6129990  19.0699997  33.5919991
  47.5989990  20.7959995  34.7430000  48.4580002  21.3349991  34.9570007
  46.2929993  21.3770008  35.1870003  45.4519997  20.7290001  34.8909988
  46.2989998  21.4279995  36.6759987  47.2299995  22.0009995  37.0429993
  45.0769997  22.2609997  37.2150002  45.1020012  23.2940006  36.8289986
  44.2350006  21.7320004  36.9550018  44.8880005  22.3110008  38.3440018
  46.3899994  19.9969997  37.2019997  45.4300003  19.4249992  37.1510010
  47.2080002  19.5279999  36.7700005  46.6860008  19.9680004  38.6720009
  47.5769997  20.5529995  38.8499985  45.8870010  20.4300003  39.2099991
  46.8730011  18.9650002  39.0340004  46.1720009  22.7080002  34.4690018
  47.1059990  23.4349995  34.1619987  44.9430008  23.1159992  34.1300011
  44.1110001  22.4780006  34.4220009  44.5810013  24.5319996  33.7770004
  45.5410004  25.0660000  33.8740005  43.9990005  24.6450005  32.3549995
  43.0449982  24.1130009  32.3619995  43.8370018  25.6919994  32.1269989
  44.8689995  23.9519997  31.2730007  45.8019981  24.5489998  31.2220001
  45.0989990  22.8700008  31.4759998  44.1049995  23.8740005  29.9880009
  44.0489998  22.8199997  29.3570004  43.6290016  24.9349995  29.4640007
  43.2309990  24.9440002  28.5230007  43.6889992  25.7859993  29.8990002
  43.6689987  25.1870003  34.8129997  42.6150017  24.6469994  35.1780014
  44.1590004  26.2800007  35.4210014  45.0410004  26.7070007  35.0460014
  43.3100014  27.1030006  36.2949982  42.3580017  26.6000004  36.5709991
  44.0489998  27.2919998  37.6339989  45.0159988  27.8369999  37.4930000
  43.5449982  28.0690002  38.1710014  44.2050018  26.1560001  38.6609993
  44.8429985  25.4179993  38.1069984  44.8139992  26.5529995  39.9799995
  44.1049995  27.2560005  40.4490013  44.9860001  25.6770000  40.5600014
  45.8149986  27.0100002  39.7849998  42.8590012  25.4440002  38.8689995
  42.1419983  26.0939999  39.2620010  42.5760002  24.9720001  37.8629990
  42.9770012  24.5939999  39.5009995  42.9080009  28.4050007  35.6479988
  43.7529984  29.0620003  35.0419998  41.6539993  28.7639999  35.7620010
  41.0149994  28.1439991  36.2439995  41.0060005  30.0039997  35.3139992
  41.5909996  30.9200001  35.6080017  40.8880005  29.9360008  33.7589989
  40.4799995  30.9109993  33.4389992  41.8549995  29.7259998  33.2560005
  39.8769989  28.9279995  33.3660011  40.1520004  27.9699993  33.5680008
  39.5589981  30.1900005  35.9010010  39.0719986  29.2849998  36.5639992
  38.9469986  31.3390007  35.6660004  39.5660019  32.0940018  35.4560013
  37.5190010  31.6149998  35.9990005  37.3740005  31.5639992  37.0550003
  37.0919991  33.0180016  35.5289993  36.0909996  33.1389999  36.0190010
  37.7610016  33.7620010  35.9620018  36.9129982  33.2369995  34.0260010
  37.8989983  33.0400009  33.5489998  36.1370010  32.5849991  33.6230011
  36.5979996  34.6720009  33.7649994  35.5979996  34.8330002  34.2470016
  37.3680000  35.2820015  34.2719994  36.6259995  34.9599991  32.3120003
  35.7050018  35.2319984  31.9650002  37.5480003  34.9910011  31.4249992
  38.7490005  34.7330017  31.6779995  38.9720001  34.3699989  32.5970001
  39.5159988  34.9129982  31.0440006  37.3440018  35.5120010  30.2390003
  36.3909988  35.8110008  29.8740005  38.1180000  35.7200012  29.6130009
  36.5680008  30.6429996  35.3909988  35.4000015  30.5149994  35.7900009
  36.9809990  29.9200001  34.3699989  37.9259987  30.1299992  34.0419998
  36.2430000  28.9200001  33.6250000  35.1980019  29.0580006  33.9329987
  36.4080009  28.9570007  32.0849991  37.4850006  29.0890007  31.8789997
  36.0509987  28.0620003  31.6959991  35.6209984  30.0349998  31.4029999
  34.5429993  29.8810005  31.6000004  35.8930016  31.0139999  31.6940002
  35.9860001  30.0079994  29.8999996  37.0660019  30.2320004  29.7460003
  35.6279984  29.0160007  29.5909996  35.0330009  30.9899998  29.1720009
  34.0519981  30.7150002  29.4230003  35.1220016  31.9540005  29.6730003
  35.1940002  31.1159992  27.6620007  34.7260017  31.9549999  27.3180008
  36.2190018  31.2229996  27.5450001  34.8820000  30.3080006  27.1630001
  36.5999985  27.4869995  34.1419983  35.8880005  26.5779991  33.8230019
  37.7470016  27.2520008  34.7960014  38.3470001  28.0109997  34.9920006
  38.2430000  25.8390007  35.1259995  37.4519997  25.1800003  34.7470016
  39.4970016  25.5079994  34.3059998  39.8689995  24.4890003  34.5810013
  39.4099998  25.7169991  32.7529984  38.8839989  24.8239994  32.4449997
  38.9210014  26.6030006  32.4729996  40.3269997  25.6019993  32.1500015
  40.4399986  26.3969994  34.8460007  41.2389984  25.8190002  34.8240013
  38.4020004  25.5259991  36.6479988  38.4770012  24.3419991  37.0000000
  38.3450012  26.4799995  37.5719986  38.3919983  27.4370003  37.2830009
  38.4980011  26.2530003  39.0890007  39.4930000  25.8549995  39.2029991
  38.3730011  27.6410007  39.7910004  39.2200012  28.2500000  39.5989990
  37.4799995  28.2549992  39.4799995  38.3969994  27.5590000  41.3730011
  39.5589981  27.9459991  42.0530014  40.3619995  28.3889999  41.4650002
  39.5730019  27.8680000  43.4319992  40.4589996  28.0359993  43.9780006
  38.4220009  27.3810005  44.0970001  38.4519997  27.2719994  45.1800003
  37.2540016  27.0520000  43.3510017  36.3400002  26.7350006  43.8580017
  37.2529984  27.1280003  41.9640007  36.3279991  26.9220009  41.3950005
  37.4889984  25.1980000  39.5839996  37.9010010  24.2110004  40.1679993
  36.2820015  25.1720009  39.0180016  36.1230011  25.8519993  38.2179985
  35.1279984  24.3029995  39.3899994  35.0289993  24.3409996  40.4819984
  33.8040009  24.8610001  38.8829994  32.9939995  24.1910000  39.2109985
  33.7120018  25.8470001  39.3380013  33.6489983  25.0450001  37.3870010
  32.5159988  25.0580006  36.8860016  34.6180000  25.3850002  36.7130013
  35.2709999  22.8299999  38.9749985  34.4539986  22.0669994  39.5379982
  36.2789993  22.4750004  38.1240005  36.9080009  23.2220001  37.8279991
  36.6699982  21.0629997  37.6150017  36.1030006  20.3050003  38.1150017
  36.2140007  20.9279995  36.1459999  36.3170013  19.8980007  35.8470001
  35.1730003  21.2719994  35.9840012  37.0489998  21.7210007  35.3359985
  36.5900002  22.5830002  35.2859993  38.1329994  20.7329998  37.9029999
  38.5209999  19.5900002  38.1660004  39.0509987  21.6690006  37.7900009
  38.7709999  22.4909992  37.3219986  40.5330009  21.5709991  37.8549995
  40.9500008  20.5720005  37.6650009  41.1100006  22.4990005  36.7560005
  40.7919998  23.5890007  36.8590012  42.1829987  22.4659996  36.8619995
  40.7879982  22.0119991  35.3349991  39.7439995  21.8750000  35.3540001
  41.2290001  22.7049999  34.6040001  41.4879990  20.7329998  34.9609985
  40.8320007  19.6910000  34.7540016  42.7330017  20.7479992  34.8489990
  41.2159996  21.9270000  39.2649994  42.4370003  21.6280003  39.3590012
  40.5400009  22.6790009  40.1839981  39.5890007  22.9220009  39.9850006
  41.2270012  23.1770000  41.3820000  42.2000008  23.4599991  41.1430016
  40.4389992  24.2670002  42.0750008  40.0989990  25.0769997  41.3569984
  39.4599991  23.9290009  42.4410019  41.2150002  24.9389992  43.2229996
  42.4469986  25.5919991  42.9819984  42.7809982  25.7310009  41.9179993
  43.1780014  26.0809994  44.0680008  44.0820007  26.6040001  43.9220009
  42.6119995  26.0499992  45.3709984  43.3149986  26.6509991  46.3680000
  42.8839989  26.4570007  47.2270012  41.3629990  25.4309998  45.6380005
  41.0519981  25.2579994  46.6230011  40.6399994  24.9090004  44.4930000
  39.6609993  24.4169998  44.7340012  41.5070000  21.9699993  42.2599983
  42.6629982  21.8290005  42.6819992  40.5610008  21.0130005  42.3849983
  39.6790009  21.1949997  41.9720001  40.6529999  19.7280006  43.1180000
  40.7879982  19.9799995  44.1619987  39.3199997  18.9020004  43.0369987
  38.4210014  19.5259991  43.2620010  39.0900002  18.4139996  41.6320000
  38.1380005  17.8400002  41.5019989  38.8230019  19.3110008  41.0579987
  39.9410019  17.8560009  41.1980019  39.2859993  17.6900005  43.9760017
  38.2680016  17.3750000  44.0040016  39.9319992  16.9009991  43.6230011
  39.5489998  18.0070000  44.9869995  41.8590012  18.8939991  42.7190018
  42.4210014  18.1499996  43.5419998  42.2570000  19.0769997  41.4269981
  41.7869987  19.7639999  40.7869987  43.2070007  18.1060009  40.9080009
  42.9490013  17.0919991  41.2229996  43.2639999  18.1760006  39.3870010
  43.5219994  19.1970005  39.1139984  44.0070000  17.4769993  39.0060005
  41.9249992  17.7070007  38.7999992  41.6730003  16.6730003  39.1969986
  41.1469994  18.3099995  39.0530014  42.0120010  17.6070004  37.2500000
  42.2159996  18.6679993  37.0379982  42.9000015  17.0470009  36.9669991
  40.7509995  16.9909992  36.5279999  41.0099983  16.9930000  35.4099998
  40.6629982  15.9659996  36.9459991  39.5040016  17.6639996  36.8139992
  38.7789993  17.0279999  36.7729988  39.4860001  18.0799999  37.7389984
  39.3199997  18.4099998  36.0929985  44.6030006  18.5359993  41.3670006
  45.5190010  17.7250004  41.4140015  44.7970009  19.7639999  41.8149986
  44.0219994  20.4160004  41.6860008  46.0979996  20.2439995  42.2570000
  46.8899994  19.8239994  41.5699997  46.1119995  21.7409992  42.2620010
  47.1609993  22.0869999  42.4589996  45.7529984  22.4759998  40.9319992
  44.6660004  22.2029991  40.5670013  45.8120003  23.5179996  41.1030006
  46.4519997  22.2229996  40.1310005  45.1839981  22.2240009  43.2480011
  44.3240013  22.1359997  42.8540001  46.4239998  19.6669998  43.6940002
  47.5960007  19.4960003  44.1040001  45.3829994  19.2730007  44.3839989
  44.4949989  19.5820007  44.0550003  45.4659996  19.0270004  45.7879982
  46.4360008  19.2119999  46.0349998  44.6310005  20.1380005  46.4469986
  43.7599983  20.4360008  45.9160004  44.2630005  19.6669998  47.3779984
  45.3370018  21.4260006  46.9000015  46.0999985  21.0799999  47.6230011
  45.7389984  21.8330002  45.9990005  44.4339981  22.5230007  47.4449997
  44.0730019  23.0450001  46.5139999  43.6080017  22.1289997  48.0460014
  45.1959991  23.4559994  48.2779999  45.5810013  24.2689991  47.7550011
  45.2400017  23.5240002  49.5589981  45.7190018  24.5270004  50.1990013
  45.9809990  25.4270000  49.8030014  45.6189995  24.4430008  51.2130013
  44.7210007  22.6089993  50.2799988  44.6310005  21.6989994  49.9249992
  44.5509987  22.7819996  51.3330002  45.3079987  17.5769997  46.1899986
  45.4490013  17.2989998  47.4059982  44.8279991  16.6539993  45.3190002
  44.6769981  17.0480003  44.3559990  44.1349983  15.4150000  45.6969986
  44.0929985  15.3310003  46.8190002  42.6549988  15.4379997  45.2439995
  42.5009995  15.5279999  44.1310005  41.8549995  14.2139997  45.7400017
  40.8069992  14.3070002  45.5629997  42.1539993  13.2650003  45.3079987
  41.9580002  14.1230001  46.8419991  42.0639992  16.6359997  45.6389999
  42.1500015  17.2560005  44.8320007  44.7610016  14.0649996  45.2369995
  45.1080017  13.3090000  46.1419983  45.0509987  13.5930004  44.0229988
  45.3310013  12.6409998  44.1119995  45.3889999  14.0939999  42.7070007
  45.4099998  13.1890001  42.1080017  44.2729988  14.9280005  42.0260010
  44.1250000  15.8420000  42.5929985  44.6809998  15.3629999  41.0989990
  42.9179993  14.2539997  41.7330017  41.8429985  14.8599997  41.5589981
  42.8559990  12.9600000  41.4879990  42.0349998  12.5920000  40.9889984
  43.6850014  12.4849997  41.6749992  46.7550011  14.7119999  42.4900017
  47.1360016  15.6070004  43.1800003  47.6329994  14.1520004  41.5820007
  47.2690010  13.4020004  40.9809990  49.0750008  14.5780001  41.4080009
  49.2140007  15.4390001  42.0929985  49.9659996  13.3979998  41.8889999
  49.7490005  12.5990000  41.2669983  50.9850006  13.6840000  41.8380013
  49.6720009  12.9960003  43.3380013  49.3989983  11.7840004  43.5730019
  49.7910004  13.8640003  44.2050018  49.3549995  15.0480003  40.0410004
  48.5950012  14.7270002  39.0900002  50.4319992  15.8999996  39.8590012
  51.0960007  16.1009998  40.5629997  50.6669998  16.5119991  38.6069984
  50.6129990  15.7779999  37.7649994  49.6800003  17.7390003  38.4199982
  49.9029999  18.4510002  37.6440010  48.6860008  17.3560009  38.3059998
  49.6850014  18.5389996  39.7169991  48.8899994  18.1770000  40.7820015
  48.1879997  17.3659992  40.7879982  49.2210007  18.9179993  41.8450012
  48.8019981  18.7730007  42.7729988  50.0029984  20.0160007  41.4770012
  50.4010010  21.1849995  42.1329994  49.8450012  21.5380001  42.9609985
  51.3709984  21.9750004  41.5390015  51.5400009  22.9099998  42.0519981
  51.9020004  21.6350002  40.2599983  52.6370010  22.3419991  39.8559990
  51.3629990  20.5799999  39.4930000  51.5169983  20.5510006  38.4239998
  50.4560013  19.6849995  40.1570015  52.0680008  17.0790005  38.5800018
  52.8779984  16.9839993  39.4910011  52.4179993  17.7840004  37.5110016
  51.7869987  17.7619991  36.7360001  53.6949997  18.5349998  37.1720009
  54.4350014  18.3959999  38.0110016  54.3899994  17.8729992  35.9669991
  54.0610008  18.3840008  35.0890007  55.4700012  18.1040001  36.1990013
  54.2350006  16.3330002  35.8489990  54.2260017  15.5579996  36.8820000
  54.3849983  15.8629999  34.6879997  53.5690002  20.0240002  36.9970016
  54.3400002  20.7129993  37.5830002  52.7949982  20.4559994  36.0200005
  52.2490005  19.8299999  35.4659996  52.5480003  21.8379993  35.6940002
  53.1790009  22.3649998  36.3650017  52.9430008  22.2099991  34.1850014
  52.6020012  21.3939991  33.5600014  52.3979988  23.1100006  33.9090004
  54.5050011  22.4860001  33.8489990  54.9700012  23.7169991  33.3689995
  54.3380013  24.5559998  33.4780006  56.3219986  23.9099998  32.9959984
  56.7169991  24.7789993  32.5209999  57.2270012  22.8560009  33.1539993
  58.2200012  23.0039997  32.6850014  56.6879997  21.6049995  33.5000000
  57.3470001  20.7880001  33.4780006  55.3860016  21.3649998  33.9850006
  55.0960007  20.4139996  34.4790001  51.1539993  22.2199993  36.0079994
  50.3240013  21.6439991  35.4259987  50.9389992  23.2730007  36.7879982
  51.7949982  23.7369995  37.0489998  49.6949997  24.0739994  36.8180008
  48.8040009  23.5860004  36.5239983  49.4239998  24.5610008  38.2989998
  50.2929993  24.9969997  38.6990013  48.2739983  25.5610008  38.3129997
  47.8660011  25.7099991  39.3400002  48.6539993  26.4220009  37.8120003
  47.4819984  25.1170006  37.7229996  49.0299988  23.4659996  39.2439995
  49.3779984  22.5049992  38.9840012  49.4920006  23.6450005  40.2360001
  47.9790001  23.4470005  39.4900017  49.9309998  25.2549992  35.8969994
  50.7739983  26.0930004  36.1150017  49.2750015  25.3020000  34.7579994
  48.7099991  24.4540005  34.5299988  49.2109985  26.3910007  33.8590012
  50.1339989  26.9300003  33.8160019  49.0540009  25.9419994  32.3750000
  48.0880013  25.3859997  32.3260002  48.8699989  26.9820004  31.2800007
  49.6290016  27.7789993  31.3250008  48.9389992  26.5739994  30.3540001
  47.7910004  27.3600006  31.3889999  50.2560005  25.0400009  31.9410000
  50.4640007  24.3899994  32.8349991  49.9749985  24.2719994  31.1539993
  51.1430016  25.6019993  31.6100006  48.0130005  27.2779999  34.2290001
  46.8919983  26.8010006  34.5190010  48.2519989  28.5720005  34.3889999
  49.1329994  28.9300003  34.2220001  47.2659988  29.4260006  35.0680008
  46.2610016  28.9890003  34.8860016  47.4370003  29.4169998  36.6710014
  47.7190018  28.4300003  37.0579987  48.5530014  30.4349995  36.9930000
  49.3400002  30.2719994  36.2589989  48.3219986  31.5079994  36.9539986
  49.0219994  30.2660007  38.0019989  46.2669983  29.9529991  37.2700005
  46.1910019  30.8880005  37.1040001  47.1489983  30.8519993  34.5260010
  48.1899986  31.5100002  34.2490005  45.8919983  31.3470001  34.4640007
  45.1599998  30.8409996  34.9580002  45.6269989  32.7639999  34.3110008
  46.4090004  33.3180008  33.8230019  44.3009987  32.9539986  33.5849991
  43.9329987  33.8750000  33.9389992  44.5999985  32.9140015  32.0369987
  44.7929993  31.9529991  31.5919991  43.7400017  33.3170013  31.3859997
  45.4770012  33.5579987  31.8630009  43.2669983  31.9400005  33.7299995
  42.6759987  32.4150009  34.3590012  45.5740013  33.3219986  35.7770004
  45.7849998  32.6209984  36.7739983  45.2960014  34.6609993  35.8779984
  45.0489998  35.1269989  35.0649986  45.3950005  35.3359985  37.1580009
  46.3829994  34.9440002  37.4570007  45.4179993  36.8800011  36.9760017
  44.5709991  37.2319984  36.3009987  45.4119987  37.3540001  37.9370003
  46.6780014  37.2649994  36.3300018  46.8110008  37.2099991  35.1049995
  47.5379982  37.7900009  37.0289993  44.3079987  34.9970016  38.2430000
  44.2060013  35.7540016  39.1969986  43.5890007  33.9029999  38.2130013
  43.4000015  33.4179993  37.3530006  42.9129982  33.2989998  39.3839989
  42.3759995  34.0940018  39.8370018  41.9640007  32.1640015  38.9580002
  41.6269989  32.4160004  37.9790001  42.7019997  30.7649994  38.9379997
  43.0110016  30.3759995  39.8759995  42.0320015  30.0459995  38.4529991
  43.6080017  30.7709999  38.3510017  40.7709999  32.0979996  39.9500008
  41.0750008  31.5909996  40.9070015  40.5709991  33.1759987  40.0830002
  39.5460014  31.4029999  39.4129982  38.7929993  31.3700008  40.2159996
  39.2369995  31.8899994  38.4780006  39.7910004  30.3729992  39.1139984
  43.8969994  32.9370003  40.4850006  43.5050011  32.8279991  41.6310005
  45.1850014  32.7620010  40.1650009  45.4519997  32.7400017  39.1590004
  46.1980019  32.0740013  41.0239983  45.7010002  31.6980000  41.9269981
  46.7319984  30.8220005  40.2690010  47.2659988  31.1860008  39.3310013
  47.3940010  30.3279991  40.9109993  45.6800003  29.9640007  39.9620018
  45.6790009  29.5219994  39.0600014  47.3250008  32.9220009  41.5579987
  48.2070007  32.3680000  42.1899986  47.3499985  34.2439995  41.3079987
  46.6570015  34.7120018  40.7729988  48.4440002  35.1189995  41.7159996
  49.3440018  34.7120018  41.2560005  48.1640015  36.4830017  41.0950012
  48.1430016  36.2919998  40.0130005  47.1629982  36.8569984  41.2900009
  49.1749992  37.6320000  41.4410019  48.8170013  38.0760002  42.4049988
  50.1609993  37.1969986  41.5169983  49.0390015  38.5789986  40.2820015
  49.4739990  38.2019997  39.1949997  48.4729996  39.6730003  40.4490013
  48.6380005  35.1930008  43.2480011  49.7210007  35.1549988  43.7649994
  47.5130005  35.1959991  43.9179993  46.6080017  35.1030006  43.4150009
  47.2809982  35.4720001  45.3279991  48.2410011  35.8289986  45.7229996
  46.2290001  36.5569992  45.5470009  45.2099991  36.2080002  45.3479996
  46.3079987  36.8889999  46.5800018  46.5559998  37.7910004  44.7430000
  47.3629990  38.4659996  45.2270012  46.8969994  37.5180016  43.7900009
  45.0979996  38.8019981  44.2449989  44.1040001  37.7550011  43.1389999
  44.6759987  37.7319984  42.1749992  43.9010010  36.7430000  43.5680008
  43.2159996  38.3040009  42.9790001  46.9309998  34.2739983  46.0639992
  46.0279999  33.5369987  45.6920013  47.5057449  34.1463966  47.2649994
  48.2165909  34.8244324  47.5335922  47.0184326  33.3149719  48.3706551
  47.4387817  33.6933937  49.2955513  45.9383850  33.4118233  48.4397392
  47.3440018  31.8279991  48.3139992  47.3989983  31.1620007  49.3930016
  47.5620003  31.2380009  47.0699997  47.2750015  31.8150005  46.2939987
  47.6980019  29.8010006  46.9199982  46.7340012  29.5259991  47.4070015
  47.7919998  29.4379997  45.3849983  47.6240005  28.3470001  45.3269997
  47.0309982  29.9440002  44.7560005  48.7369995  29.6569996  45.0299988
  48.9529991  29.2700005  47.5690002  50.0909996  29.7880001  47.4230003
  48.7459984  28.0909996  48.1809998  47.7669983  27.7689991  48.1940002
  49.6949997  27.1879997  48.8030014  50.6669998  27.6930008  48.8089981
  49.2369995  26.9839993  50.2630005  48.2919998  26.4699993  50.4420013
  50.0620003  26.3579998  50.6769981  49.1889992  28.2089996  51.1100006
  50.2439995  28.7709999  51.4539986  48.0390015  28.6110001  51.6829987
  48.1430016  29.3889999  52.2900009  47.1430016  28.2520008  51.4189987
  49.9410019  25.8349991  48.0789986  50.1769981  24.7660007  48.7369995
  49.9780006  25.8780003  46.7420006  49.7589989  26.7460003  46.3160019
  49.8330002  24.7520008  45.7910004  48.7579994  24.4890003  45.8549995
  50.1720009  25.2910004  44.3689995  51.0620003  25.9209995  44.3580017
  50.1800003  24.3759995  43.7439995  49.1669998  26.1140003  43.6899986
  47.9049988  25.5680008  43.4410019  47.5940018  24.5639992  43.8349991
  46.9029999  26.2789993  42.7649994  45.9080009  25.9689999  42.6870003
  47.2070007  27.5949993  42.3670006  46.4790001  28.2320004  41.9109993
  48.5449982  28.0849991  42.4809990  48.7610016  29.1250000  42.2449989
  49.5089989  27.3379993  43.1349983  50.4529991  27.7460003  43.3940010
  50.6710014  23.4860001  46.0460014  50.3059998  22.3619995  45.6800003
  51.7999992  23.5459995  46.7719994  51.8750000  24.3460007  47.3339996
  52.8740005  22.5240002  46.8829994  53.6030006  22.9419994  47.5719986
  52.4990005  21.2479992  47.5369987  51.7879982  20.7210007  46.9809990
  53.4469986  20.6870003  47.5890007  51.8740005  21.4710007  48.9280014
  52.4449997  22.1790009  49.5110016  50.8600006  21.8889999  48.8590012
  51.6650009  20.1630001  49.6629982  50.9939995  19.5400009  49.1230011
  52.6529999  19.6550007  49.6539993  51.2500000  20.2840004  51.1250000
  51.0139999  19.2740002  51.4049988  52.0320015  20.7910004  51.7070007
  50.0299988  21.0330009  51.2779999  50.3709984  22.0370007  51.2949982
  49.4230003  20.7759991  50.5099983  49.5289993  20.8859997  52.1590004
  53.7010002  22.3649998  45.5460014  53.9609985  21.2450008  45.1529999
  53.9510002  23.4720001  44.8139992  53.7849998  24.3120003  45.2739983
  54.8810005  23.5830002  43.7099991  55.0219994  22.5820007  43.3590012
  54.4510002  24.4909992  42.5649986  55.2750015  24.6219997  41.9080009
  53.7239990  23.9190006  41.9830017  54.0559998  25.4489994  42.9280014
  56.2869987  23.9109993  44.2210007  56.5089989  24.3789997  45.3349991
  57.2830009  23.6459999  43.4230003  57.0379982  23.2959995  42.4930000
  58.7719994  23.8939991  43.5699997  59.0270004  24.1830006  44.6399994
  59.4339981  22.5389996  43.1389999  59.1780014  22.3740005  42.1119995
  60.4850006  22.6070004  43.1520004  58.9669991  21.4029999  44.0299988
  59.3969994  21.7560005  44.9840012  57.9249992  21.3069992  43.9469986
  59.4370003  20.0240002  43.5620003  60.6290016  19.6660004  43.6800003
  58.5159988  19.2329998  43.2210007  59.3549995  24.9960003  42.7249985
  60.4000015  25.6459999  43.0229988  58.8209991  25.2390003  41.5760002
  58.1129990  24.5580006  41.2449989  59.2220001  26.3889999  40.7330017
  60.0060005  26.9160004  41.2630005  59.7270012  25.8959999  39.4249992
  60.7099991  25.3490009  39.6570015  59.1059990  25.0540009  38.9920006
  60.1870003  26.8880005  38.2500000  59.3260002  27.2840004  37.7540016
  60.8339996  27.7080002  38.6640015  61.0330009  26.1919994  37.2280006
  61.4119987  26.9200001  36.5159988  61.8670006  25.8099995  37.7809982
  60.2509995  25.0709991  36.5349998  59.2309990  24.9169998  36.8209991
  60.6440010  24.4160004  35.4529991  61.7680016  24.7590008  34.9080009
  62.3829994  25.3540001  35.4420013  62.1329994  24.2919998  34.1510010
  59.8810005  23.5249996  34.8559990  59.2150002  23.0680008  35.4480019
  60.1959991  23.0860004  33.9770012  58.0260010  27.3090000  40.4550018
  56.8720016  26.7539997  40.3839989  58.2179985  28.5769997  40.2169991
  59.1870003  28.8560009  40.1559982  57.2540016  29.4139996  39.4860001
  56.4609985  28.7609997  39.2330017  56.7879982  30.5380001  40.4269981
  57.6629982  31.0079994  40.8559990  56.0909996  31.6580009  39.6910019
  55.1489983  31.2649994  39.1619987  55.8919983  32.4539986  40.3540001
  56.7680016  32.0810013  38.9560013  55.8110008  30.0279999  41.4749985
  55.5919991  30.7800007  42.2900009  54.8339996  29.8490009  40.9700012
  56.2150002  29.1749992  41.9319992  57.9379997  29.7709999  38.1320000
  59.1640015  30.0629997  38.1329994  57.1320000  29.8950005  37.0740013
  56.0880013  29.8409996  37.1549988  57.5509987  30.5599995  35.8400002
  58.5929985  30.9249992  35.8720016  57.5870018  29.5699997  34.6110001
  56.5849991  29.1779995  34.4029999  58.2000008  30.2940006  33.3979988
  59.2719994  30.5289993  33.5349998  58.1850014  29.5009995  32.6180000
  57.6189995  31.1310005  33.0270004  58.5349998  28.4009991  34.8889999
  59.4920006  28.8549995  34.9430008  58.2709999  27.9459991  35.7519989
  58.5320015  27.2420006  33.8160019  59.1030006  27.4780006  32.8549995
  59.1419983  26.4379997  34.2190018  57.5699997  26.7819996  33.7630005
  56.5890007  31.6800003  35.5610008  55.3899994  31.4720001  35.4879990
  57.1310005  32.9309998  35.2799988  58.0600014  33.0550003  35.3959999
  56.4000015  34.1879997  35.1710014  55.3520012  33.9160004  35.1920013
  56.5569992  34.9780006  36.5219994  56.2999992  34.3339996  37.3349991
  57.6230011  35.3639984  36.4059982  55.7029991  36.1839981  36.5740013
  54.7449989  36.2820015  35.7709999  56.0579987  37.0870018  37.3969994
  56.7900009  34.9300003  33.8689995  57.8110008  35.6549988  33.8450012
  56.0079994  34.8230019  32.7570000  54.7529984  34.0470009  32.5859985
  54.0279999  34.3030014  33.3950005  54.9970016  33.0299988  32.5410004
  54.0639992  34.4869995  31.2530003  53.3699989  35.3019981  31.5189991
  53.5219994  33.8100014  30.5979996  55.1949997  35.1119995  30.5289993
  54.7789993  35.8479996  29.8710003  55.7700005  34.3120003  29.9799995
  56.1230011  35.7249985  31.6200008  57.1629982  35.6189995  31.3279991
  55.7229996  37.2490005  31.8540001  56.0299988  38.0919991  31.0090008
  55.2120018  37.6469994  33.0610008  54.8390007  36.9249992  33.6629982
  55.0569992  39.0870018  33.4959984  54.3009987  39.0919991  34.2239990
  56.3260002  39.7179985  34.0019989  57.0470009  39.8549995  33.2039986
  56.0200005  40.6790009  34.3950005  57.0470009  38.9449997  35.1320000
  56.2869987  39.0509987  35.9239998  57.0979996  37.8969994  34.8079987
  58.4090004  39.5800018  35.5279999  59.1520004  39.1419983  34.9309998
  58.3209991  40.6119995  35.2659988  58.6829987  39.5019989  36.9819984
  58.1819992  38.7869987  37.4819984  59.7400017  40.1279984  37.5200005
  60.5730019  40.7989998  36.8160019  60.5880013  40.5800018  35.8180008
  61.3349991  41.2779999  37.2980003  59.9949989  40.1010017  38.7840004
  59.3759995  39.5110016  39.4169998  60.8989983  40.4519997  39.1199989
  54.3260002  40.0169983  32.4949989  54.3950005  41.2220001  32.6809998
  53.5219994  39.5419998  31.5359993  53.5690002  38.4770012  31.3850002
  52.8110008  40.4109993  30.5219994  52.9210014  41.4529991  30.8700008
  53.4939995  40.2890015  29.1590004  53.7750015  39.2290001  28.9139996
  52.7470016  40.7060013  28.4190006  54.8390007  41.0369987  29.0400009
  54.7649994  42.0719986  29.4120007  55.5979996  40.5130005  29.6399994
  55.5359993  41.2589989  27.6350002  54.7319984  41.7080002  26.9619999
  56.3470001  41.9160004  27.8600006  56.0429993  39.9560013  27.0709991
  55.3089981  39.3549995  26.6989994  57.2750015  39.8079987  26.6739998
  58.2540016  40.5130005  27.2570000  58.1080017  41.1510010  28.0869999
  59.1930008  40.4259987  26.8260002  57.5489998  39.0330009  25.6469994
  56.7700005  38.5839996  25.1720009  58.5200005  38.9230003  25.3950005
  51.2859993  40.1199989  30.3619995  50.8419991  38.9399986  30.2789993
  50.3569984  41.1269989  30.2689991  50.6839981  42.0760002  30.2189999
  48.8699989  41.1269989  30.2770004  48.5489998  40.0950012  30.3090000
  48.3860016  41.7400017  31.6219997  47.3100014  41.5530014  31.7199993
  48.8919983  41.3180008  32.5070000  48.6440010  43.5890007  31.7439995
  49.9490013  43.5149994  31.9680004  48.2820015  41.8919983  29.0779991
  48.8040009  42.8129997  28.5480003  46.9609985  41.6220016  28.8379993
  46.4920006  40.8520012  29.3169994  46.1380005  42.3339996  27.9169998
  46.7430000  42.8440018  27.2269993  45.1769981  41.4059982  27.1889992
  44.9020004  40.6590004  27.9549999  44.3269997  41.9080009  26.7570000
  46.0089989  40.6360016  26.0779991  46.9290009  40.3330002  26.5569992
  45.4690018  39.7099991  25.9220009  46.3800011  41.4760017  24.5459995
  45.0060005  41.0699997  23.3829994  44.8359985  41.7680016  22.5440006
  45.2599983  40.0800018  23.0060005  44.0579987  41.1520004  23.9540005
  45.3440018  43.4630013  28.5830002  44.1879997  43.3260002  28.9410000
  45.9860001  44.5960007  28.8950005  46.9729996  44.5460014  28.7040005
  45.3670006  45.6660004  29.6949997  44.8269997  45.2770004  30.5100002
  46.4500008  46.6160011  30.3449993  45.9399986  47.2830009  30.9610004
  47.0970001  45.9900017  31.0590000  47.3240013  47.3380013  29.3649998
  47.7999992  46.5089989  28.8980007  46.7980003  47.8860016  28.5909996
  48.3580017  48.2999992  29.9559994  48.6850014  47.9080009  30.9249992
  49.2719994  48.4490013  29.3439999  47.7309990  49.6679993  30.1830006
  47.4169998  50.1399994  29.2240009  46.8149986  49.5359993  30.7670002
  48.7420006  50.5040016  30.8540001  48.4410019  51.4729996  31.0949993
  48.9729996  50.0800018  31.7080002  49.5499992  50.4949989  30.2070007
  44.2859993  46.3940010  28.8050003  44.6759987  46.7779999  27.7070007
  43.0499992  46.7529984  29.2380009  42.3650017  46.1549988  30.3169994
  42.8909988  46.0040016  31.2940006  42.1230011  45.1259995  30.0599995
  41.0859985  46.9760017  30.4599991  41.3520012  47.6160011  31.2800007
  40.2649994  46.3779984  30.7970009  40.8370018  47.6959991  29.1609993
  40.2900009  48.6879997  29.2520008  40.4099998  46.9869995  28.5470009
  42.2540016  47.8409996  28.5909996  42.2270012  47.6619987  27.4680004
  42.8650017  49.2719994  28.7910004  43.5089989  49.5439987  29.7950001
  42.4809990  50.1619987  27.8290005  42.1489983  49.7190018  26.9570007
  42.6580009  51.5769997  27.9090004  42.6570015  51.7789993  28.9810009
  43.9830017  51.9249992  27.2539997  43.8810005  51.5900002  26.1870003
  44.2109985  53.4309998  27.2730007  43.4020004  54.0349998  26.9869995
  44.6119995  53.7449989  28.1900005  44.9650002  53.7540016  26.5300007
  45.2700005  51.2570000  27.8290005  46.2260017  51.4729996  27.2770004
  45.4179993  51.5070000  28.8610001  45.2050018  50.1780014  27.7329998
  41.4589996  52.2459984  27.2759991  41.0950012  52.0009995  26.1529999
  40.8899994  53.2089996  27.9960003  41.2599983  53.4319992  28.9529991
  39.8849983  54.1559982  27.4850006  39.1650009  53.6419983  26.7490005
  39.1990013  54.7550011  28.7700005  39.8979988  55.2739983  29.3419991
  38.1170006  55.7260017  28.3290005  38.6129990  56.5610008  27.8139992
  37.3300018  55.2309990  27.7619991  37.6150017  56.2089996  29.1420002
  38.5480003  53.7949982  29.6930008  37.6500015  53.4469986  29.2180004
  39.2169991  52.9280014  29.7299995  38.3310013  54.1710014  31.1599998
  38.1110001  53.2779999  31.6580009  39.1969986  54.5800018  31.5949993
  37.5419998  54.9399986  31.2450008  40.6640015  55.1899986  26.6980000
  41.4910011  55.9300003  27.2910004  40.3199997  55.4360008  25.3939991
  39.6549988  54.8320007  24.9920006  40.7109985  56.6549988  24.6660004
  41.5730019  57.0820007  25.1809998  41.2169991  56.2620010  23.2199993
  40.3950005  55.9199982  22.7119999  41.4729996  57.0870018  22.6459999
  42.2480011  55.2179985  23.0310001  41.8880005  54.3139992  23.4750004
  42.3089981  54.9169998  21.5620003  42.8139992  53.9739990  21.4270000
  41.4000015  54.8540001  21.0580006  42.9480019  55.6759987  21.1599998
  43.6279984  55.5400009  23.4920006  43.6629982  55.8170013  24.5349998
  44.2630005  54.6380005  23.3430004  43.8839989  56.3300018  22.8659992
  39.6129990  57.6800003  24.6429996  38.5309982  57.3730011  24.1250000
  39.9129982  58.9329987  24.8799992  40.8610001  59.1279984  25.0949993
  39.0349998  60.1409988  24.9150009  38.0540009  59.7840004  24.7299995
  39.1949997  60.9599991  26.1980000  38.5680008  61.8989983  26.2010002
  38.5740013  60.1300011  27.3880005  38.7379990  60.7680016  28.2859993
  37.5509987  59.9920006  27.2390003  39.2140007  59.3199997  27.6200008
  40.4490013  61.3209991  26.6410007  41.0120010  61.5629997  25.9090004
  39.1559982  61.1349983  23.7460003  38.2669983  61.9119987  23.5869999
  40.1409988  61.1259995  22.8330002  40.8510017  60.4300003  22.7779999
  40.3300018  62.3549995  22.0200005  39.9480019  63.2620010  22.4669991
  41.8170013  62.6819992  21.8920002  42.2669983  61.8050003  21.3299999
  41.9109993  63.6580009  21.3069992  42.5419998  62.8779984  23.2220001
  42.3709984  63.9469986  23.8770008  43.3530006  61.9780006  23.5680008
  39.6230011  62.2719994  20.6669998  39.8870010  61.3800011  19.8689995
  38.5839996  63.0890007  20.4619999  38.3670006  63.7379990  21.2080002
  37.6529999  63.1310005  19.2689991  37.1790009  64.0979996  19.2500000
  38.2430000  62.9210014  18.3950005  36.4939995  62.0690002  19.3400002
  35.5149994  62.0589981  18.6259995  36.6259995  61.1479988  20.2789993
  37.4020004  61.2389984  20.9790001  35.5909996  60.1020012  20.6320000
  34.6110001  60.4700012  20.8659992  35.4290009  59.1310005  19.4459991
  34.7620010  59.6279984  18.7719994  36.3440018  59.0530014  18.9400005
  34.7999992  57.7709999  19.6100006  34.8510017  57.2970009  18.6359997
  35.4160004  57.1699982  20.2420006  33.2949982  57.7410011  20.0119991
  32.7340012  58.7369995  20.5130005  32.7140007  56.6220016  19.9330006
  36.0919991  59.3330002  21.8770008  37.2610016  59.1500015  21.9449997
  35.1829987  59.0559998  22.8299999  34.2420006  59.4770012  22.7579994
  35.4599991  58.1230011  23.9430008  36.5180016  58.2639999  24.1910000
  34.5859985  58.5740013  25.1310005  34.5499992  59.6500015  25.2469997
  33.5880013  58.1780014  24.9169998  35.0120010  58.0359993  26.5459995
  35.1030006  56.9119987  26.5580006  35.8699989  58.6040001  26.8969994
  33.8969994  58.2709999  27.6009998  32.9659996  59.0830002  27.3999996
  34.0929985  57.7859993  28.6879997  35.1080017  56.6539993  23.5739994
  33.9570007  56.3089981  23.2159996  36.1170006  55.7709999  23.7390003
  36.9580002  56.0359993  24.0979996  36.1430016  54.4239998  23.1739998
  35.1829987  53.9519997  23.3649998  36.5180016  54.3559990  21.6490002
  36.7309990  53.3390007  21.5020008  35.6469994  54.5660019  21.0300007
  37.6380005  55.2480011  21.1639996  37.4389992  56.2179985  21.4120007
  38.4650002  54.9049988  21.7900009  37.9510002  55.2099991  19.6469994
  38.2470016  54.2599983  19.2940006  37.0960007  55.5250015  19.0259991
  38.9980011  56.1959991  19.3910007  39.1689987  56.9469986  20.0599995
  39.9480019  56.0629997  18.4839993  39.9099998  55.1230011  17.5949993
  39.0239983  54.6440010  17.4249992  40.5400009  55.1399994  16.7919998
  40.9860001  56.8120003  18.5030003  40.9420013  57.6339989  19.0240002
  41.7060013  56.7229996  17.7520008  37.1850014  53.6529999  23.9790001
  38.2400017  54.2449989  24.3169994  37.0970001  52.3019981  24.1660004
  36.2410011  51.9220009  23.8220005  38.0919991  51.4230003  24.8840008
  38.8569984  52.0200005  25.2959995  37.5519981  50.6590004  26.1000004
  36.7140007  50.0449982  25.7169991  38.5320015  49.6679993  26.7099991
  38.8390007  48.8180008  25.9939995  39.4020004  50.1269989  27.1369991
  38.0929985  49.1370010  27.4349995  36.9679985  51.5349998  27.1509991
  37.6920013  51.7579994  27.9279995  36.6020012  52.4799995  26.7910004
  36.1380005  50.9830017  27.6259995  38.7579994  50.4760017  23.8549995
  38.0979996  49.7859993  23.0400009  40.0940018  50.3790016  23.9160004
  40.4500008  50.9350014  24.6350002  41.0120010  49.5219994  23.2360001
  40.4140015  48.8959999  22.5389996  42.0849991  50.2400017  22.3920002
  42.6419983  49.5489998  21.8160000  41.4510002  51.1870003  21.3339996
  40.9280014  51.9840012  21.9220009  42.2789993  51.6489983  20.7430000
  40.7709999  50.6640015  20.6980000  43.0480003  51.1559982  23.1879997
  42.7869987  52.2280006  23.2070007  43.1879997  50.8349991  24.1860008
  44.5229988  51.1459999  22.6720009  44.7820015  50.0979996  22.6359997
  44.7229996  51.8110008  21.8190002  45.1790009  51.5589981  23.3710003
  41.6230011  48.4459991  24.1860008  41.6559982  48.6899986  25.4249992
  42.2299995  47.4410019  23.6009998  42.4640007  47.4720001  22.5930004
  43.1749992  46.6329994  24.3509998  43.0760002  46.8759995  25.3880005
  42.8909988  45.1580009  24.0529995  42.7369995  45.1479988  22.9599991
  43.6790009  44.5320015  24.3630009  41.7179985  44.5169983  24.8419991
  40.9379997  45.2750015  24.7609997  41.1920013  43.1800003  24.2709999
  41.9729996  42.4329987  24.3619995  40.2159996  42.9440002  24.6849995
  41.0719986  43.3950005  23.2000008  41.9000015  44.5099983  26.3750000
  42.8370018  44.0489998  26.6240005  41.8709984  45.5089989  26.7530003
  41.1380005  43.8950005  26.8880005  44.5330009  47.1010017  23.8810005
  44.7989998  47.2820015  22.6819992  45.3940010  47.2799988  24.8820000
  45.1790009  47.1040001  25.8250008  46.7809982  47.6419983  24.6399994
  46.7859993  48.0040016  23.6149998  47.1730003  48.7680016  25.6040001
  47.8520012  49.5509987  25.2530003  46.2519989  49.2820015  25.8050003
  47.5369987  48.5190010  26.6229992  47.7200012  46.4379997  24.7900009
  47.5909996  45.5649986  25.5879993  48.7719994  46.5330009  24.0079994
  48.8219986  47.3079987  23.3950005  50.0379982  45.7910004  24.1480007
  50.7989998  46.3559990  23.6389999  50.2019997  45.8889999  25.1989994
  50.1489983  44.3699989  23.5939999  50.2239990  44.2389984  22.3570004
  50.2179985  43.2700005  24.4029999  50.4819984  41.9589996  23.8750000
  51.2589989  42.0250015  23.0279999  49.5480003  41.5680008  23.5020008
  51.1180000  41.0530014  24.9580002  52.1990013  41.1809998  25.0359993
  50.8530006  40.0130005  24.7830009  50.2659988  41.6370010  26.1240005
  50.7060013  41.5649986  27.1690006  49.3209991  41.2019997  26.0690002
  50.3050003  43.1809998  25.8710003  49.4020004  43.6370010  26.3110008
  51.5040016  43.9430008  26.4699993  52.5929985  43.8829994  25.9009991
  51.2610016  44.5940018  27.5709991  50.2709999  44.5870018  27.8279991
  52.2760010  45.2509995  28.3740005  53.2229996  45.2179985  27.8649998
  51.9269981  46.7319984  28.4720001  51.0519981  46.9080009  29.1340008
  52.7729988  47.3219986  28.8209991  51.6259995  47.4770012  27.1380005
  50.7280006  47.1220016  26.7339993  51.5190010  48.4970016  27.4139996
  52.9329987  47.4510002  25.8899994  54.0309982  48.8849983  26.2509995
  53.9210014  49.1059990  27.3150005  55.1030006  48.6259995  26.1410007
  53.7919998  49.8660011  25.8169994  52.4650002  44.5550003  29.7150002
  51.6240005  43.6850014  30.0359993  53.5120010  44.8400002  30.4750004
  54.6459999  45.6510010  30.0990009  54.3639984  46.7159996  30.2670002
  55.0299988  45.5099983  29.0909996  55.8209991  45.2840004  31.0230007
  56.3880005  46.1629982  31.2789993  56.4949989  44.6640015  30.5189991
  55.1580009  44.7420006  32.2739983  55.0349998  45.5229988  33.0470009
  55.6549988  43.8820000  32.7210007  53.7830009  44.2220001  31.8020000
  53.8160019  43.1489983  31.6620007  52.7550011  44.4020004  32.9140015
  52.0620003  45.4379997  33.0660019  52.7350006  43.4399986  33.8889999
  53.2680016  42.6170006  33.8149986  52.0040016  43.6450005  35.1419983
  51.0610008  44.0919991  34.9350014  51.6440010  42.2989998  35.8530006
  51.1809998  42.4869995  36.8110008  50.7430000  41.3699989  34.9850006
  49.8330002  41.9049988  34.6259995  51.3590012  41.1640015  34.1590004
  50.5400009  40.4360008  35.4949989  52.8590012  41.4900017  36.2150002
  53.3429985  41.1049995  35.3339996  53.4869995  42.1030006  36.8510017
  52.3889999  40.7389984  36.8279991  52.7070007  44.5200005  36.1889992
  53.8120003  45.0260010  35.9749985  51.9609985  44.8810005  37.3230019
  51.2389984  44.2669983  37.4970016  52.4280014  45.7989998  38.2900009
  52.8769989  46.6539993  37.7459984  51.2239990  46.4080009  39.0750008
  51.5419998  47.0180016  39.8979988  50.3670006  47.3600006  38.2130013
  49.5789986  47.8089981  38.8230019  51.0219994  48.1380005  37.8520012
  49.9589996  46.8950005  37.3670006  50.3590012  45.4729996  39.6520004
  49.9970016  45.9510002  40.4729996  53.4239998  45.2509995  39.2719994
  53.7220001  44.0649986  39.2500000  54.0960007  46.0340004  40.1020012
  53.9370003  47.0519981  40.1349983  55.0740013  45.4449997  41.0800018
  55.8979988  45.0709991  40.5270004  55.5519981  46.6279984  41.9819984
  54.6240005  47.1800003  42.2589989  56.1049995  46.2080002  42.8790016
  56.5660019  47.5149994  41.3120003  57.7430000  47.1150017  40.7729988
  58.3800011  48.1710014  40.3209991  59.3919983  48.1409988  39.8820000
  57.7200012  49.3030014  40.6349983  58.0670013  50.2270012  40.5480003
  56.4840012  48.8860016  41.2299995  55.6409988  49.4589996  41.5180016
  54.4990005  44.3720016  42.0229988  55.1069984  43.3499985  42.1800003
  53.3089981  44.6520004  42.6759987  52.8829994  45.5519981  42.4539986
  52.4830017  43.7159996  43.5200005  52.9119987  43.5929985  44.5390015
  51.1329994  44.3170013  43.6720009  50.8440018  44.8989983  42.7709999
  50.4389992  43.4799995  43.6699982  51.1920013  45.1860008  44.8149986
  51.6619987  45.9570007  44.4490013  52.3860016  42.3680000  42.8610001
  52.6389999  41.3930016  43.4210014  51.9459991  42.2830009  41.6080017
  51.6080017  43.1080017  41.2169991  51.7529984  40.9930000  40.8129997
  51.0769997  40.4210014  41.3540001  51.1660004  41.2690010  39.4249992
  51.9059982  41.8300018  38.9109993  50.8930016  40.4189987  38.8699989
  49.9990005  42.0540009  39.7280006  49.3359985  41.4700012  40.1240005
  53.0680008  40.1920013  40.7299995  52.9939995  39.0130005  41.0250015
  54.1329994  40.8610001  40.3569984  54.0060005  41.8759995  40.1040001
  55.4399986  40.2340012  40.2369995  55.5139999  39.3440018  39.5439987
  56.4389992  41.2910004  39.7680016  56.2430000  42.2480011  40.1619987
  57.3720016  40.9760017  40.1619987  56.4889984  41.4430008  38.6699982
  55.8860016  39.6150017  41.6380005  56.3380013  38.4869995  41.7490005
  55.6180000  40.3709984  42.6930008  55.5110016  41.3779984  42.6320000
  55.7389984  39.7789993  44.0830002  56.7529984  39.4939995  44.1409988
  55.5050011  40.8600006  45.1910019  56.2379990  41.6259995  45.0709991
  54.5730019  41.3499985  44.9959984  55.5880013  40.3240013  46.1440010
  54.7760010  38.5379982  44.3959999  55.1749992  37.5629997  45.0999985
  53.5099983  38.7050018  44.0449982  53.2369995  39.5709991  43.6860008
  52.5120010  37.6969986  44.3639984  52.8149986  37.4230003  45.4259987
  51.1199989  38.1640015  44.2060013  51.0209999  38.6339989  43.2700005
  50.3959999  37.3089981  44.1920013  50.6574097  39.1742935  45.2712517
  51.3473244  40.0111122  45.2918701  49.6817741  39.5638771  44.9814148
  50.5304565  38.5972595  46.6793289  50.5344925  37.3945885  46.8954201
  50.3833122  39.4239769  47.6893044  50.2925034  39.0262184  48.6114655
  50.3407593  40.4254837  47.5227661  52.6959991  36.3520012  43.5550003
  52.6290016  35.2919998  44.1380005  53.0299988  36.4339981  42.2939987
  53.4049988  37.2989998  41.9379997  53.3079987  35.2410011  41.4659996
  52.4669991  34.5880013  41.4710007  53.4710007  35.7159996  40.0289993
  54.3370018  36.4360008  39.9609985  53.8590012  34.9029999  39.4179993
  52.1800003  36.3199997  39.3730011  51.4109993  35.5169983  39.2169991
  51.8759995  37.1800003  39.9560013  52.5559998  36.8390007  37.9910011
  53.3100014  37.6180000  38.0740013  52.9939995  35.9529991  37.3880005
  51.3190002  37.2989998  37.3769989  50.5149994  37.5859985  38.0489998
  51.1300011  37.5470009  36.0800018  52.0719986  37.2369995  35.2700005
  52.9179993  36.8720016  35.7039986  51.9609985  37.4269981  34.2540016
  49.9799995  37.8759995  35.6450005  49.0789986  37.7350006  36.1860008
  50.0120010  38.2010002  34.7340012  54.5410004  34.4869995  41.9729996
  54.4389992  33.3139992  42.3059998  55.6489983  35.1230011  42.2760010
  55.8460007  36.0489998  41.9099998  56.7690010  34.5429993  43.0610008
  57.1850014  33.7260017  42.4669991  57.7690010  35.7169991  43.1590004
  58.0050011  36.1710014  42.2700005  57.3590012  36.4860001  43.7770004
  59.1069984  35.3530006  43.8230019  58.9420013  34.8009987  44.7260017
  59.6279984  34.6380005  43.2159996  59.9650002  36.6440010  43.9609985
  59.8919983  37.1730003  43.0050011  59.3969994  37.3209991  44.6129990
  61.3310013  36.4039993  44.5060005  62.0660019  36.0340004  43.8610001
  61.7120018  36.7120018  45.7239990  60.9970016  37.2869987  46.6360016
  60.0009995  37.1920013  46.5919991  61.3320007  37.5200005  47.5870018
  62.9519997  36.5320015  46.0159988  63.5979996  36.1259995  45.3100014
  63.3339996  36.4830017  46.9799995  56.3489990  33.9510002  44.3969994
  56.6739998  32.7960014  44.7610016  55.5299988  34.6839981  45.1440010
  55.3540001  35.5839996  44.7970009  55.0989990  34.2970009  46.5130005
  56.0229988  34.1119995  47.1020012  54.5270004  35.0880013  47.0099983
  54.3050003  33.0169983  46.7379990  54.1059990  32.5760002  47.8409996
  53.9860001  32.3279991  45.6500015  54.1510010  32.6910019  44.7599983
  53.3730011  31.0340004  45.6590004  52.6090012  31.0279999  46.4099998
  52.7319984  30.7660007  44.2830009  53.4790001  30.8379993  43.5070000
  52.4939995  29.7070007  44.1930008  51.5509987  31.6320000  43.8320007
  51.8849983  32.5839996  43.4449997  51.1609993  30.9960003  43.0169983
  50.4398003  31.8902168  44.8327332  49.4847069  31.9328976  44.3096886
  50.4137802  31.0838451  45.5524635  50.6785278  33.1821365  45.4636841
  50.8069687  33.9746437  44.8400383  50.8005333  33.4546776  46.7359657
  50.5596085  32.6104927  47.6910629  50.3374176  31.6403923  47.5250511
  50.5817719  33.0004120  48.6377373  51.1727142  34.6395721  47.0789528
  51.2609406  35.3930511  46.4211884  51.1810646  34.8070679  48.0874214
  54.3429985  29.8770008  46.0730019  53.9150009  28.8020000  46.3989983
  55.6889992  30.1250000  46.0509987  55.9220009  31.0849991  45.8339996
  56.7719994  29.2889996  46.5089989  56.2770004  28.4710007  47.0159988
  57.5400009  28.7029991  45.2280006  58.3790016  28.1229992  45.6080017
  56.5270004  27.7070007  44.5579987  55.7910004  28.2919998  44.0340004
  57.1360016  27.1200008  43.8470001  56.0670013  27.0900002  45.3260002
  58.0309982  29.6089993  44.0390015  58.3540001  29.0079994  43.1780014
  57.2060013  30.2350006  43.7570000  59.0919991  30.6030006  44.3759995
  59.1300011  31.2460003  43.5200005  58.9360008  31.1560001  45.3190002
  60.0180016  30.0709991  44.4630013  57.7130013  30.0610008  47.4970016
  57.4819984  31.2579994  47.7859993  58.6389999  29.2900009  48.0579987
  58.8720016  28.4489994  47.5610008  59.5629997  29.6949997  49.1780014
  60.4679985  29.0639992  49.1870003  59.7449989  30.7339993  48.9360008
  58.9150009  29.7129993  50.5419998  59.3540001  30.4869995  51.3800011
  57.7420006  29.0550003  50.6189995  57.3510017  28.6459999  49.7939987
  56.8139992  29.2099991  51.7949982  56.9440002  30.2460003  52.1990013
  55.3530006  28.9419994  51.3219986  55.3260002  27.9570007  50.8779984
  54.5289993  28.8980007  52.0610008  54.9650002  29.9169998  50.2060013
  54.9920006  30.9109993  50.7080002  55.7680016  29.8700008  49.4939995
  53.5761185  29.7093697  49.5694580  53.5228500  30.2962914  48.6548271
  53.4626617  28.6602001  49.2915649  52.4540329  30.1131096  50.4498901
  51.9028893  29.3883381  50.8923912  51.9485512  31.3248882  50.6416473
  50.9224472  31.5063114  51.4176178  50.4270401  30.7259197  51.8279305
  50.6524048  32.4613419  51.6850815  52.4224205  32.3856087  50.0711174
  53.1689720  32.3396492  49.3944626  51.9141121  33.2589989  50.2304573
  57.1250000  28.2560005  53.0040016  56.7579994  28.4650002  54.0919991
  57.7739983  27.1149998  52.7000008  57.9490013  26.9610004  51.7120018
  58.2570000  26.1019993  53.6759987  57.5499992  26.1189995  54.5159988
  57.9720001  24.7870007  52.9990005  56.9749985  24.7350006  52.7500000
  58.5859985  24.7600002  52.0750008  58.3030014  23.5380001  53.7369995
  59.4650002  23.2390003  53.9990005  57.2779999  22.7830009  54.0400009
  57.2970009  22.0400009  54.7900009  56.3680000  22.8290005  53.5470009
  59.6739998  26.2840004  54.2000008  60.5839996  26.4300003  53.3839989
  59.8860016  26.2619991  55.6160011  58.8250008  26.2430000  56.6450005
  58.2190018  25.3040009  56.4729996  58.2000008  27.1210003  56.5620003
  59.5830002  26.1599998  57.9059982  59.9749985  25.1660004  58.1580009
  59.0639992  26.5879993  58.7709999  60.8779984  26.9430008  57.6189995
  61.7659988  26.7220001  58.2270012  60.6329994  27.9930000  57.6899986
  61.1409988  26.6089993  56.1739998  61.5489998  27.4930000  55.7220001
  62.2019997  25.5039997  56.0449982  63.3759995  25.8680000  55.9889984
  61.8370018  24.2000008  55.9840012  60.9049988  23.9120007  56.0740013
  62.9169998  23.1480007  55.9339981  63.7879982  23.3980007  56.5070000
  62.4029999  21.8619995  56.6300011  61.5649986  21.4829998  55.9760017
  63.2789993  21.1380005  56.6570015  61.9280014  22.0310001  58.0940018
  62.7029991  22.4990005  58.7169991  61.1189995  22.7509995  58.0950012
  61.4150009  20.7099991  58.6269989  60.6020012  20.3540001  57.9589996
  62.2570000  20.0049992  58.6489983  60.9469986  20.8339996  60.0509987
  61.8839989  20.8689995  60.6450005  60.3590012  21.7989998  60.1780014
  60.1150017  19.7240009  60.4430008  59.6300011  19.8180008  61.3009987
  59.4080009  19.5629997  59.7270012  60.7099991  18.9050007  60.4119987
  63.4249992  22.9370003  54.4710007  64.4570007  22.2840004  54.2210007
  62.7509995  23.4430008  53.4360008  62.0079994  24.0620003  53.6539993
  63.1559982  23.4629993  52.0219994  63.7010002  22.5209999  51.8310013
  61.8400002  23.5170002  51.2420006  61.2210007  22.6669998  51.4539986
  61.3820000  24.4220009  51.5900002  61.9860001  23.7310009  49.7169991
  62.8260002  23.1569996  48.9630013  61.0209999  24.3710003  49.0839996
  60.9620018  24.3600006  48.0839996  60.3750000  25.0300007  49.5480003
  64.1159973  24.5410004  51.5690002  64.0090027  25.7150002  51.9790001
  65.0780029  24.1650009  50.7089996  64.9919968  23.2609997  50.3079987
  66.1529999  25.0809994  50.2169991  66.0019989  26.0310001  50.6389999
  67.5579987  24.5890007  50.6329994  67.7699966  23.7169991  50.1269989
  68.2610016  25.2469997  50.3460007  67.7689972  24.3449993  52.1230011
  67.9059982  25.3330002  52.5909996  66.9580002  23.8430004  52.6080017
  69.1110001  23.6180000  52.4039993  69.6129990  23.8260002  53.5000000
  69.7300034  22.8689995  51.6150017  66.1900024  25.3500004  48.6809998
  66.9950027  26.1340008  48.2449989  65.2600021  24.7119999  47.9469986
  64.7210007  24.0000000  48.3530006  65.3249969  24.6049995  46.5060005
  66.2279968  25.0849991  46.0089989  65.5469971  23.0900002  46.2070007
  66.2259979  22.6079998  46.9410019  64.5940018  22.5450001  46.3810005
  66.0390015  22.7099991  44.8400002  67.0289993  23.2500000  44.3639984
  65.6159973  21.6760006  44.1599998  66.1589966  21.2800007  43.4720001
  64.7740021  21.1910000  44.4319992  64.1470032  25.1690006  45.6489983
  63.9420013  24.8780003  44.4879990  63.2560005  25.9769993  46.3180008
  63.4129982  26.1849995  47.3689995  62.2179985  26.7639999  45.5379982
  61.7680016  26.1340008  44.8120003  61.1189995  27.2929993  46.4490013
  61.5730019  27.6700001  47.3680000  60.7579994  28.1919994  46.0589981
  60.0180016  26.3080006  46.8440018  60.1250000  25.1259995  46.6189995
  59.0260010  26.7299995  47.4440002  62.8709984  27.9290009  44.6980019
  63.9150009  28.5270004  44.9399986  62.1980019  28.2189999  43.5740013
  61.2999992  27.7880001  43.3320007  62.7350006  29.1490002  42.5639992
  63.1829987  29.9529991  43.1080017  63.7550011  28.4629993  41.6040001
  64.2070007  29.2560005  40.9790001  64.5370026  28.0660000  42.2789993
  63.0379982  27.3439999  40.7639999  62.2999992  26.8929996  41.5139999
  62.5589981  27.7539997  39.8400002  63.9179993  26.1310005  40.3380013
  64.3629990  26.0480003  39.2010002  64.1930008  25.2469997  41.2960014
  64.8489990  24.5410004  41.1170006  63.8499985  25.3320007  42.1850014
  61.6310005  29.7719994  41.6300011  60.4650002  29.4069996  41.6469994
  61.9910011  30.9069996  41.0089989  63.0180016  31.1550007  41.0379982
  61.1780014  31.9169998  40.2150002  60.2430000  31.4769993  39.9199982
  60.9550018  33.1010017  41.1619987  60.5060005  32.7410011  42.0550003
  61.9280014  33.4770012  41.5559998  60.1819992  34.3310013  40.5159988
  58.8520012  34.1329994  40.1170006  58.2879982  33.1749992  40.2529984
  58.1310005  35.2470016  39.6500015  57.0719986  35.1899986  39.4370003
  58.7169991  36.5070000  39.4459991  58.0419998  37.5149994  38.9189987
  57.2490005  37.1850014  38.3400002  60.0349998  36.6739998  39.8199997
  60.5120010  37.6090012  39.5940018  60.7980003  35.5559998  40.3440018
  61.8969994  35.6110001  40.4879990  61.9980011  32.3530006  39.0040016
  62.7400017  33.2630005  39.0320015  61.8820000  31.6280003  37.8520012
  61.0499992  31.0890007  37.8310013  62.4350014  32.0060005  36.5919991
  63.4459991  32.3800011  36.8009987  62.5890007  30.7539997  35.7290001
  61.5909996  30.6380005  35.2849998  63.4659996  31.1170006  34.4939995
  63.6419983  30.2959995  33.8349991  63.1069984  32.0060005  33.9379997
  64.4189987  31.5359993  34.8300018  63.0369987  29.4669991  36.3489990
  62.3810005  29.1770000  37.1500015  63.0089989  28.6889992  35.5649986
  64.4329987  29.4820004  36.8950005  65.1330032  29.6030006  36.0400009
  64.4339981  30.3470001  37.4930000  64.6940002  28.6760006  37.4850006
  61.4049988  33.0050011  36.0369987  60.1870003  32.8139992  36.0940018
  61.8680000  34.0089989  35.3580017  62.8950005  34.1910019  35.4269981
  61.0070000  35.1279984  34.8370018  59.9449997  34.6730003  34.7130013
  60.6969986  36.1619987  35.9449997  59.9059982  36.9059982  35.7089996
  60.3300018  35.6370010  36.8190002  61.9249992  36.9589996  36.4039993
  62.7459984  36.4900017  37.4399986  62.6730003  35.4550018  37.7840004
  63.7890015  37.2200012  37.9679985  64.4209976  36.8839989  38.8400002
  64.0090027  38.5550003  37.4650002  64.8820038  39.3810005  38.0250015
  64.7829971  40.2150002  37.5289993  63.2910004  38.9420013  36.3310013
  63.4389992  39.8959999  35.9280014  62.2630005  38.1669998  35.8219986
  61.6259995  38.4640007  35.0349998  61.6160011  35.8730011  33.6100006
  62.8619995  35.8969994  33.4529991  60.7610016  36.5789986  32.8429985
  59.7700005  36.4350014  33.0589981  61.0359993  37.4090004  31.6779995
  62.1250000  37.2190018  31.3719997  60.1450005  36.7879982  30.5279999
  60.3849983  35.6710014  30.4820004  59.1250000  36.8549995  30.7689991
  60.3820000  37.4420013  29.2169991  59.9720001  38.3750000  29.4340000
  61.4739990  37.5699997  29.0189991  59.7449989  36.6910019  27.7360001
  57.9099998  36.7519989  28.1779995  57.7369995  35.8870010  28.8260002
  57.6069984  37.6850014  28.5639992  57.3040009  36.5559998  27.3220005
  60.8549995  38.9269981  31.9729996  59.7439995  39.2929993  32.3139992
  61.8260002  39.8400002  31.7180004  62.6570015  39.6080017  31.2919998
  61.5509987  41.2330017  31.7670002  62.3979988  41.7459984  31.3990002
  60.7330017  41.4669991  31.0489998  61.0760002  41.6850014  33.1549988
  61.3139992  40.9070015  34.1290016  60.5110016  42.9000015  33.3180008
  60.4090004  43.4220009  32.4889984  60.3810005  43.5110016  34.6160011
  60.4510002  42.8419991  35.4169998  61.3740005  44.6669998  34.7799988
  61.1199989  45.3180008  34.0029984  61.0970001  45.1529999  35.6969986
  62.8569984  44.3779984  34.7449989  63.4739990  45.0960007  35.3370018
  63.0820007  43.3909988  35.1389999  63.3310013  44.4239998  33.2869987
  63.0709991  45.3769989  32.4280014  63.9949989  43.4090004  32.9399986
  58.9930000  44.1209984  34.6489983  58.5060005  44.7159996  33.6609993
  58.4039993  44.1679993  35.8479996  58.9469986  43.8199997  37.1829987
  59.9480019  44.0839996  37.2430000  58.7770004  42.7400017  37.5470009
  58.1320000  44.6199989  38.2140007  58.5419998  45.5699997  38.4010010
  58.0919991  44.0449982  39.1599998  56.7859993  44.7060013  37.5299988
  56.2210007  45.5489998  37.9560013  56.2179985  43.7579994  37.7169991
  57.1040001  44.8100014  36.0250015  56.3919983  44.1479988  35.4889984
  56.9860001  46.3409996  35.6389999  57.9360008  47.0950012  35.9169998
  55.8499985  46.6809998  35.0880013  55.1110001  46.0239983  34.9930000
  55.5769997  48.0589981  34.7859993  56.5660019  48.5219994  34.6500015
  54.8409996  48.1800003  33.4049988  55.5040016  47.7639999  32.6660004
  54.0200005  47.4650002  33.4140015  54.3450012  49.5849991  32.9039993
  53.5929985  49.8989983  33.6570015  55.4249992  50.6430016  32.8969994
  56.1570015  50.2760010  32.1489983  54.8849983  51.6080017  32.7039986
  55.8650017  50.6339989  33.8510017  53.6570015  49.4440002  31.4979992
  52.7750015  48.7820015  31.4920006  53.3419991  50.4129982  31.1790009
  54.3820000  49.1739998  30.7749996  54.7929993  48.7680016  35.8930016
  53.6119995  48.3180008  36.0750008  55.3450012  49.7849998  36.6010017
  56.2700005  50.0540009  36.3120003  54.7649994  50.5309982  37.6910019
  54.4910011  49.7879982  38.4449997  55.9780006  51.3289986  38.2859993
  56.8160019  50.7060013  38.4749985  56.1370010  52.1590004  37.6409988
  55.6209984  51.9609985  39.6650009  54.6920013  52.5660019  39.6269989
  55.3069992  51.1609993  40.2620010  56.8059998  52.7080002  40.3470001
  57.9599991  52.2890015  40.2150002  56.5489998  53.7649994  40.9640007
  53.5690002  51.4729996  37.3580017  52.7540016  51.7150002  38.3129997
  53.4160004  51.8800011  36.1090012  53.9980011  51.5079994  35.3750000
  52.3699989  52.7789993  35.7070007  52.1119995  53.4300003  36.5060005
  52.9049988  53.5099983  34.4570007  53.9010010  54.0950012  34.5970001
  53.1030006  52.8310013  33.6489983  52.0359993  54.5859985  33.7690010
  52.2570000  54.9959984  32.6040001  50.9760017  55.0620003  34.4370003
  50.2750015  55.5929985  33.9420013  50.8600006  54.9410019  35.4570007
  51.0219994  52.0060005  35.4150009  50.8250008  51.5460014  34.2519989
  50.1150017  51.8199997  36.3530006  50.3269997  52.0410004  37.3330002
  48.7890015  51.3089981  35.9729996  48.8800011  50.8079987  34.9560013
  48.3460007  50.2309990  37.0190010  47.3370018  49.8349991  36.6320000
  49.0489998  49.3969994  37.0070000  48.2439995  50.7550011  38.4360008
  48.9309998  51.6809998  38.9290009  47.3520012  50.2789993  39.1520004
  47.6959991  52.3380013  35.8600006  46.5639992  51.9970016  35.3400002
  47.9959984  53.6290016  36.1250000  48.9140015  53.8870010  36.4150009
  46.9780006  54.6539993  36.2000008  46.1780014  54.2919998  36.8429985
  47.5499992  55.9529991  36.7999992  48.2000008  56.3779984  36.1230011
  46.6529999  56.5940018  36.8959999  48.2690010  55.7319984  38.1640015
  47.9269981  56.4879990  38.9049988  47.8339996  54.8499985  38.5699997
  49.7630005  55.5870018  38.0680008  50.5489998  56.0690002  38.9080009
  50.2960014  54.9580002  37.1389999  46.2929993  55.0209999  34.9239998
  45.2779999  55.7099991  34.8860016  46.8120003  54.7140007  33.7630005
  47.6759987  54.2459984  33.8709984  46.1380005  54.7729988  32.3790016
  45.3800011  55.5400009  32.4099998  47.1510010  55.1510010  31.2709999
  46.6010017  55.1640015  30.3630009  47.3699989  56.2340012  31.3479996
  48.3479996  54.2519989  31.0669994  48.2509995  53.0909996  31.5499992
  49.2500000  54.6529999  30.3010006  45.3820000  53.4679985  31.9629993
  44.7540016  53.4809990  30.9430008  45.3650017  52.4090004  32.7750015
  45.8619995  52.4860001  33.6539993  44.5250015  51.2589989  32.5680008
  44.4230003  51.1769981  31.5100002  45.2739983  50.0349998  33.1870003
  46.3030014  49.9420013  32.8170013  45.2770004  50.1119995  34.3030014
  44.2589989  48.6780014  32.6679993  43.6689987  48.4370003  33.8279991
  43.1879997  51.5309982  33.1349983  43.0769997  52.1930008  34.1850014
  42.1899986  51.1870003  32.2910004  42.4580002  50.4790001  31.5660000
  40.7570000  51.4910011  32.4620018  40.4809990  52.5239983  32.3380013
  40.0569992  50.5279999  31.4260006  40.3219986  49.4599991  31.5909996
  38.9739990  50.6920013  31.4979992  40.3079987  50.6800003  30.3689995
  40.1189995  51.1959991  33.9020004  39.3289986  52.0190010  34.3750000
  40.6839981  50.1609993  34.6080017  41.6160011  49.7890015  34.3849983
  40.0250015  49.6230011  35.7649994  39.0040016  49.3740005  35.4519997
  40.7779999  48.3569984  36.2050018  40.2280006  47.8969994  37.0029984
  40.7599983  47.5359993  35.4360008  42.1529999  48.7080002  36.7039986
  43.2019997  48.9790001  35.8650017  44.3409996  48.9329987  36.6020012
  45.3569984  49.0779991  36.2700005  43.9300003  48.7050018  37.8639984
  44.5999985  48.6759987  38.6020012  42.5779991  48.4700012  37.9550018
  42.0089989  48.2579994  38.8240013  40.0029984  50.6990013  36.9160004
  39.1320000  50.7120018  37.7299995  41.0330009  51.6529999  37.0040016
  41.7919998  51.6590004  36.2719994  40.8190002  52.6969986  37.9850006
  40.5989990  52.3359985  38.9850006  42.1689987  53.4220009  38.0159988
  42.5320015  53.6380005  37.0029984  41.9430008  54.3849983  38.5130005
  43.2080002  52.7410011  38.7340012  44.3489990  52.1879997  38.1780014
  44.5550003  52.1850014  37.1230011  45.0110016  51.5670013  39.2029991
  45.8320007  50.9210014  38.9620018  44.3750000  51.6829987  40.4309998
  44.6100006  51.2000008  41.7319984  45.3460007  50.4480019  42.0190010
  43.8689995  51.7439995  42.8250008  44.0579987  51.3959999  43.8530006
  42.8230019  52.6290016  42.5489998  42.1990013  53.0509987  43.3050003
  42.5250015  53.0139999  41.2120018  41.7649994  53.7560005  41.0330009
  43.2309990  52.5029984  40.1450005  39.6879997  53.6969986  37.6599998
  39.0320015  54.1920013  38.6269989  39.2400017  53.9550018  36.4399986
  39.6250000  53.4459991  35.6549988  38.1870003  54.8569984  36.1300011
  38.0859985  55.6870003  36.8860016  38.5159988  55.4910011  34.7550011
  39.6110001  55.5929985  34.6230011  38.3400002  54.6780014  34.0309982
  37.8199997  56.7709999  34.3320007  37.5890007  56.6739998  33.3089981
  36.8479996  57.0019989  34.8769989  38.7500000  57.9790001  34.4729996
  39.0670013  58.0940018  35.5359993  39.6990013  57.7809982  33.9490013
  38.0139999  59.2159996  33.8619995  37.8289986  59.1660004  32.8139992
  37.0820007  59.3400002  34.4529991  38.8040009  60.4449997  34.0950012
  39.4039993  60.6360016  33.2680016  38.2290001  61.3050003  34.0449982
  39.3240013  60.4309998  34.9669991  36.8230019  54.1269989  36.1409988
  35.8310013  54.6489983  36.6300011  36.8470001  52.8330002  35.8730011
  37.6640015  52.5449982  35.3779984  35.8129997  51.8699989  36.1209984
  34.9790001  52.3339996  35.7299995  35.9770012  50.5309982  35.3680000
  36.7939987  49.9959984  35.8260002  35.0099983  50.0099983  35.6619987
  36.0909996  50.6980019  33.8419991  35.1839981  51.1170006  33.5089989
  36.8129997  51.3839989  33.5750008  36.3959999  49.3839989  33.0940018
  37.1430016  48.5180016  33.6609993  35.7610016  49.2849998  32.0209999
  35.5970001  51.6419983  37.6580009  34.4199982  51.6259995  38.1030006
  36.5979996  51.4179993  38.4529991  37.5169983  51.4249992  38.0800018
  36.4090004  51.3419991  39.8810005  36.0309982  50.3339996  40.0139999
  37.8349991  51.2739983  40.4519997  38.3460007  52.1110001  40.0870018
  37.7050018  51.2680016  41.5579987  38.3120003  50.3699989  40.1269989
  35.5299988  52.4640007  40.5000000  34.6339989  52.2010002  41.2849998
  35.7630005  53.7360001  40.1199989  36.5270004  53.9010010  39.5099983
  34.9420013  54.9059982  40.4570007  34.7809982  54.8849983  41.5390015
  35.6510010  56.2820015  40.0950012  36.4570007  56.0509987  39.3590012
  35.0239983  56.9659996  39.5769997  36.4140015  56.9920006  41.3250008
  37.3820000  56.4720001  41.5029984  36.6479988  58.0699997  41.0429993
  35.4799995  57.1329994  42.5079994  34.4589996  57.0569992  42.1220016
  35.6819992  56.2770004  43.1679993  35.5390015  58.3899994  43.4459991
  36.5169983  58.5890007  43.9449997  35.4869995  59.2099991  42.7719994
  34.3219986  58.3889999  44.2849998  33.4679985  58.0089989  43.7939987
  34.3959999  57.7210007  45.0499992  34.1170006  59.2869987  44.6080017
  33.5709991  54.8219986  39.7799988  32.5950012  55.1679993  40.5169983
  33.4360008  54.2560005  38.5629997  34.2789993  53.8899994  38.1469994
  32.1419983  53.9469986  37.9679985  31.5489998  54.8860016  37.8380013
  32.2159996  53.5089989  36.4729996  32.9690018  52.6720009  36.4300003
  31.2880001  53.2649994  36.0940018  32.8129997  54.6419983  35.5480003
  32.0579987  55.2490005  35.1650009  33.5079994  55.2529984  36.1209984
  33.6819992  53.9990005  34.0730019  34.2490005  55.6430016  33.3390007
  34.6949997  56.1500015  34.1399994  34.8839989  55.4840012  32.5289993
  33.3590012  56.2159996  33.0610008  31.1949997  53.0309982  38.8310013
  30.0100002  53.2949982  38.8849983  31.7390003  51.9920006  39.4440002
  32.7070007  51.8419991  39.1409988  31.1609993  51.1310005  40.4889984
  30.1569996  50.8380013  40.2350006  32.1180000  49.9539986  40.7319984
  33.0620003  50.3139992  40.9850006  31.7950001  49.4220009  41.6329994
  32.0849991  48.8810005  39.6230011  32.3419991  49.3050003  38.6500015
  33.1199989  47.7709999  39.9249992  33.1990013  47.0830002  39.0499992
  33.9920006  48.4410019  40.0320015  32.8569984  47.3750000  40.8289986
  30.6980000  48.2000008  39.5419998  29.9909992  48.9179993  39.0909996
  30.6040001  47.3810005  38.7999992  30.3899994  47.8670006  40.5110016
  30.9549999  51.9319992  41.7659988  29.8400002  52.2179985  42.2060013
  32.0400009  52.5159988  42.3359985  32.9720001  52.2089996  42.1459999
  31.9930000  53.1290016  43.6489983  31.6459999  52.3670006  44.3149986
  33.4459991  53.5279999  43.9809990  34.1500015  52.6940002  43.8849983
  33.8429985  54.1959991  43.2089996  33.6310005  54.1669998  45.3569984
  33.0540009  55.1640015  45.4930000  33.1440010  53.0999985  46.2929993
  33.3289986  52.0890007  45.9690018  33.7070007  53.1049995  47.2869987
  32.0789986  53.2220001  46.4519997  35.1430016  54.3349991  45.6069984
  35.5480003  54.9739990  44.8149986  35.3240013  54.8540001  46.5050011
  35.6510010  53.4249992  45.5760002  31.0000000  54.3289986  43.8230019
  30.3220005  54.4000015  44.8750000  30.7849998  55.1529999  42.8050003
  31.4080009  55.1240005  42.0029984  29.7420006  56.2439995  42.8190002
  30.0750008  56.7799988  43.7200012  29.8719997  57.2220001  41.6920013
  29.8840008  56.6829987  40.7480011  29.1030006  58.0439987  41.7190018
  31.1480007  58.0680008  41.7190018  32.0149994  58.0159988  42.6150017
  31.2880001  58.8800011  40.7739983  28.3199997  55.7350006  43.0569992
  27.3360004  56.5120010  43.4459991  28.0879993  54.4160004  42.8950005
  28.8570004  53.7529984  42.6450005  26.7639999  53.8009987  42.9449997
  26.0020008  54.6119995  43.1749992  26.5090008  53.2080002  41.5169983
  27.3369999  52.5340004  41.1920013  25.5450001  52.6370010  41.5740013
  26.4270000  54.3899994  40.5110016  25.4750004  55.0999985  40.4959984
  27.3770008  54.5970001  39.5789986  27.1800003  55.3180008  38.8959999
  28.2320004  54.1059990  39.4070015  26.6229992  52.7929993  44.1500015
  25.6310005  52.0970001  44.2770004  27.5890007  52.7900009  45.0620003
  28.2970009  53.5040016  45.0480003  27.6860008  51.8429985  46.1409988
  26.9349995  51.0569992  46.0180016  29.0540009  51.0620003  46.0680008
  29.8500004  51.8069992  46.0820007  29.2740002  50.1809998  47.3499985
  29.0079994  50.6730003  48.2500000  28.5890007  49.2779999  47.2690010
  30.3260002  49.7719994  47.4080009  29.3230000  50.1030006  44.8899994
  28.6639996  49.3120003  45.0890007  28.8470001  50.7000008  44.0719986
  30.7369995  49.6910019  44.5890007  30.7719994  49.4819984  43.5390015
  31.4099998  50.4959984  44.8600006  31.0839996  48.8030014  45.0909996
  27.5030003  52.7280006  47.3870010  28.3640003  53.0000000  48.1920013
  26.3239994  53.3330002  47.3779984  25.7759991  53.2919998  46.5330009
  26.0680008  54.3989983  48.3639984  26.9860001  55.0410004  48.3190002
  24.8419991  55.2050018  47.8689995  23.9610004  54.5929985  47.8339996
  24.5830002  56.0219994  48.5740013  25.1669998  55.6739998  46.5349998
  24.6569996  55.0289993  45.6839981  26.1350002  56.5680008  46.3680000
  26.3549995  56.8300018  45.4249992  26.4570007  57.0950012  47.1520004
  25.8670006  53.9459991  49.8209991  25.4500008  52.8370018  50.1290016
  26.2360001  54.8050003  50.7649994  26.3360004  55.7729988  50.5660019
  25.9279995  54.4939995  52.1990013  26.2159996  53.4930000  52.4790001
  26.7520008  55.3829994  53.0820007  26.8470001  54.9319992  54.0769997
  28.2210007  55.6220016  52.5839996  28.5259991  54.7360001  52.0559998
  28.1660004  56.5250015  51.9440002  28.8910007  55.6489983  53.4249992
  26.1550007  56.6520004  53.3129997  25.8689995  56.6609993  54.2410011
  24.4419994  54.4379997  52.5589981  23.5839996  54.9389992  51.8359985
  23.9950008  53.7490005  53.6380005  24.8719997  53.0320015  54.5359993
  25.4580002  53.6749992  55.1479988  25.5470009  52.3600006  53.9690018
  23.8980007  52.2649994  55.3829994  24.1940002  52.0639992  56.4309998
  23.8120003  51.3110008  54.8549995  22.5790005  53.0470009  55.4169998
  22.6779995  53.8569984  56.1599998  21.6590004  52.4109993  55.6189995
  22.5939999  53.7630005  54.1020012  21.9440002  53.1529999  53.4990005
  21.8640003  55.1469994  54.1409988  20.6739998  55.2190018  53.7140007
  22.6499996  56.1500015  54.5830002  23.6110001  55.9690018  54.6500015
  22.2089996  57.5919991  54.6199989  21.2350006  57.6930008  55.0660019
  23.1539993  58.2849998  55.6230011  24.0639992  58.6110001  55.1619987
  22.6980000  59.2229996  55.8820000  23.3959999  57.5000000  56.9620018
  23.5699997  58.2439995  57.8040009  22.3710003  57.0429993  57.2659988
  24.5359993  56.4830017  56.8779984  25.4090004  56.4650002  55.9589996
  24.7059994  55.6389999  57.8230019  22.2700005  58.3279991  53.2459984
  21.9930000  59.5029984  53.0779991  22.7919998  57.6119995  52.2010002
  23.0779991  56.6450005  52.4840012  22.7709999  57.9230003  50.7779999
  22.5520000  57.0250015  50.2669983  21.9440002  58.5600014  50.5839996
  24.1089993  58.4129982  50.1780014  24.2290001  58.8190002  49.0209999
  25.1830006  58.3040009  50.9370003  25.2590008  57.6059990  51.7470016
  26.4659996  59.0989990  50.6349983  26.1259995  60.0029984  50.2039986
  27.2360001  59.4179993  51.9659996  27.5370007  58.5159988  52.5009995
  28.6299992  60.0579987  51.6879997  29.1669998  59.5550003  50.9319992
  28.3540001  61.0660019  51.3230019  29.2500000  60.1290016  52.5909996
  26.3750000  60.2910004  52.8349991  26.5020008  61.3769989  52.4770012
  25.3169994  60.1609993  52.5709991  26.7730007  60.1699982  54.3240013
  26.6219997  59.1599998  54.4469986  27.8169994  60.4449997  54.5060005
  26.1660004  60.6819992  55.0190010  27.2250004  58.4189987  49.4329987
  27.1049995  57.1959991  49.1910019  28.0599995  59.2099991  48.7529984
  28.0470009  60.2529984  48.9370003  29.0799999  58.6780014  47.8040009
  28.6879997  57.7859993  47.3909988  29.1650009  59.7280006  46.7210007
  29.5179996  60.6629982  47.1510010  30.1879997  59.1640015  45.6110001
  30.0979996  59.6720009  44.6409988  31.2080002  59.3950005  45.9129982
  30.0699997  58.1489983  45.4239998  27.8460007  59.9809990  45.9710007
  27.5279999  59.1059990  45.3240013  26.9740009  60.2519989  46.6170006
  27.9099998  61.2210007  45.0909996  27.0809994  61.2599983  44.4329987
  27.9899998  62.1049995  45.7319984  28.8419991  61.3120003  44.5789986
  30.4750004  58.5270004  48.5029984  31.0160007  59.4879990  49.0029984
  30.9720001  57.3370018  48.6469994  30.2199993  56.1489983  48.6469994
  29.9009991  55.8759995  47.6660004  29.3199997  56.2179985  49.2010002
  31.1240005  55.0989990  49.2019997  31.0030003  54.0600014  48.7939987
  30.9370003  54.9620018  50.2739983  32.5589981  55.5919991  49.0449982
  32.9679985  55.1790009  48.1269989  33.1959991  55.1609993  49.7949982
  32.3540001  57.1250000  49.0979996  32.3580017  57.5460014  50.1409988
  33.4319992  57.7999992  48.1580009  33.3209991  57.7560005  46.9039993
  34.4640007  58.1879997  48.8370018  34.4049988  58.2319984  49.8530006
  35.8100014  58.3849983  48.2389984  35.6539993  58.6980019  47.2179985
  36.6870003  59.3759995  48.9930000  37.6469994  59.5489998  48.4490013
  36.2280006  60.3489990  48.8979988  36.8940010  59.1049995  50.3240013
  36.0289993  58.9659996  50.7690010  36.5680008  57.0559998  48.1259995
  36.3619995  56.1640015  49.0559998  37.5190010  56.8909988  47.1559982
  37.6619987  57.5400009  46.3829994  38.3709984  55.7360001  47.2089996
  37.8279991  54.7760010  47.1110001  39.3790016  55.7789993  46.0499992
  39.8120003  56.7900009  46.0369987  40.0950012  54.9160004  46.1049995
  38.4920006  55.6150017  44.8349991  37.7229996  54.8720016  45.0400009
  37.9650002  56.5359993  44.6599998  39.4269981  55.1479988  43.3549995
  40.6450005  56.5330009  43.3300018  40.1389999  57.4900017  43.3180008
  41.1809998  56.4889984  44.2809982  41.3110008  56.2869987  42.4650002
  39.1679993  55.7249985  48.5810013  39.3149986  56.7729988  49.2400017
  39.6310005  54.5480003  48.9739990  39.6419983  53.7070007  48.3860016
  40.4840012  54.5079994  50.2039986  40.0400009  54.8880005  51.1599998
  40.7519989  53.0130005  50.4930000  39.8030014  52.5779991  50.7770004
  41.0289993  52.5540009  49.5419998  41.8530006  52.6660004  51.4259987
  41.8370018  52.9290009  52.7869987  41.0169983  53.5180016  53.1469994
  42.8810005  52.5070000  53.6069984  42.7680016  52.9109993  54.6510010
  43.9410019  51.7179985  53.1529999  44.7299995  51.3199997  53.7910004
  43.9129982  51.3370018  51.8240013  44.6279984  50.6879997  51.3320007
  42.9039993  51.8650017  50.9749985  42.9910011  51.7089996  49.9169998
  41.8470001  55.3409996  50.0880013  42.3429985  55.5540009  48.9440002
  42.2490005  55.9840012  51.1679993  41.6310005  55.8100014  51.9609985
  43.3689995  57.0130005  51.1980019  42.9720001  57.9780006  50.9539986
  43.8629990  56.9959984  52.7000008  43.0239983  57.4339981  53.3320007
  44.0709991  56.0120010  53.0639992  45.0079994  57.8660011  52.9480019
  45.8639984  57.6739998  52.2900009  44.7109985  58.8709984  52.7239990
  45.4599991  57.9869995  54.3940010  46.2150002  58.9399986  54.6220016
  45.1920013  57.0800018  55.2410011  44.5330009  56.7989998  50.2080002
  44.9230003  57.8009987  49.5639992  45.3230019  55.6710014  50.1749992
  44.9990005  54.3540001  50.7210007  44.2739983  53.9109993  50.0950012
  44.8600006  54.4930000  51.7970009  46.2410011  53.5040016  50.4840012
  45.9690018  52.7799988  49.7290001  46.7190018  53.0449982  51.3860016
  47.2709999  54.3689995  49.8009987  47.7630005  53.8009987  49.0400009
  48.0429993  54.7360001  50.5410004  46.4990005  55.5750008  49.3009987
  47.0610008  56.4790001  49.4720001  46.1269989  55.3520012  47.8289986
  47.0589981  55.3870010  47.0229988  44.8769989  55.1290016  47.4889984
  44.1980019  55.0680008  48.2200012  44.3639984  54.8260002  46.1110001
  45.1710014  54.4379997  45.3800011  43.3590012  53.7220001  46.2330017
  42.6230011  53.9939995  46.9949989  42.9119987  53.6520004  45.2639999
  44.0499992  52.4640007  46.6059990  44.9589996  52.2500000  45.9420013
  44.4350014  52.5820007  47.5870018  43.1209984  51.2630005  46.5940018
  43.5929985  50.1899986  46.0649986  42.0579987  51.3009987  47.2470016
  43.7260017  56.1269989  45.5120010  43.5019989  56.1250000  44.3059998
  43.5000000  57.1749992  46.3590012  43.6879997  57.0200005  47.4029999
  42.9630013  58.4570007  45.9360008  42.0359993  58.2999992  45.4230003
  42.6469994  59.3899994  47.1279984  43.4620018  59.4729996  47.7709999
  42.3540001  60.4049988  46.8089981  41.4809990  58.8289986  47.9500008
  40.6320000  58.7729988  47.2900009  41.6650009  57.8880005  48.5200005
  41.1839981  59.7770004  49.0410004  42.1269989  60.0149994  49.5279999
  40.7649994  60.7519989  48.5960007  40.2459984  59.2159996  50.0600014
  39.4560013  58.7350006  49.7210007  40.2639999  59.2150002  51.3489990
  41.1310005  59.7500000  52.1749992  41.7570000  60.4239998  51.8079987
  41.1329994  59.4319992  53.1559982  39.3769989  58.6259995  52.0489998
  38.5099983  58.2649994  51.6110001  39.3680000  58.7309990  53.1030006
  43.8950005  59.1199989  44.8670006  45.0970001  58.9850006  44.9090004
  43.3219986  59.9939995  44.0159988  42.4109993  60.3089981  44.2519989
  44.0070000  60.8839989  43.0629997  43.2599983  61.3019981  42.4630013
  44.7120018  62.1329994  43.6189995  45.7190018  61.9000015  44.0079994
  44.8580017  62.7900009  42.7890015  43.8940010  62.9710007  44.5730019
  43.9029999  62.4560013  45.5219994  44.3260002  63.9780006  44.6920013
  42.4179993  63.0309982  44.2140007  42.1759987  63.7309990  43.1829987
  41.5750008  62.4080009  44.9029999  44.8810005  60.1469994  41.9939995
  45.5190010  60.7779999  41.1310005  44.8810005  58.8219986  41.9029999
  44.4389992  58.2459984  42.6459999  45.3460007  58.0800018  40.7260017
  46.4280014  58.2849998  40.5820007  45.3460007  56.5379982  41.0309982
  44.2210007  56.2729988  41.1419983  45.8269997  56.1139984  40.1590004
  46.1749992  56.0209999  42.2840004  47.2070007  56.3720016  42.1520004
  45.6780014  56.5610008  43.0600014  46.4739990  54.5470009  42.4410019
  47.3100014  54.4169998  43.2150002  45.4830017  54.0639992  42.7120018
  46.9949989  54.0099983  41.1160011  46.2470016  54.1049995  40.2890015
  47.8829994  54.5690002  40.8100014  47.4560013  52.6310005  41.1329994
  47.6790009  52.2150002  40.2350006  48.3569984  52.5050011  41.6020012
  46.8149986  51.9679985  41.5309982  44.7070007  58.4080009  39.4300003
  45.1220016  58.0359993  38.3260002  43.5250015  59.0530014  39.5060005
  43.0289993  59.0040016  40.3800011  42.6189995  59.3979988  38.4049988
  43.1829987  59.4700012  37.5760002  41.5229988  58.3540001  38.1259995
  40.8030014  58.8540001  37.5180016  42.2029991  57.1839981  37.2949982
  42.7770004  56.6800003  38.0229988  41.3769989  56.6290016  36.8699989
  42.7550011  57.5309982  36.4169998  40.7970009  57.8639984  39.4399986
  40.0880013  57.1020012  39.1259995  41.4720001  57.5699997  40.2299995
  40.0600014  58.6209984  39.7039986  41.9659996  60.7719994  38.6440010
  41.4609985  61.0060005  39.7610016  41.8129997  61.6240005  37.5810013
  42.4319992  61.5349998  36.8209991  41.0519981  62.8909988  37.4690018
  41.1180000  63.4830017  38.3899994  41.7649994  63.6769981  36.3619995
  42.8089981  63.6269989  36.6790009  41.5750008  63.1800003  35.3989983
  41.2449989  65.1320038  36.3269997  40.0760002  65.4589996  36.6839981
  42.0000000  66.0019989  35.8639984  39.5579987  62.6010017  37.1139984
  38.9980011  62.8930016  36.0830002  39.0040016  61.7960014  38.0139999
  39.5979996  61.5649986  38.7639999  37.7369995  61.0690002  37.8190002
  38.0009995  60.1800003  37.1129990  37.4010010  60.3959999  39.1250000
  37.8810005  59.4179993  39.2330017  37.7449989  61.0089989  40.0050011
  36.3170013  60.2080002  39.1959991  36.5110016  61.8030014  37.1850014
  36.1969986  61.4510002  36.0260010  35.8429985  62.7589989  37.7239990
  35.1080017  63.1409988  37.1010017  35.9790001  63.3460007  39.0690002
  37.0169983  63.2620010  39.4679985  35.6570015  64.8379974  39.0239983
  34.7470016  64.8870010  38.4000015  35.3820000  65.5500031  40.3689995
  36.2089996  65.5879974  41.0620003  35.0670013  66.5540009  40.2210007
  34.5480003  65.0699997  40.8899994  36.8110008  65.5729980  38.1870003
  37.5820007  65.7300034  38.8969994  37.1489983  64.8570023  37.4049988
  36.4140015  66.9250031  37.5769997  35.6339989  66.7419968  36.8349991
  35.9760017  67.5360031  38.3880005  37.1669998  67.4369965  37.0320015
  35.1430016  62.5089989  40.0820007  34.2109985  61.8460007  39.7200012
  35.3660011  62.7430000  41.3709984  36.1300011  63.4039993  41.6300011
  34.6839981  62.1399994  42.5340004  34.7700005  61.0579987  42.5639992
  35.5559998  62.5750008  43.7340012  36.5079994  62.1800003  43.4160004
  35.6399994  63.6739998  43.7179985  35.1440010  62.0369987  45.0760002
  34.3899994  61.0750008  45.1469994  35.6399994  62.6450005  46.0460014
  33.1739998  62.4510002  42.5690002  32.8079987  63.6730003  42.7169991
  32.3540001  61.3610001  42.4869995  32.6629982  60.4249992  42.2680016
  30.8880005  61.6080017  42.3440018  30.3439999  60.6650009  42.6469994
  30.6189995  62.4589996  42.9560013  30.3659992  61.8950005  40.9420013
  29.2310009  62.1430016  40.7350006  31.2129993  61.8639984  39.8969994
  32.1279984  61.6329994  40.0779991  30.9810009  62.0489998  38.4879990
  30.5100002  63.1030006  38.4440002  32.2270012  62.2410011  37.6430016
  32.7900009  63.0260010  37.9939995  32.7970009  61.3549995  37.7709999
  31.9769993  62.4560013  36.1389999  31.6509991  61.5130005  35.7729988
  31.2019997  63.1720009  35.9910011  33.2389984  62.8870010  35.3520012
  33.3359985  62.5400009  34.1529999  34.0219994  63.7470016  35.8610001
  30.1070004  60.9389992  37.9239998  29.2539997  61.2789993  37.1650009
  30.1310005  59.6769981  38.3520012  30.7430000  59.3940010  39.1399994
  29.3889999  58.5499992  37.7270012  29.0720005  58.7239990  36.7070007
  30.3910007  57.4259987  37.5390015  30.7719994  57.1110001  38.4939995
  29.8290005  56.5919991  37.0369987  31.6599998  57.8390007  36.7280006
  31.6790009  57.9599991  35.3240013  30.8479996  57.6170006  34.8149986
  32.8100014  58.5079994  34.6980019  32.9659996  58.6730003  33.6240005
  33.8940010  58.9189987  35.4990005  34.8300018  59.6189995  34.9020004
  35.1689987  60.3720016  35.3909988  33.8460007  58.8100014  36.8650017
  34.6689987  59.1660004  37.4690018  32.7410011  58.2169991  37.4949989
  32.7050018  58.1829987  38.6030006  28.1030006  58.0760002  38.5079994
  27.5119991  57.0419998  38.2389984  27.7140007  58.7830009  39.5849991
  28.2010002  59.6899986  39.6469994  26.4249992  58.4720001  40.3300018
  26.6089993  57.3969994  40.6329994  26.2339993  59.2179985  41.6580009
  27.0809994  59.0050011  42.3149986  26.2000008  60.2989998  41.6559982
  24.9270000  58.7719994  42.3569984  24.0750008  59.2639999  41.9290009
  24.7749996  57.7010002  42.2659988  24.9130001  59.0740013  43.8450012
  25.8160000  58.5530014  44.2350006  24.9290009  60.1199989  43.9119987
  23.7570000  58.5940018  44.5670013  23.1469994  58.0429993  43.9620018
  23.3460007  58.8709984  45.7770004  23.7830009  59.8959999  46.4749985
  24.1709995  60.6809998  45.9410019  23.7339993  60.0999985  47.4809990
  22.4029999  58.1020012  46.3260002  22.1229992  57.3230019  45.7319984
  22.1399994  58.2739983  47.2639999  25.2460003  58.5000000  39.3930016
  24.8250008  59.5769997  38.9000015  24.5450001  57.3740005  39.2000008
  25.1070004  56.6030006  39.6329994  23.4519997  57.1259995  38.2410011
  23.5249996  57.8590012  37.4669991  23.5009995  55.7070007  37.6170006
  23.4950008  55.0569992  38.5169983  22.5370007  55.5690002  37.1440010
  24.5860004  55.4080009  36.5880013  25.5440006  55.9160004  36.9090004
  24.8400002  53.8820000  36.4179993  25.3169994  53.6640015  35.4480019
  25.4699993  53.5449982  37.1969986  23.8239994  53.4059982  36.4399986
  24.3040009  55.8300018  35.2050018  24.4459991  56.9140015  35.2099991
  24.9629993  55.4529991  34.4319992  23.3069992  55.4939995  34.9070015
  22.1180000  57.3820000  38.9930000  21.8680000  56.9379997  40.1170006
  21.3540001  58.3209991  38.4280014  21.6630001  58.7480011  37.6090012
  20.0429993  58.6829987  39.0180016  20.1189995  58.4869995  40.1119995
  19.7159996  60.1710014  38.8489990  19.6189995  60.2859993  37.7900009
  18.7880001  60.4850006  39.3660011  20.7229996  61.1110001  39.5390015
  20.2830009  62.1440010  39.4760017  20.8250008  60.7849998  40.5999985
  22.1369991  61.1870003  38.9679985  22.6860008  60.2770004  39.3120003
  22.0540009  61.3440018  37.8870010  22.9519997  62.2690010  39.4099998
  22.8160000  62.3870010  40.3839989  23.8419991  63.0340004  38.8419991
  24.0709991  62.9640007  37.5649986  23.6959991  62.1240005  37.1030006
  24.8910007  63.4889984  37.1990013  24.6499996  63.8180008  39.4210014
  24.4920006  63.9869995  40.4059982  25.3990002  64.2070007  38.8499985
  18.8689995  57.8479996  38.5390015  18.6800003  57.5639992  37.3899994
  18.1009998  57.3720016  39.5000000  18.2119999  57.6570015  40.4650002
  16.9410000  56.4669991  39.2739983  16.3530006  56.5149994  40.2220001
  16.3260002  56.9679985  38.4939995  17.2509995  55.0209999  38.8279991
  18.3069992  54.4910011  39.0929985  16.3129997  54.4210014  38.0589981
  15.4580002  54.9230003  37.8289986  16.3959999  53.0000000  37.6139984
  16.6439991  52.5369987  38.6049995  14.9189997  52.6090012  37.1699982
  14.5710001  53.3629990  36.4889984  15.1840000  51.7290001  36.6430016
  13.9750004  52.3170013  38.3019981  13.5749998  53.3170013  38.6119995
  13.1560001  51.6199989  37.9189987  14.5579996  51.5779991  39.5400009
  15.0950003  50.4930000  39.4169998  14.5089998  52.0709991  40.6809998
  17.5279999  52.5070000  36.7099991  17.8579998  51.3180008  36.4690018
  18.1940002  53.5299988  36.0870018  17.8110008  54.4809990  36.0320015
  19.4699993  53.3300018  35.4430008  19.1879997  52.7980003  34.5209999
  19.9930000  54.7060013  35.0040016  20.4330006  55.1640015  35.9189987
  20.8430004  54.4809990  34.2929993  19.3309994  55.3089981  34.4389992
  20.5830002  52.4939995  36.2490005  21.3069992  51.6469994  35.7529984
  20.6879997  52.7420006  37.5750008  20.1499996  53.4659996  37.9990005
  21.5529995  51.9000015  38.4529991  22.5760002  52.0169983  38.1069984
  21.4930000  52.5040016  39.8800011  21.7420006  53.5699997  39.8959999
  20.5130005  52.4819984  40.3300018  22.3460007  51.7919998  40.8520012
  22.0440006  50.7029991  40.7649994  23.3980007  51.9290009  40.5540009
  22.1660004  52.3390007  42.2949982  22.3939991  53.3849983  42.4490013
  21.0909996  52.2190018  42.5620003  23.0030003  51.5649986  43.2439995
  23.9990005  51.7000008  43.1090012  22.5049992  50.9599991  44.3100014
  21.2579994  50.6500015  44.4749985  20.5660000  50.8870010  43.7379990
  20.9039993  50.1320000  45.2630005  23.3659992  50.4760017  45.1049995
  24.2910004  50.8380013  45.0260010  23.1469994  50.0540009  45.9399986
  21.1110001  50.4189987  38.4230003  21.8969994  49.5289993  38.4399986
  19.8010006  50.2200012  38.3569984  19.1900005  51.0620003  38.2360001
  19.2660007  48.8260002  38.2659988  19.7409992  48.2500000  39.0690002
  17.7490005  48.8639984  38.6150017  17.2520008  49.2319984  37.7000008
  17.1889992  47.4300003  38.9099998  16.1639996  47.5120010  39.2750015
  17.1509991  46.7599983  38.0279999  17.7430000  46.8610001  39.6279984
  17.5109997  49.7490005  39.6669998  16.5429993  49.9609985  39.5820007
  19.4909992  48.1469994  36.8629990  19.9090004  46.9309998  36.7770004
  19.2520008  48.9129982  35.7900009  18.7479992  49.8610001  35.8899994
  19.7460003  48.6139984  34.4000015  19.2959995  47.6870003  34.1839981
  19.3129997  49.7770004  33.5060005  20.1049995  50.4729996  33.6640015
  19.4880009  49.2680016  32.1080017  20.5939999  49.2220001  31.9669991
  18.9120007  48.2900009  31.9419994  19.1049995  50.0460014  31.4850006
  17.9979992  50.3009987  33.5950012  17.4440002  49.5979996  33.8969994
  21.3160000  48.4910011  34.3419991  21.7759991  47.6339989  33.5789986
  22.0820007  49.0940018  35.2620010  21.6599998  49.8829994  35.7060013
  23.5300007  48.9799995  35.2529984  23.9930000  48.9290009  34.2130013
  24.0660000  50.1829987  36.0219994  23.8269997  50.9869995  35.2970009
  23.5470009  50.4119987  36.9650002  25.5450001  50.3009987  36.2229996
  26.4239998  50.1230011  35.1650009  26.0489998  49.8619995  34.1769981
  27.8449993  50.2649994  35.3129997  28.4160004  50.0709991  34.4020004
  28.3409996  50.7420006  36.5460014  29.4090004  50.9039993  36.6829987
  27.4279995  50.9900017  37.6059990  27.9020004  51.2659988  38.5099983
  26.0650005  50.7799988  37.4080009  25.4370003  51.0509987  38.2649994
  24.0100002  47.6139984  35.8660011  24.8729992  46.9500008  35.2669983
  23.3180008  47.0499992  36.9199982  22.6329994  47.6450005  37.3660011
  23.5100002  45.6059990  37.2919998  24.5529995  45.3800011  37.4710007
  22.7919998  45.3009987  38.6570015  21.7590008  44.9010010  38.4220009
  23.5130005  44.1279984  39.2719994  24.4759998  44.2970009  39.7680016
  22.8209991  43.6030006  39.9749985  23.6809998  43.3889999  38.4550018
  22.6560001  46.4109993  39.7509995  23.6399994  46.8450012  39.9140015
  22.0090008  47.1920013  39.3699989  22.3740005  46.0390015  40.6870003
  23.0580006  44.5730019  36.2350006  23.8729992  43.7410011  35.8709984
  21.8640003  44.6829987  35.6780014  21.2579994  45.4560013  35.9589996
  21.5090008  43.9039993  34.5029984  21.5079994  42.8790016  34.7820015
  20.1040001  44.3219986  33.9309998  20.1550007  45.3180008  33.6829987
  19.8279991  43.7179985  33.0849991  19.0279999  44.1240005  34.9449997
  19.2159996  43.2630005  35.8250008  17.9869995  44.7750015  34.8759995
  22.5259991  43.9119987  33.3050003  22.7830009  42.7980003  32.8079987
  22.9599991  45.0929985  32.8590012  22.5939999  45.9519997  33.3050003
  23.9050007  45.2630005  31.7019997  23.4610004  44.6829987  30.8899994
  24.0489998  46.7270012  31.2749996  24.2940006  47.2000008  32.3100014
  24.8710003  46.7210007  30.4759998  22.8139992  47.4070015  30.5799999
  21.8509998  47.2830009  31.1289997  23.1569996  48.8750000  30.3560009
  24.0410004  48.9860001  29.6350002  22.2310009  49.5379982  30.0839996
  23.4589996  49.3499985  31.2490005  22.6000004  46.8530006  29.0930004
  21.5790005  46.9959984  28.6849995  23.2889996  47.2669983  28.4279995
  22.7989998  45.7879982  29.0559998  25.2259998  44.4889984  31.9960003
  25.8169994  43.8120003  31.1410007  25.7049999  44.6450005  33.2760010
  25.2940006  45.3549995  33.9370003  26.9169998  43.9160004  33.7910004
  27.7199993  43.8510017  33.0730019  27.4680004  44.5900002  35.0180016
  26.6779995  44.7459984  35.8129997  28.1609993  43.8769989  35.4910011
  28.2709999  45.9379997  34.7290001  28.9309998  45.7939987  33.8590012
  27.6340008  46.7490005  34.4399986  29.2929993  46.6539993  36.0470009
  27.9309998  47.1529999  37.1739998  27.1709995  47.6769981  36.5569992
  27.4780006  46.2820015  37.5760002  28.3379993  47.7719994  37.9469986
  26.6469994  42.3680000  33.9480019  27.5100002  41.5000000  33.7729988
  25.5429993  41.9710007  34.5690002  24.9909992  42.7540016  34.9729996
  25.3040009  40.6320000  35.1790009  26.2679996  40.1110001  35.3769989
  24.6520004  40.9550018  36.5099983  25.0499992  41.7859993  37.0579987
  23.6590004  41.2480011  36.2490005  24.5259991  39.8139992  37.4510002
  23.6889992  40.0830002  38.1440010  24.2570000  38.8520012  36.8989983
  25.7660007  39.6520004  38.3569984  25.9659996  40.6339989  38.7700005
  25.5639992  38.8660011  39.1240005  26.9519997  39.2570000  37.4589996
  26.6919994  38.8600006  36.5989990  28.2749996  39.3170013  37.7400017
  29.1779995  38.9199982  36.8440018  28.9699993  38.7280006  35.8699989
  30.1410007  38.6469994  37.1230011  28.6130009  39.5890007  38.9440002
  27.8579998  39.7879982  39.6069984  29.5769997  39.7060013  39.2350006
  24.5790005  39.6629982  34.2159996  25.0020008  38.5219994  34.0769997
  23.4640007  40.1320000  33.6349983  23.2240009  41.1139984  33.8310013
  22.6429996  39.3889999  32.6730003  22.7950001  38.3300018  32.8460007
  21.1980000  39.8069992  32.8860016  21.0459995  40.8829994  32.6469994
  20.5189991  39.1250000  32.2939987  20.8160000  39.6910019  34.4099998
  21.2490005  38.7529984  34.7579994  21.2810001  40.4650002  34.9010010
  19.2679996  39.7019997  34.7220001  18.8579998  38.9529991  34.1710014
  18.9950008  39.5190010  35.7560005  18.6639996  40.9589996  34.3479996
  18.8850002  41.7159996  34.9830017  17.6329994  41.1599998  33.5839996
  17.1730003  40.2379990  32.8790016  17.4899998  39.2540016  33.0460014
  16.6469994  40.4389992  32.0589981  17.0170002  42.3190002  33.5900002
  17.2500000  43.1349983  34.2130013  16.3020000  42.5800018  32.8590012
  23.1429996  39.7050018  31.2040005  23.0900002  38.8160019  30.3640003
  23.6569996  40.8919983  30.8729992  23.4209995  41.5740013  31.5960007
  24.3689995  41.2910004  29.6149998  23.9060001  40.7130013  28.7840004
  24.3220005  42.3810005  29.4860001  25.8490009  40.9449997  29.4589996
  26.4430008  40.8930016  28.3929996  26.5340004  40.6150017  30.5690002
  26.0629997  40.6180000  31.4619999  27.9920006  40.3400002  30.6940002
  28.2670002  40.2190018  31.7619991  28.3689995  38.9799995  30.2360001
  28.3490009  38.8540001  29.1889992  29.3950005  38.8129997  30.4039993
  27.5680008  37.8540001  30.8269997  26.9990005  36.9790001  30.1070004
  27.6049995  37.7789993  32.0779991  28.9200001  41.4539986  30.2450008
  30.1200008  41.2519989  30.0979996  28.4729996  42.7050018  30.1930008
  27.4890003  42.8619995  30.3719997  29.2600002  43.8160019  29.7049999
  29.8260002  43.4700012  28.8180008  28.4780006  44.9860001  29.1499996
  28.0070000  45.4720001  30.0270004  29.1650009  45.7470016  28.7840004
  27.3090000  44.5750008  28.1580009  26.6030006  43.9620018  28.6889992
  26.5090008  45.5569992  27.4069996  25.7830009  45.0439987  26.7830009
  25.9480000  46.1790009  28.1639996  27.0919991  46.2410011  26.8010006
  27.9130001  43.7220001  27.1219997  28.3409996  42.8279991  27.5079994
  27.0699997  43.4119987  26.4820004  28.6679993  44.2789993  26.5660000
  30.4319992  44.2910004  30.6660004  30.1919994  44.3260002  31.8640003
  31.5599995  44.8149986  30.1730003  32.0760002  44.7019997  28.7570000
  31.6739998  45.5149994  28.1320000  32.0460014  43.7019997  28.3360004
  33.5670013  44.9080009  28.9200001  33.9319992  45.4379997  28.0300007
  34.0950012  43.8940010  29.0240002  33.8660011  45.7599983  30.1490002
  33.8240013  46.7779999  29.8379993  34.8940010  45.5470009  30.5739994
  32.5260010  45.6129990  30.9190006  32.8139992  45.0449982  31.7679996
  31.9599991  47.0190010  31.3409996  31.0779991  47.5880013  30.6760006
  32.5989990  47.5610008  32.4570007  33.4889984  47.1419983  32.8300018
  31.9699993  48.6409988  33.2070007  30.9610004  48.3860016  33.5589981
  32.7270012  48.9679985  34.4790001  33.7649994  49.0810013  34.2989998
  32.0740013  50.1380005  35.2010002  31.0370007  49.8810005  35.3030014
  32.3180008  50.2099991  36.2350006  32.2849998  51.1640015  34.8559990
  32.8320007  47.7999992  35.4090004  33.1230011  46.8800011  34.8919983
  33.5779991  48.0509987  36.1839981  31.8619995  47.5909996  35.8950005
  31.8419991  49.9029999  32.3479996  30.8059998  50.5050011  32.3339996
  32.9119987  50.4099998  31.7579994  33.8310013  49.9189987  31.9150009
  32.9319992  51.5340004  30.8509998  32.7599983  52.4490013  31.4430008
  34.3650017  51.7439995  30.2980003  34.9469986  52.0029984  31.1669998
  34.7879982  50.8330002  29.8610001  34.4339981  52.8310013  29.2509995
  34.7949982  54.1329994  29.6030006  34.9490013  54.4420013  30.6749992
  34.5029984  54.9389992  28.5389996  34.4770012  55.9370003  28.6679993
  34.1279984  54.1899986  27.4869995  33.5909996  54.5929985  26.2290001
  33.6110001  55.6059990  25.9480000  33.1910019  53.5620003  25.3239994
  33.0769997  53.8040009  24.2630005  33.1559982  52.2130013  25.7229996
  32.9840012  51.5110016  24.9239998  33.5489998  51.8300018  27.0249996
  33.5639992  50.8300018  27.3619995  33.9879990  52.8370018  27.8929996
  31.8820000  51.5540009  29.7649994  31.1879997  52.5789986  29.6299992
  31.5699997  50.4519997  29.0730000  31.8589993  49.4819984  29.4039993
  30.5139999  50.4039993  28.0470009  30.5119991  51.3330002  27.4640007
  30.7910004  49.1669998  27.1660004  31.7040005  49.2669983  26.5669994
  30.9389992  48.3520012  27.9190006  29.6690006  48.6679993  26.2830009
  28.7070007  48.6910019  26.7749996  29.5809994  49.4700012  25.0310001
  28.6469994  49.1409988  24.5279999  29.5419998  50.5320015  25.2460003
  30.4839993  49.2220001  24.3969994  29.9150009  47.2280006  26.0629997
  30.8040009  47.1090012  25.4990005  30.0919991  46.7150002  27.0489998
  29.0249996  46.8320007  25.5799999  29.1310005  50.3180008  28.7730007
  28.1380005  50.9669991  28.3220005  29.0109997  49.4889984  29.8409996
  29.7989998  48.8499985  30.0839996  27.8369999  49.3559990  30.6340008
  27.1030006  48.9980011  29.9750004  28.0580006  48.1990013  31.6070004
  29.1040001  48.0270004  31.8789997  27.3490009  48.5000000  32.5070000
  27.7000008  47.2330017  31.1900005  27.2900009  50.5569992  31.2989998
  26.0849991  50.7589989  31.3439999  28.2040005  51.3400002  31.8610001
  29.1790009  51.1780014  31.7980003  27.9099998  52.6209984  32.3580017
  27.0389996  52.6759987  33.0429993  29.1749992  53.2140007  33.1290016
  29.2929993  52.5509987  33.9840012  30.0359993  53.2159996  32.4580002
  29.0139999  54.6839981  33.6419983  28.1410007  55.0649986  34.6780014
  27.6130009  54.3530006  35.2080002  27.8969994  56.4370003  34.8689995
  27.2649994  56.7459984  35.7420006  28.2800007  57.4199982  33.9809990
  27.9290009  58.6349983  34.2570000  27.5340004  58.5999985  35.1189995
  29.1539993  57.0760002  32.9140015  29.3279991  57.9599991  32.2779999
  29.5340004  55.7630005  32.7719994  30.2000008  55.5099983  31.9909992
  27.5720005  53.6300011  31.2360001  26.5580006  54.2750015  31.3500004
  28.2959995  53.5970001  30.0890007  29.1860008  53.1139984  30.0340004
  27.9899998  54.6199989  29.0020008  27.9669991  55.6170006  29.4360008
  28.8309994  54.6459999  27.7250004  29.0419998  53.5750008  27.4510002
  28.2430000  55.0740013  26.9349995  30.1490002  55.3870010  28.0429993
  30.7380009  54.9990005  28.9130001  30.7409992  55.3400002  27.1100006
  29.9050007  56.8769989  28.3640003  29.4759998  56.8959999  29.3090000
  30.8589993  57.3820000  28.3139992  29.0400009  57.5419998  27.3460007
  28.0809994  57.5369987  27.5620003  29.3999996  58.0120010  26.1550007
  28.4459991  58.3059998  25.2709999  27.5070000  58.3720016  25.6270008
  28.6429996  58.9770012  24.5240002  30.6520004  58.0019989  25.7730007
  31.3490009  57.9510002  26.4190006  30.8560009  58.1759987  24.7530003
  26.4839993  54.4010010  28.5510006  25.7049999  55.3889999  28.4669991
  26.1250000  53.1310005  28.2299995  26.8290005  52.4210014  28.1739998
  24.7600002  52.6720009  27.9090004  24.3409996  53.2630005  27.1189995
  24.7310009  51.1980019  27.5060005  25.0520000  50.6399994  28.4020004
  23.3729992  50.5900002  27.1280003  22.6749992  50.9010010  27.9050007
  23.0760002  51.1209984  26.2019997  23.4629993  49.5070000  27.1359997
  25.7059994  50.9449997  26.3430004  26.5839996  51.5060005  26.4880009
  25.8080006  49.8750000  26.3290005  25.3220005  51.1930008  25.3850002
  23.6580009  53.0639992  28.9260006  22.6210003  53.5989990  28.5219994
  23.9750004  52.9179993  30.2360001  24.9510002  52.6860008  30.4340000
  23.0949993  53.2120018  31.3920002  22.1149998  52.6980019  31.3010006
  23.6329994  52.6040001  32.6720009  22.8959999  52.6949997  33.4729996
  23.7010002  51.5480003  32.4739990  24.6000004  53.0019989  32.9490013
  22.8700008  54.7649994  31.5650005  21.7709999  55.2719994  31.7059994
  23.9939995  55.4809990  31.4729996  24.9400005  55.0270004  31.3600006
  23.9960003  56.9350014  31.5429993  23.4449997  57.3680000  32.3569984
  25.4379997  57.3390007  31.7040005  25.8150005  56.9020004  32.6889992
  26.0240002  56.8909988  30.9109993  25.5690002  58.4440002  31.7900009
  23.3479996  57.6629982  30.2889996  22.9080009  58.7669983  30.4529991
  23.1749992  56.9630013  29.1739998  23.8209991  56.2060013  29.0349998
  22.4659996  57.4160004  28.0240002  22.5510006  58.5239983  27.8759995
  22.9029999  56.7070007  26.8029995  23.9529991  56.5750008  26.7980003
  22.5279999  55.6769981  26.8859997  22.4860001  57.2500000  25.4360008
  22.6499996  56.4739990  24.6539993  21.4200001  57.3820000  25.5319996
  23.0890007  58.5789986  25.0650005  23.1709995  58.8030014  23.8439999
  23.6040001  59.3689995  25.8899994  20.9060001  57.2550011  28.2800007
  20.1219997  57.7459984  27.5680008  20.4330006  56.6660004  29.4130001
  21.1259995  56.3800011  30.0900002  19.0620003  56.4109993  29.6940002
  19.0550003  56.1689987  30.7660007  18.5170002  57.3170013  29.6439991
  18.4379997  55.3009987  28.9239998  17.2229996  55.3559990  28.7000008
  19.1989994  54.3279991  28.4379997  20.1620007  54.2169991  28.8589993
  18.7450008  53.1949997  27.7049999  17.7700005  53.3930016  27.3390007
  19.7900009  52.9090004  26.6049995  20.7500000  52.8330002  27.1980000
  19.5869999  51.5999985  25.9060001  18.5230007  51.5880013  25.5760002
  20.3029995  51.3629990  25.0849991  19.7759991  50.8180008  26.6980000
  19.8560009  54.0239983  25.5879993  18.9209995  54.0670013  25.0440006
  19.9990005  54.9959984  26.1480007  21.0279999  54.0019989  24.5610008
  21.0200005  54.7970009  23.9120007  22.0380001  53.8829994  25.0349998
  20.8810005  53.1889992  23.8829994  18.4430008  52.0190010  28.5699997
  19.1499996  51.8279991  29.5639992  17.3670006  51.3250008  28.2630005
  16.9540005  51.6199989  27.3659992  16.7590008  50.2709999  29.0340004
  16.9279995  50.4059982  30.0629997  15.1870003  50.3829994  28.9099998
  14.8409996  50.1629982  27.8649998  14.7779999  49.6310005  29.5580006
  14.7720003  51.7620010  29.3540001  14.0590000  52.3829994  28.5450001
  15.3020000  52.3670006  30.3969994  14.9849997  53.2999992  30.6389999
  15.8050003  51.8810005  31.1049995  17.3330002  48.8409996  28.6060009
  18.0799999  48.8079987  27.6679993  17.1119995  47.7439995  29.3500004
  16.5730000  47.9010010  30.2509995  17.8810005  46.4939995  29.0760002
  18.9099998  46.8069992  28.9799995  17.8099995  45.5810013  30.3150005
  18.3250008  46.0979996  31.1100006  16.7229996  45.4360008  30.5960007
  18.4389992  44.1759987  30.1250000  19.8910007  44.0610008  30.3780003
  20.4050007  44.8699989  30.7819996  20.4529991  42.7750015  30.2679996
  21.4799995  42.6469994  30.5100002  19.7369995  41.6380005  29.9419994
  20.3330002  40.4020004  29.7600002  19.8069992  39.8110008  29.2159996
  18.3400002  41.8180008  29.6009998  17.7549992  40.9199982  29.4810009
  17.7129993  43.0530014  29.7059994  16.7159996  43.1170006  29.4130001
  17.3069992  45.7050018  27.8220005  18.1389999  45.1180000  27.1800003
  16.0359993  45.5870018  27.6200008  15.4060001  46.0839996  28.1700001
  15.5930004  44.7540016  26.4939995  16.1359997  43.8059998  26.5109997
  14.0939999  44.4879990  26.7590008  13.9670000  43.9119987  27.6599998
  13.5509996  45.4580002  26.8959999  13.7690001  43.9659996  25.9039993
  15.7519999  45.3559990  25.1219997  15.2679996  44.8120003  24.1709995
  16.1599998  46.6069984  25.1049995  16.3129997  47.0309982  25.9829998
  16.4890003  47.4760017  23.9440002  15.7869997  47.4020004  23.1289997
  16.3869991  48.9029999  24.4570007  15.3509998  49.0519981  24.7709999
  17.0480003  49.0620003  25.3330002  16.8059998  49.9039993  23.4009991
  17.5240002  49.6320000  22.3910007  16.4529991  51.1119995  23.6389999
  17.9340000  47.1710014  23.4389992  18.9230003  47.0649986  24.2730007
  18.1369991  46.8450012  22.1609993  17.2940006  46.8040009  21.5650005
  19.4069996  46.4329987  21.5559998  20.1580009  46.7750015  22.2649994
  19.4869995  44.8569984  21.3029995  18.7500000  44.6689987  20.5310001
  20.4360008  44.6160011  20.9860001  19.1669998  44.0169983  22.5440006
  18.1770000  44.2200012  22.8169994  19.2059994  42.9350014  22.3710003
  20.1770000  44.2389984  23.7329998  21.0690002  43.6829987  23.5240002
  20.3770008  45.3180008  23.8490009  19.5149994  43.8730011  24.9480000
  18.9279995  44.5449982  25.4969997  19.3899994  42.6969986  25.4629993
  19.5580006  41.5950012  24.7840004  20.2040005  41.6850014  23.9860001
  19.4279995  40.8240013  25.3600006  19.0039997  42.5730019  26.7180004
  18.7399998  43.3370018  27.3139992  18.9190006  41.6240005  27.1070004
  19.8549995  47.2750015  20.4109993  20.8680000  46.9560013  19.8190002
  19.2430000  48.4210014  20.2210007  18.4599991  48.6479988  20.7740002
  19.4080009  49.3100014  19.0370007  19.3369999  48.7739983  18.1250000
  18.2579994  50.3120003  19.0900002  18.3250008  50.7680016  20.0189991
  18.3540001  51.0169983  18.2929993  16.8840008  49.6129990  19.0119991
  16.7670002  48.8909988  18.2229996  16.7220001  48.9070015  19.9020004
  15.7299995  50.5900002  19.0669994  15.9040003  51.3889999  18.2929993
  14.8079996  49.9469986  18.7940006  15.5349998  51.1739998  20.4449997
  16.1130009  50.9399986  21.2040005  14.4960003  51.9350014  20.7660007
  14.2410002  52.2529984  21.9899998  14.6890001  51.7190018  22.7329998
  13.3170004  52.6549988  22.2159996  13.6529999  52.3429985  19.9020004
  13.7749996  52.0359993  18.9050007  12.8490000  53.0000000  20.1940002
  20.7229996  50.0550003  18.9740009  21.2560005  50.2999992  17.8950005
  21.4410000  50.2120018  20.0890007  20.9839993  50.0579987  20.9939995
  22.7709999  50.6469994  20.2040005  22.8649998  51.5849991  19.6900005
  23.0480003  51.0550003  21.6210003  24.0189991  51.5190010  21.6130009
  22.2609997  51.7109985  21.9950008  23.1070004  49.9389992  22.5760002
  22.1420002  49.5540009  23.4480000  21.0990009  49.9729996  23.6429996
  22.6940002  48.6040001  24.3250008  22.1889992  48.3019981  25.1469994
  24.0079994  48.3069992  23.9640007  24.9440002  47.4370003  24.5389996
  24.7549992  47.0070000  25.5240002  26.2019997  47.3240013  23.9330006
  26.9939995  46.7890015  24.4459991  26.4570007  48.0740013  22.7259998
  27.4349995  48.0449982  22.3509998  25.5510006  48.9440002  22.2080002
  25.8400002  49.7099991  21.4780006  24.2159996  49.0660019  22.7779999
  23.7220001  49.6510010  19.5919991  24.7789993  50.1290016  19.2679996
  23.3619995  48.3790016  19.3780003  22.4500008  48.1279984  19.6569996
  24.2099991  47.4160004  18.6879997  25.2150002  47.5330009  19.0429993
  23.7150002  45.9329987  19.1560001  22.6639996  45.8699989  19.1009998
  24.2280006  45.1160011  18.5960007  24.1509991  45.6010017  20.9150009
  23.5039997  46.6609993  21.4039993  24.2430000  47.6860008  17.1459999
  24.8770008  46.9360008  16.3959999  23.4680004  48.6609993  16.6049995
  22.8880005  49.2239990  17.2369995  23.0480003  48.7420006  15.2279997
  23.7490005  48.1430016  14.5270004  21.7530003  48.0779991  15.2810001
  21.1439991  48.5419998  16.0270004  21.3010006  48.1850014  14.3610001
  21.6879997  46.5979996  15.6339998  22.4610004  45.6660004  14.9230003
  23.1949997  45.9410019  14.2189999  22.3439999  44.2570000  15.1079998
  23.0860004  43.5900002  14.6429996  21.4750004  43.8460007  16.1340008
  21.3850002  42.7490005  16.2590008  20.7029991  44.7570000  16.8990002
  19.9619999  44.4010010  17.6910000  20.8069992  46.1279984  16.6389999
  20.1310005  46.8289986  17.1189995  22.9050007  50.1510010  14.7080002
  23.3889999  50.3650017  13.5950003  22.5939999  51.1230011  15.5369997
  22.1970005  50.8779984  16.4449997  22.4440002  52.5209999  15.1770000
  21.7469997  52.7029991  14.3570004  21.8670006  53.2019997  16.3320007
  22.3969994  52.9449997  17.2049999  22.0319996  54.3639984  16.3129997
  20.3689995  53.0750008  16.5860004  19.6149998  52.4669991  15.7539997
  19.9580002  53.6290016  17.6250000  23.7910004  53.2560005  14.8369999
  23.8250008  54.3479996  14.3120003  24.9529991  52.6910019  15.0539999
  24.9619999  51.6839981  15.2539997  26.2490005  53.3359985  14.9840002
  26.1730003  54.3300018  15.4069996  26.9979992  52.7840004  15.6009998
  26.6949997  53.5190010  13.4989996  25.9729996  53.2060013  12.5649996
  27.9120007  54.0800018  13.3669996  28.3700008  54.4080009  14.1870003
  28.6180000  54.5789986  12.1680002  27.8610001  55.0859985  11.5330000
  29.6280003  55.7389984  12.6099997  30.1100006  56.0849991  11.7019997
  28.9430008  56.8989983  13.3319998  29.6690006  57.7669983  13.4029999
  28.1359997  57.2970009  12.7250004  28.5939999  56.6479988  14.3380003
  30.6569996  55.1240005  13.5629997  31.3910007  55.8730011  13.7810001
  30.2619991  54.8689995  14.5159998  31.0790005  54.2560005  13.1560001
  29.2770004  53.4210014  11.4090004  29.7350006  52.4560013  11.9449997
  29.5529995  53.5870018  10.0990000  29.3759995  54.5120010   9.6160002
  30.1520004  52.5900002   9.2500000  29.5919991  51.6469994   9.2200003
  30.0869999  53.1920013   7.8309999  29.1210003  53.5629997   7.4840002
  30.8360004  54.0289993   7.7589998  30.4689999  52.1980019   6.7890000
  31.5730000  51.9199982   6.8559999  29.8710003  51.2789993   6.9419999
  30.2819996  52.5730019   5.2430000  29.2299995  52.8120003   5.0240002
  30.9710007  53.3829994   5.0710001  30.7070007  51.3839989   4.3909998
  31.8400002  51.4160004   4.3319998  30.3110008  50.4350014   4.7729998
  30.2819996  51.5859985   2.9649999  29.2479992  51.7779999   2.9240000
  30.9169998  52.2879982   2.4940000  30.4650002  50.7109985   2.4340000
  31.5629997  52.2350006   9.7309999  31.9780006  51.1059990   9.5279999
  32.2659988  53.0589981  10.5019999  31.7779999  53.8950005  10.8179998
  33.5589981  52.6320000  11.1700001  34.2249985  52.1150017  10.4259996
  34.2519989  53.9300003  11.6809998  33.5099983  54.4620018  12.1599998
  34.9959984  53.7360001  12.4040003  34.7159996  54.8540001  10.5419998
  35.1609993  54.3919983   9.4759998  34.6720009  56.1739998  10.6870003
  34.8450012  56.7000008   9.8450003  34.4169998  56.5830002  11.5780001
  33.3959999  51.5839996  12.2639999  34.3429985  50.9010010  12.6840000
  32.2099991  51.2400017  12.7659998  31.4060001  51.6910019  12.4820004
  31.9360008  50.3650017  13.8669996  32.7900009  50.2239990  14.4720001
  30.9589996  51.0480003  14.8719997  30.0209999  51.4459991  14.4580002
  30.7579994  50.3979988  15.6560001  31.6250000  52.2190018  15.5679998
  32.7389984  52.7010002  15.2950001  30.9619999  52.8419991  16.4659996
  31.4599991  53.6640015  16.8050003  29.9899998  52.5449982  16.7119999
  31.4740009  48.9399986  13.5120001  30.9589996  48.2130013  14.3249998
  31.5559998  48.5649986  12.2419996  32.0800018  49.2089996  11.6129999
  31.0900002  47.3219986  11.6409998  30.0410004  47.3170013  11.8160000
  31.2099991  47.4189987  10.0550003  30.7280006  48.3310013   9.7019997
  32.2639999  47.4729996   9.9619999  30.6359997  46.1759987   9.3430004
  30.3950005  46.4729996   8.3389997  31.5529995  45.5660019   9.3760004
  29.3680000  45.5429993   9.8979998  28.2539997  45.9640007   9.7830000
  29.3670006  44.4230003  10.5979996  28.5389996  44.1969986  11.1009998
  30.2649994  44.0229988  10.8490000  31.8869991  46.0859985  12.2399998
  32.9370003  45.6990013  11.6910000  31.4650002  45.5330009  13.3430004
  30.7099991  45.9889984  13.8389997  32.0470009  44.3479996  13.9390001
  32.9939995  44.5929985  14.3120003  31.2800007  43.9140015  15.2609997
  30.2320004  43.7000008  14.9309998  31.8840008  42.6030006  15.8299999
  31.4279995  42.2659988  16.7439995  31.9090004  41.8019981  15.0340004
  32.9440002  42.8510017  16.0470009  31.1240005  45.0379982  16.3110008
  30.3719997  45.7840004  16.0470009  30.8010006  44.5299988  17.2150002
  32.4160004  45.7779999  16.5620003  33.3079987  45.1250000  16.7450008
  32.6240005  46.5419998  15.8129997  32.1650009  46.3120003  17.4890003
  32.2050018  43.2169991  12.9469995  31.3460007  42.9500008  12.0730000
  33.2669983  42.4259987  13.0209999  34.0419998  42.8670006  13.5319996
  33.6419983  41.3240013  12.1560001  32.8069992  41.1160011  11.5410004
  34.9150009  41.6769981  11.2830000  35.7210007  41.9850006  11.9309998
  35.3750000  40.8730011  10.7089996  34.7639999  42.7929993  10.2500000
  34.5789986  43.7400017  10.7110004  36.1010017  42.9220009   9.4040003
  36.1539993  42.1080017   8.7019997  35.9930000  43.8559990   8.8409996
  36.9679985  43.0509987  10.0970001  33.6539993  42.7319984   9.2150002
  33.5449982  41.7669983   8.6910000  32.6580009  42.9630013   9.6610003
  33.8370018  43.6259995   8.5760002  33.9269981  40.0680008  13.0509996
  34.4370003  40.1269989  14.1759996  33.6279984  38.9070015  12.3710003
  33.2449989  39.0730019  11.4700003  33.9420013  37.5260010  12.7530003
  34.5309982  37.6440010  13.7320004  32.6180000  36.9049988  13.2329998
  32.0909996  37.4720001  14.0330000  31.9179993  36.8120003  12.3750000
  32.8330002  35.4710007  13.8360004  33.3530006  34.8919983  13.1079998
  33.5289993  35.5979996  14.6490002  31.6320000  34.6850014  14.3120003
  30.5330009  35.0340004  13.8649998  31.9009991  33.7719994  15.0909996
  34.6040001  36.7389984  11.6759996  33.9809990  36.7200012  10.5939999
  35.8300018  36.2420006  11.8739996  36.2859993  36.4920006  12.7629995
  36.6539993  35.6790009  10.8079996  37.6699982  35.6679993  11.1619997
  36.2099991  34.1689987  10.5229998  35.6570015  33.8240013  11.4280005
  35.3590012  34.1469994   9.7329998  37.3370018  33.1129990  10.4239998
  37.9720001  33.2039986  11.3599997  36.9319992  32.0519981  10.3809996
  38.0270004  33.4360008   9.1020002  37.3479996  33.3870010   8.0419998
  39.2910004  33.4749985   9.1070004  36.7270012  36.5940018   9.5979996
  36.4679985  36.1899986   8.4860001  36.8219986  37.9410019   9.7679996
  36.8470001  38.2779999  10.6859999  36.6679993  38.9949989   8.7709999
  36.7369995  39.8569984   9.3669996  37.8219986  38.9350014   7.7729998
  37.7939987  38.0209999   7.0970001  37.7849998  39.8250008   7.0990000
  39.1440010  39.0480003   8.3929996  39.4980011  40.0740013   9.0010004
  39.8930016  38.0200005   8.2170000  40.8540001  38.0190010   8.6750002
  39.4900017  37.1980019   8.0159998  35.3110008  39.0419998   7.9720001
  35.1380005  39.9249992   7.1479998  34.3810005  38.1310005   8.1669998
  34.5649986  37.3740005   8.8100004  33.0060005  38.2350006   7.5809999
  33.0330009  38.7570000   6.6110001  32.2709999  36.8380013   7.3800001
  32.1839981  36.2070007   8.2629995  30.7870007  37.0000000   7.0580001
  30.4209995  35.9580002   6.8629999  30.1870003  37.3880005   7.8860002
  30.6310005  37.6020012   6.1589999  32.9910011  36.0810013   6.2740002
  33.2919998  36.6850014   5.4330001  33.9539986  35.6940002   6.7110000
  32.3969994  35.1599998   6.0260000  32.2739983  39.1699982   8.5539999
  32.2989998  38.9840012   9.7679996  31.5489998  40.1310005   8.0000000
  31.6130009  40.2270012   7.0060000  30.7539997  40.9959984   8.8240004
  31.3829994  41.5209999   9.5319996  29.9519997  41.9449997   7.8750000
  29.3379993  41.2620010   7.2410002  29.2189999  42.4539986   8.5190001
  30.7880001  42.9420013   7.0040002  31.1490002  43.6699982   7.6430001
  31.6229992  42.4129982   6.6250000  30.1989994  43.5419998   5.7639999
  28.9860001  43.5439987   5.4660001  30.9930000  43.9910011   4.8959999
  29.6289997  40.2919998   9.6169996  28.9519997  39.3540001   9.0850000
  29.3470001  40.6679993  10.8520002  29.7800007  41.4770012  11.1719999
  28.5540009  39.9630013  11.8090000  28.6620007  38.9039993  11.5930004
  28.9459991  40.1790009  13.2849998  29.1749992  41.2400017  13.5089998
  28.0070000  39.4570007  14.1999998  27.0009995  39.9570007  14.1510000
  27.9559994  38.4020004  13.8509998  28.3600006  39.5040016  15.2200003
  30.3360004  39.5289993  13.5019999  30.7700005  39.8540001  14.4270000
  30.2970009  38.4850006  13.4549999  30.9629993  39.8499985  12.6630001
  27.0550003  40.3520012  11.5559998  26.5799999  41.3849983  12.0010004
  26.3269997  39.4790001  10.8660002  26.7929993  38.6769981  10.5260000
  24.9640007  39.5800018  10.5670004  24.6569996  40.6209984  10.5830002
  24.7730007  39.0900002   9.1190004  25.5160007  39.5769997   8.5950003
  24.9990005  38.0180016   9.1809998  23.3369999  39.2120018   8.6070004
  22.6779995  38.5000000   9.0850000  23.0230007  40.2389984   8.7700005
  23.4270000  38.9070015   7.1110001  22.5440006  39.4290009   6.3880000
  24.3360004  38.1949997   6.6269999  24.0550003  38.8479996  11.5970001
  24.3460007  37.7470016  12.0629997  22.9209995  39.4920006  11.9949999
  22.7539997  40.3520012  11.5360003  21.9990005  39.1030006  13.0660000
  22.1840000  38.1129990  13.3680000  22.3290005  40.0390015  14.2969999
  22.3110008  41.1279984  14.0699997  21.2719994  39.8470001  15.3179998
  20.3670006  40.4729996  14.9899998  21.0919991  38.7459984  15.3739996
  21.4659996  40.1870003  16.3169994  23.6569996  39.6479988  14.8710003
  23.6560001  38.6069984  15.1680002  24.4009991  39.6910019  14.0629997
  24.2950001  40.4360008  16.0349998  24.3099995  41.5139999  15.8030005
  23.7479992  40.2480011  16.9069996  25.2749996  39.9319992  16.2070007
  20.5680008  39.3009987  12.6300001  20.0389996  40.2669983  12.1029997
  19.8470001  38.3750000  13.2779999  20.3750000  37.7060013  13.9080000
  18.3630009  38.4020004  13.3529997  17.9820004  39.0719986  12.5690002
  17.8980007  36.9749985  12.8629999  18.5149994  36.2229996  13.4399996
  16.8680000  36.7799988  12.9910002  18.1459999  36.7830009  11.4139996
  17.0970001  36.7910004  10.5570002  16.0020008  36.8240013  10.7200003
  17.5830002  36.5800018   9.2989998  16.8899994  36.6320000   8.5439997
  18.9410000  36.5470009   9.2399998  19.8540001  36.3779984   8.2609997
  19.4810009  36.3639984   7.2620001  21.2500000  36.2919998   8.5799999
  22.0189991  36.3919983   7.8119998  21.6490002  36.4129982   9.8789997
  22.7579994  36.3339996  10.1730003  20.6879997  36.4790001  10.9309998
  21.0109997  36.4230003  11.9890003  19.3509998  36.5960007  10.6009998
  17.9750004  38.7430000  14.7980003  18.2140007  37.9469986  15.6789999
  17.2880001  39.9210014  14.9560003  17.2369995  40.5190010  14.1199999
  17.0170002  40.5359993  16.2360001  17.8129997  40.2620010  16.8959999
  16.9570007  42.0709991  16.1019993  16.5209999  42.4560013  17.0429993
  18.3710003  42.6500015  15.9519997  18.4190006  43.6899986  16.2350006
  19.1219997  42.0709991  16.5200005  18.6560001  42.4449997  14.9280005
  16.1819992  42.5569992  15.0419998  16.3680000  42.1230011  14.2019997
  15.6780005  40.0410004  16.8570004  14.8579998  39.4300003  16.1450005
  15.3230000  40.2900009  18.1320000  15.9670000  40.7919998  18.7509995
  14.1090002  39.6619987  18.6779995  14.1199999  38.6090012  18.3889999
  14.0400000  39.7459984  20.2539997  13.3470001  39.0079994  20.6429996
  14.9650002  39.3569984  20.5830002  13.7030001  41.0639992  20.9270000
  14.5290003  41.7500000  20.6380005  12.7600002  41.4300003  20.4589996
  13.5959997  41.0480003  22.4489994  12.8669996  40.2579994  22.7099991
  14.5839996  40.7929993  22.8640003  13.2489996  42.4879990  22.9529991
  14.1560001  43.0550003  23.1989994  12.8629999  43.1930008  22.2070007
  12.4139996  42.3699989  24.1130009  11.6800003  41.6669998  23.9680004
  12.9420004  41.8639984  24.8320007  12.0439997  43.2299995  24.5270004
  12.7819996  40.2239990  18.1340008  11.7919998  39.4869995  18.1790009
  12.7240000  41.4599991  17.7430000  13.5590000  42.0419998  17.8230000
  11.5839996  42.0209999  16.9880009  10.6129999  41.8219986  17.4979992
  11.6850004  43.5390015  16.7570000  12.5860004  43.7719994  16.2500000
  10.8660002  43.9799995  16.2140007  11.7609997  44.3730011  18.0960007
  11.4580002  45.3639984  17.8589993  11.0480003  43.9920006  18.8339996
  13.1499996  44.4300003  18.6679993  13.3599997  44.9160004  19.7929993
  14.1730003  44.1110001  18.0349998  11.3909998  41.3639984  15.5760002
  10.3330002  41.5929985  14.9589996  12.4049997  40.6500015  15.0760002
  13.2360001  40.5750008  15.6309996  12.3260002  39.8870010  13.8669996
  12.6090002  38.8569984  13.9969997  11.3430004  39.8549995  13.5740004
  13.0959997  40.4799995  12.6730003  13.0990000  39.8829994  11.5749998
  13.6580000  41.7039986  12.7939997  13.5860004  42.1489983  13.7460003
  14.4490004  42.3359985  11.7259998  14.0120001  42.2159996  10.7430000
  14.5340004  43.7729988  11.9309998  15.0690002  44.0330009  12.8669996
  15.0990000  44.1910019  11.1180000  13.1280003  44.5190010  12.1099997
  12.7110004  44.1609993  13.0550003  13.3319998  45.5779991  12.1099997
  12.1000004  44.2820015  10.9790001  11.0590000  44.8919983  11.1389999
  12.4989996  43.7340012   9.9219999  15.9280005  41.7529984  11.5489998
  16.5650005  41.3699989  12.5520000  16.3980007  41.7620010  10.3030005
  15.7690001  42.1040001   9.5810003  17.7590008  41.3219986   9.8830004
  18.2150002  40.5680008  10.5310001  17.6429996  40.6990013   8.4940004
  16.9580002  39.8919983   8.5959997  17.1110001  41.4790001   7.8889999
  18.9950008  40.4319992   7.7410002  19.5970001  41.3330002   7.6620002
  19.4160004  39.6549988   8.2950001  18.7189999  39.7480011   6.3870001
  18.0310001  38.9329987   6.5460000  18.1420002  40.4990005   5.7760000
  19.9130001  39.2389984   5.6580000  20.8740005  39.4850006   5.9580002
  19.9470005  38.3779984   4.6440001  21.1340008  37.8639984   4.2830000
  21.9430008  38.1230011   4.7470002  21.1529999  37.2120018   3.5060000
  18.9769993  37.8440018   4.0310001  17.9720001  38.0620003   4.2800002
  19.2250004  37.4770012   3.1270001  18.6620007  42.6209984   9.8950005
  18.3379993  43.6199989   9.2489996  19.7660007  42.6110001  10.6330004
  19.9820004  41.7809982  11.1540003  20.7549992  43.7239990  10.6619997
  20.7290001  44.2379990   9.6630001  20.4260006  44.6739998  11.8129997
  20.6329994  44.0929985  12.7110004  21.1320000  45.4920006  11.9700003
  19.0160007  45.1879997  11.8039999  18.8139992  45.9179993  11.0030003
  18.2970009  44.3479996  11.7709999  18.6800003  46.0180016  12.9890003
  18.8859997  45.4410019  13.8889999  19.2320004  46.9430008  13.0229998
  17.1380005  46.3330002  12.9619999  16.6240005  45.4389992  12.8610001
  16.9160004  46.8050003  13.9099998  16.7929993  47.2099991  11.7919998
  16.9750004  46.8030014  10.8640003  15.8730001  47.5400009  11.8620005
  17.3600006  48.1150017  11.7980003  22.1949997  43.2890015  10.8570004
  22.6299992  42.2639999  11.4799995  23.1439991  44.1269989  10.4440002
  22.7070007  44.8680000   9.8629999  24.6079998  44.0519981  10.5539999
  24.9920006  43.0429993  10.6370001  25.2730007  44.7099991   9.3509998
  25.1149998  45.7400017   9.2650003  26.3540001  44.6930008   9.6210003
  25.1870003  43.9710007   7.9710002  24.1329994  43.7610016   7.7960000
  25.3110008  44.7060013   7.2350001  26.1189995  42.7350006   7.7370000
  27.1459999  43.0320015   7.7789998  25.9580002  42.1370010   8.6339998
  25.7819996  42.0340004   6.4349999  26.2740002  41.0670013   6.4050002
  24.7080002  41.8419991   6.3420000  26.2080002  42.9029999   5.3220000
  27.1980000  43.0830002   5.4860001  26.1180000  42.4379997   4.4099998
  25.7040005  43.8129997   5.2500000  25.0540009  44.7400017  11.8400002
  24.6749992  45.9119987  12.0609999  25.7910004  44.0270004  12.6949997
  25.8929996  43.0589981  12.3990002  26.2919998  44.3919983  14.0480003
  25.2959995  44.6339989  14.5710001  26.9430008  43.1510010  14.6549997
  26.1669998  42.3580017  14.6969995  27.7520008  42.8120003  14.1070004
  27.3829994  43.3440018  16.1739998  28.0100002  44.2060013  16.1770000
  26.2250004  43.6450005  17.1009998  26.5310001  43.8339996  18.1140003
  25.7169991  44.5649986  16.7369995  25.5209999  42.8219986  17.0569992
  28.1119995  42.2099991  16.9160004  28.9780006  41.9930000  16.3750000
  28.4190006  42.6010017  17.9449997  27.5410004  41.2459984  16.9529991
  27.2059994  45.5989990  13.9680004  28.4190006  45.3810005  13.7379999
  26.6189995  46.7799988  14.1429996  25.7049999  46.7369995  14.5100002
  27.3759995  48.0470009  14.1180000  28.3719997  47.8849983  14.1020002
  27.0139999  48.6510010  12.7600002  27.5149994  48.0699997  11.9860001
  25.9349995  48.6360016  12.6850004  27.4559994  50.1139984  12.4779997
  26.9589996  50.7820015  13.0979996  28.5349998  50.1300011  12.6309996
  27.1299992  50.4049988  10.9729996  27.3770008  51.4280014  10.7790003
  27.7269993  49.7690010  10.3610001  25.6499996  50.2560005  10.5450001
  25.5410004  50.5499992   9.5419998  25.3999996  49.1689987  10.6879997
  24.6910000  51.0940018  11.3319998  25.1599998  51.9239998  11.6739998
  23.8560009  51.3230019  10.8070002  24.3589993  50.6549988  12.1459999
  27.0049992  48.9630013  15.3439999  26.0160007  49.6160011  15.3579998
  27.7119999  48.7999992  16.4710007  28.6219997  47.6660004  16.7049999
  29.5779991  47.9580002  16.2460003  28.3419991  46.7910004  16.1910000
  28.7199993  47.3820000  18.2000008  29.6399994  46.9539986  18.5690002
  27.9230003  46.8359985  18.5419998  28.4750004  48.7849998  18.6840000
  29.4400005  49.2919998  18.5939999  28.1490002  48.8390007  19.7420006
  27.4769993  49.4720001  17.7670002  26.4979992  49.2099991  18.0680008
  27.7700005  51.0029984  17.7859993  28.6450005  51.5690002  17.0720005
  27.0839996  51.7630005  18.6720009  26.2320004  51.3600006  19.1180000
  27.3850002  53.2029991  18.9769993  27.4960003  53.7150002  18.0259991
  26.1369991  53.8089981  19.5660000  25.9829998  53.1459999  20.4300003
  26.3519993  54.8559990  19.8269997  24.8640003  53.7820015  18.7420006
  24.9220009  54.3549995  17.8029995  24.6009998  52.7529984  18.5340004
  23.6770000  54.3219986  19.5400009  22.9309998  54.4179993  18.7759991
  23.4179993  53.6710014  20.3729992  23.9669991  55.6339989  20.2520008
  24.8740005  56.0079994  20.2290001  23.2840004  56.2570000  21.1840000
  23.8180008  57.3069992  21.7250004  24.6679993  57.6619987  21.3969994
  23.3980007  57.8190002  22.4610004  22.1250000  55.8810005  21.5520000
  21.6739998  55.1380005  21.0489998  21.6299992  56.3149986  22.2740002
  28.6329994  53.5120010  19.7999992  29.1030006  54.6689987  19.6270008
  29.1730003  52.5260010  20.5450001  28.6280003  51.6790009  20.5529995
  30.4139996  52.5610008  21.2770004  30.8740005  53.5320015  21.0249996
  30.1639996  52.5070000  22.7810001  29.6299992  51.5779991  23.0489998
  31.1399994  52.4830017  23.3139992  29.3129997  53.5740013  23.2479992
  29.7450008  54.7529984  23.7819996  30.8190002  54.9949989  23.8850002
  28.6359997  55.5480003  23.9939995  28.7700005  56.4879990  24.4319992
  27.3859997  54.8969994  23.8339996  26.0279999  55.2360001  23.9290009
  25.7399998  56.2470016  24.3390007  25.0410004  54.2470016  23.7089996
  23.9710007  54.4410019  23.7929993  25.5060005  52.9350014  23.4379997
  24.7950001  52.1419983  23.3670006  26.8600006  52.6520004  23.2089996
  27.1700001  51.6409988  23.0039997  27.8549995  53.6389999  23.3460007
  31.3069992  51.4280014  20.8490009  30.7910004  50.3440018  20.6159992
  32.6279984  51.6479988  20.9710007  33.0089989  52.5299988  21.2870007
  33.6030006  50.5460014  20.7759991  32.9560013  49.6090012  20.5979996
  34.5279999  50.7379990  19.5970001  35.0419998  51.6920013  19.7570000
  35.3889999  50.1090012  19.6459999  33.8860016  50.5740013  18.1790009
  33.2509995  51.4389992  18.1149998  34.9000015  50.7809982  17.1180000
  34.4599991  50.7229996  16.0769997  35.3880005  51.7519989  17.2310009
  35.6389999  50.0349998  17.1940002  33.0820007  49.3569984  17.9610004
  32.7299995  49.3129997  16.9179993  33.7220001  48.4819984  18.0540009
  32.1529999  49.3580017  18.5359993  34.3219986  50.3240013  22.1089993
  34.8279991  51.2500000  22.7689991  34.4860001  49.0610008  22.4410000
  33.9560013  48.3790016  21.8540001  35.0639992  48.4239998  23.5590000
  35.8339996  49.0820007  23.9020004  34.0779991  48.1399994  24.6910000
  33.5460014  49.1059990  24.9039993  33.3180008  47.4160004  24.4319992
  34.8629990  47.6689987  25.9769993  34.4049988  48.0610008  27.0690002
  35.8149986  46.9039993  25.8810005  35.6899986  47.0800018  23.0939999
  34.9480019  46.1300011  22.8390007  36.9990005  46.9430008  22.9769993
  37.5379982  47.6990013  23.2649994  37.6829987  45.8160019  22.3780003
  37.4049988  45.6290016  21.3540001  39.1710014  46.0999985  22.3670006
  39.5970001  46.4109993  23.2929993  39.6689987  45.1699982  21.9969997
  39.4780006  46.9819984  21.7609997  37.3889999  44.4939995  23.1340008
  37.4440002  43.4500008  22.5499992  37.0559998  44.5600014  24.4130001
  36.8100014  45.4990005  24.7159996  36.9339981  43.3829994  25.3630009
  37.8370018  42.8660011  25.2859993  36.7290001  43.9090004  26.7670002
  35.8260002  44.5209999  26.8610001  36.6500015  43.0299988  27.4179993
  37.9749985  44.7029991  27.2789993  38.7509995  43.9889984  27.2420006
  38.3909988  45.5089989  26.6259995  37.8129997  45.3419991  28.6469994
  37.2840004  44.6380005  29.2940006  38.8520012  45.4760017  28.8980007
  36.9749985  46.5610008  28.6599998  36.4850006  46.7430000  27.7950001
  36.7270012  47.4029999  29.5949993  37.2299995  47.3429985  30.8230000
  38.0369987  46.7019997  30.9780006  36.7929993  47.9990005  31.4459991
  35.8450012  48.3380013  29.4209995  35.2060013  48.2669983  28.6639996
  35.6220016  48.9020004  30.2700005  35.7190018  42.4690018  25.0559998
  35.7179985  41.2389984  25.3419991  34.7260017  43.0390015  24.4440002
  34.6769981  43.9630013  24.1580009  33.5139999  42.2410011  24.0949993
  33.4189987  41.4809990  24.7719994  32.1640015  43.1059990  24.1590004
  31.3020000  42.4220009  24.1900005  32.0670013  43.8209991  25.4869995
  32.7760010  44.5950012  25.6490002  31.1200008  44.2200012  25.6609993
  32.1370010  43.0950012  26.3309994  31.9500008  44.0270004  22.9410000
  32.8190002  44.6240005  22.8689995  31.9069996  43.4039993  22.1079998
  30.7310009  44.9850006  22.9150009  30.3680000  45.0750008  21.9379997
  29.8619995  44.7509995  23.6030006  31.0620003  45.9329987  23.1480007
  33.6180000  41.4710007  22.7649994  32.6769981  40.8680000  22.2590008
  34.7000008  41.6419983  22.0049992  35.3429985  42.3339996  22.4440002
  34.8190002  41.0979996  20.6270008  34.1879997  40.1949997  20.5380001
  34.2639999  42.0839996  19.4769993  34.2360001  41.5260010  18.5529995
  33.1450005  42.2939987  19.7439995  34.9169998  43.4269981  19.2959995
  34.3600006  44.5670013  19.9179993  33.3720016  44.4080009  20.3700008
  34.9249992  45.8590012  19.6980000  34.3160019  46.6879997  19.9890003
  36.2070007  45.9720001  19.1019993  36.6549988  47.1710014  18.6650009
  36.7620010  47.8100014  19.3899994  36.7820015  44.8409996  18.5760002
  37.6040001  44.9550018  17.9769993  36.0970001  43.5470009  18.6009998
  36.5769997  42.7280006  18.1499996  36.2099991  40.6129990  20.1790009
  36.3209991  39.8419991  19.2089996  37.3059998  41.0610008  20.8349991
  37.2729988  41.5670013  21.7630005  38.6459999  40.6279984  20.4160004
  38.5699997  40.5180016  19.2870007  39.6889992  41.6710014  20.7910004
  39.7989998  41.6479988  21.8610001  40.7000008  41.4440002  20.4020004
  39.3240013  42.9309998  20.3069992  38.5530014  43.1469994  20.8570004
  38.9850006  39.1290016  20.8129997  39.9659996  38.5880013  20.3220005
  38.1189995  38.4620018  21.5599995  37.3979988  39.0270004  21.9549999
  38.0369987  37.1090012  21.6949997  38.8450012  36.5670013  21.2779999
  38.1389999  36.8120003  23.2299995  39.0019989  37.3400002  23.6809998
  37.1660004  37.0589981  23.7110004  38.3260002  35.4080009  23.7590008
  38.2939987  34.4710007  22.9720001  38.6040001  35.2879982  24.9720001
  36.7430000  36.5779991  21.0760002  35.6539993  36.8680000  21.5690002
  36.8639984  35.5970001  20.0680008  38.1329994  35.2270012  19.3740005
  38.6119995  34.4840012  20.0279999  38.7589989  36.0820007  19.2070007
  37.7200012  34.6710014  18.0039997  38.4119987  34.0029984  17.6870003
  37.6339989  35.5540009  17.4009991  36.3209991  34.0489998  18.2250004
  36.5779991  33.1170006  18.7210007  35.7400017  33.9510002  17.3279991
  35.7140007  34.9799995  19.3010006  35.0390015  35.7470016  18.8740005
  34.6829987  34.2729988  20.2609997  33.5519981  33.9529991  19.8530006
  35.0900002  33.9370003  21.4920006  36.0620003  33.9490013  21.8020000
  34.2070007  33.3030014  22.4680004  33.4490013  32.8030014  21.8479996
  34.9570007  32.1549988  23.1749992  35.7389984  32.6679993  23.7800007
  34.1720009  31.7199993  23.8430004  35.8030014  31.1429996  22.3670006
  36.4529991  31.6329994  21.7380009  36.7770004  30.4090004  23.3500004
  37.6920013  30.9379997  23.5830002  36.1940002  30.1000004  24.1709995
  37.1599998  29.4950008  22.8810005  34.9189987  30.1660004  21.6539993
  33.9570007  30.6399994  21.3269997  35.4220009  29.9080009  20.7269993
  34.7089996  29.3199997  22.2989998  33.4900017  34.2150002  23.4480000
  32.3590012  34.0040016  23.8630009  34.0839996  35.3720016  23.6539993
  34.9090004  35.6349983  23.1259995  33.3230019  36.5400009  24.2360001
  32.7999992  36.1749992  25.0799999  34.2840004  37.5709991  24.8390007
  34.9379997  37.8510017  23.9990005  33.7910004  38.4440002  25.1949997
  34.8580017  37.1749992  25.6499996  32.3359985  37.0349998  23.2240009
  31.2119999  37.2859993  23.5830002  32.7190018  37.1949997  21.9529991
  33.6619987  36.9640007  21.7229996  31.8139992  37.6940002  20.9039993
  31.5769997  38.7150002  21.0809994  32.6660004  37.6969986  19.6569996
  33.5439987  38.3160019  19.7970009  32.9280014  36.6889992  19.5419998
  32.0320015  38.2270012  18.3829994  31.2299995  37.5089989  18.1000004
  31.5349998  39.6500015  18.6019993  30.8810005  39.6430016  19.4529991
  32.3120003  40.3899994  18.7409992  30.9410000  40.0400009  17.8199997
  32.9889984  38.3429985  17.1980000  32.4300003  38.8069992  16.3859997
  33.8919983  38.8470001  17.3889999  33.2340012  37.3079987  16.8630009
  30.5690002  36.8370018  20.6910000  29.4920006  37.4370003  20.4729996
  30.6159992  35.4830017  20.7099991  31.4750004  34.9910011  20.7339993
  29.4419994  34.6189995  20.7500000  28.8999996  34.7869987  19.8169994
  29.7439995  33.1119995  20.9099998  30.4500008  33.0660019  21.6599998
  28.7999992  32.5600014  20.9820004  30.3390007  32.5699997  19.5879993
  29.6060009  32.6329994  18.8360004  31.1830006  33.0660019  19.2919998
  30.5629997  31.0569992  19.8110008  31.4430008  30.9330006  20.5270004
  29.7409992  30.5909996  20.3250008  30.8209991  30.2889996  18.5279999
  31.6320000  30.8320007  17.9589996  31.2290001  29.3549995  18.9640007
  29.6140003  30.1070004  17.6879997  29.7880001  29.3789997  17.0119991
  28.8649998  29.6630001  18.2070007  29.2080002  30.9489994  17.3269997
  28.4519997  34.9550018  21.8129997  27.2649994  34.9970016  21.5370007
  28.9430008  35.1920013  23.0639992  29.8889999  34.9399986  23.3299999
  28.1650009  35.6450005  24.1989994  27.3460007  34.8569984  24.3519993
  28.9909992  35.8250008  25.4939995  30.0259991  36.2789993  25.3029995
  28.3969994  36.5279999  26.2229996  29.1809998  34.4850006  26.2880001
  29.5970001  33.8390007  25.5489998  29.9969997  34.6879997  27.0139999
  27.9169998  33.7830009  26.6669998  26.9270000  34.4469986  26.8889999
  28.0109997  32.5250015  26.8619995  27.4029999  36.9760017  23.8090000
  26.1650009  37.0779991  23.7770004  28.1970005  37.9669991  23.3160000
  29.2070007  37.8339996  23.4599991  27.6630001  39.2470016  22.8649998
  27.0730000  39.5870018  23.8180008  28.7709999  40.3209991  22.5739994
  29.4680004  40.2260017  23.3950005  29.3400002  40.0089989  21.7299995
  28.3120003  41.7039986  22.4729996  27.9279995  42.4389992  23.6289997
  28.0149994  41.9720001  24.5699997  27.3969994  43.7229996  23.5090008
  26.9029999  44.2400017  24.3859997  27.4440002  44.3820000  22.2509995
  27.0620003  45.4160004  22.2570000  27.9090004  43.7229996  21.1539993
  27.9400005  44.3339996  20.2339993  28.3400002  42.3450012  21.2399998
  28.7059994  41.8670006  20.3230000  26.6690006  39.2659988  21.7369995
  25.7099991  40.0540009  21.6809998  26.7660007  38.2620010  20.9039993
  27.6380005  37.6730003  20.9470005  25.8859997  38.1279984  19.6930008
  25.7670002  39.0849991  19.1289997  26.5189991  37.0970001  18.7959995
  27.0660000  36.4239998  19.4629993  25.7119999  36.4640007  18.3260002
  27.4540005  37.7470016  17.7280006  26.8719997  38.3820000  17.0230007
  28.2140007  38.4350014  18.1399994  28.2619991  36.6640015  17.0030003
  28.9820004  37.1689987  16.4220009  28.6630001  35.9580002  17.7229996
  27.3799992  35.9529991  15.9779997  26.5249996  35.5890007  16.5669994
  27.1490002  36.5639992  15.0920000  28.0879993  34.7750015  15.3830004
  27.5809994  34.4140015  14.6260004  28.8990002  35.1160011  14.9169998
  28.2749996  33.9869995  16.0079994  24.4120007  37.7159996  19.9969997
  23.4839993  38.0839996  19.2959995  24.2169991  36.9500008  21.0540009
  25.0510006  36.5480003  21.4990005  22.9169998  36.6570015  21.6320000
  22.1879997  36.5009995  20.8239994  22.9060001  35.3380013  22.4130001
  23.4540005  35.4379997  23.3929996  21.8959999  35.0489998  22.4419994
  23.5669994  34.1809998  21.6270008  24.5809994  34.4339981  21.3770008
  23.6340008  33.3499985  22.3250008  22.9009991  33.7070007  20.3549995
  21.7919998  33.0620003  20.4370003  23.5359993  33.9830017  19.3010006
  22.4340000  37.7389984  22.5669994  21.2229996  37.8800011  22.7240009
  23.2830009  38.6170006  23.1030006  24.3040009  38.4609985  23.0319996
  22.8239994  39.9580002  23.6340008  21.9020004  39.8040009  24.2399998
  23.8869991  40.5989990  24.5580006  24.1989994  39.8489990  25.3059998
  24.7229996  40.7299995  23.9559994  23.4480000  41.8849983  25.2469997
  22.8269997  41.7989998  26.5520000  22.7399998  40.8870010  27.1189995
  22.4020004  42.9840012  27.1310005  21.9619999  42.9160004  28.1590004
  22.5070000  44.1800003  26.4570007  22.0930004  45.0550003  26.8950005
  23.0990009  44.2659988  25.1720009  23.1720009  45.1749992  24.5839996
  23.5179996  43.1250000  24.5240002  23.9249992  43.0760002  23.5510006
  22.3820000  40.9319992  22.5489998  21.2830009  41.4370003  22.6359997
  23.1749992  41.0779991  21.5009995  24.0209999  40.5709991  21.5030003
  22.7719994  41.9640007  20.3589993  22.3840008  42.9679985  20.5680008
  23.9769993  42.0239983  19.4279995  23.8570004  42.6790009  18.5289993
  24.7369995  42.4930000  20.0450001  24.3649998  41.1080017  19.0300007
  21.5809994  41.4000015  19.5739994  20.6749992  42.1720009  19.1089993
  21.4799995  40.0810013  19.5149994  22.2999992  39.5089989  19.7150002
  20.3190002  39.3959999  18.8950005  20.1870003  39.7350006  17.9130001
  20.4549999  37.9020004  18.9379997  20.3290005  37.4370003  19.9319992
  19.7570000  37.4700012  18.2310009  21.3670006  37.5559998  18.4559994
  18.9780006  39.6360016  19.6599998  17.9200001  39.2649994  19.1429996
  19.0230007  40.1959991  20.8770008  19.8910007  40.5110016  21.2320004
  17.8349991  40.1619987  21.7959995  17.9360008  40.8790016  22.5690002
  16.9009991  40.4070015  21.1399994  17.4780006  38.9290009  22.5790005
  16.3209991  38.7859993  22.8899994  18.4519997  37.9749985  22.7500000
  19.3999996  38.0540009  22.3050003  18.0970001  36.6699982  23.3820000
  17.0139999  36.6090012  23.3309994  18.6919994  35.5299988  22.5990009
  19.7789993  35.5919991  22.5219994  18.5979996  34.6150017  23.2320004
  18.1499996  35.4589996  21.1509991  17.0820007  35.5260010  21.1210003
  18.4419994  36.3639984  20.6159992  18.6399994  34.2039986  20.4449997
  19.7049999  34.1969986  20.3959999  18.1940002  33.3720016  20.9549999
  18.0459995  34.3580017  19.0849991  17.1000004  34.6409988  18.9190006
  18.8099995  34.0929985  18.0310001  18.3349991  34.2220001  16.8069992
  17.4349995  34.6030006  16.6459999  18.9960003  34.1699982  16.0590000
  20.0839996  33.7579994  18.1819992  20.4799995  33.7719994  19.1110001
  20.6580009  33.4480019  17.4060001  18.4979992  36.5730019  24.9139996
  17.8360004  35.9319992  25.6940002  19.6170006  37.2360001  25.2360001
  20.0620003  37.7589989  24.5130005  20.0590000  37.5029984  26.6639996
  19.7439995  36.6459999  27.2590008  21.5470009  37.7500000  26.7180004
  21.8780003  38.4630013  26.0319996  21.7639999  38.1030006  27.7089996
  22.4060001  36.4910011  26.5170002  22.3330002  35.8050003  27.3199997
  21.9689999  35.9490013  25.6849995  23.8799992  36.7970009  26.3490009
  24.3430004  36.0019989  25.7029991  24.0230007  37.7369995  25.8519993
  24.5890007  36.7350006  27.7259998  24.0730000  37.3590012  28.5209999
  24.5569992  35.6809998  27.9839993  26.0070000  37.1510010  27.6009998
  26.4599991  36.4510002  26.9969997  26.1240005  38.0989990  27.1800003
  26.3869991  37.2970009  28.5179996  19.3180008  38.7039986  27.2509995
  19.1830006  39.7089996  26.5699997  18.8460007  38.6759987  28.4589996
  47.2097511  34.6636162  52.2912369  50.6922226  34.4825897  49.7080765
  49.7482300  35.5742531  50.2042389  48.4086304  35.1803055  50.8144722
  50.4740334  36.7603035  50.8771744  50.4295921  34.0179520  52.5808754
  49.8158989  34.0302162  53.9750328  48.2782555  34.2557411  53.9543076
  50.5556488  34.9160461  54.9980736  50.0646667  32.4745522  54.6005096
  49.0627899  31.2071991  54.7590141  48.2793503  31.3486748  56.0468369
  48.3454552  30.8770294  53.4568596  50.1797981  29.9989243  54.9106674
  51.1451378  30.0433178  55.9634972  50.6740723  29.9779797  56.9478798
  51.7283058  30.9687939  55.9160156  52.0620003  28.8150005  55.7739983
  52.8419991  28.7609997  56.5239983  51.3870010  27.6389999  55.8979988
  51.8419991  26.6229992  54.9889984  52.4059982  25.8279991  55.4510002
  50.5880013  26.0760002  54.3889999  49.4169998  26.7040005  54.0429993
  49.2999992  27.7439995  54.1139984  48.5169983  25.9510002  53.5900002
  49.0099983  24.6679993  53.7709999  48.5960007  23.3309994  53.5379982
  47.3940010  22.8999996  53.2330017  47.3279991  21.9080009  53.3240013
  46.5110016  23.4139996  53.2700005  49.4119987  22.3110008  53.7509995
  50.6049995  22.5949993  54.2579994  51.3170013  21.7310009  54.3009987
  51.1020012  23.7500000  54.5690002  50.2669983  24.7369995  54.2939987
  52.7570000  28.7439995  54.4119987  52.2420006  29.4099998  53.6580009
  54.0320015  29.3460007  54.4990005  53.9739990  30.2679996  54.8289986
  52.6870003  27.2830009  53.9309998  52.1990013  27.3150005  52.9370003
  53.9760017  26.7310009  53.7659988  54.5680008  27.4869995  53.7770004
  39.3779984  38.4900017  26.0100002  39.7150002  39.3409996  25.5739994
  41.1180000  39.2089996  25.6250000  41.4280014  40.0470009  24.9489994
  41.4609985  38.2859993  25.0820007  41.8680000  39.2570000  26.9109993
  42.9339981  39.0099983  26.6079998  41.8829994  40.5859985  27.2940006
  42.0009995  40.7239990  28.6289997  42.9570007  41.1959991  28.8759995
  40.8279991  41.5190010  29.0900002  39.5870018  41.7200012  28.4689999
  39.2939987  41.4039993  27.4349995  38.7130013  42.4169998  29.1919994
  39.4599991  42.7229996  30.2889996  39.2680016  43.5810013  31.4430008
  38.1300011  44.1080017  31.6910000  38.0530014  44.6360016  32.5309982
  37.2910004  43.8870010  31.2029991  40.1990013  43.7000008  32.3849983
  41.3429985  43.0449982  32.1679993  42.1389999  43.1290016  32.8969994
  41.7500000  42.3139992  31.1590004  40.7410011  42.2010002  30.2420006
  41.2960014  38.4959984  28.1270008  40.2039986  38.5480003  28.1219997
  41.9029999  39.3180008  29.1669998  41.2260017  39.3349991  30.0389996
  43.2169991  38.9589996  29.4659996  43.3930016  38.0369987  29.2779999
  41.6920013  37.1769981  28.1040001  40.8959999  36.0970001  28.9570007
  41.4879990  34.7980003  28.6620007  39.4830017  36.3370018  28.6009998
  40.9230003  36.3199997  30.5489998  42.1389999  36.2789993  31.2460003
  42.9630013  36.4259987  30.5590000  42.1769981  35.2400017  31.5779991
  42.1980019  37.1930008  32.4850006  43.1969986  37.2519989  32.9319992
  41.8079987  38.5489998  32.2960014  41.2319984  39.0099983  33.5149994
  41.8839989  39.7750015  33.9760017  39.9000015  39.5979996  33.2140007
  39.1180000  39.5079994  32.0999985  39.3489990  38.7779999  31.3700008
  38.0169983  40.2089996  32.1860008  38.1349983  40.9080009  33.4210014
  37.2509995  41.8059998  34.0670013  36.1990013  42.2400017  33.6230011
  37.6399994  42.0489998  35.3969994  37.0270004  42.6889992  35.9300003
  38.8069992  41.5579987  35.9150009  39.0239983  41.9210014  37.1780014
  38.3600006  42.4529991  37.6959991  39.9029999  41.6580009  37.6020012
  39.7179985  40.9010010  35.2719994  39.3199997  40.5289993  34.0250015
  41.2260017  36.6839981  33.5849991  40.2869987  36.3470001  33.1829987
  41.2109985  37.8370018  34.4710007  40.3959999  37.8979988  35.1980019
  42.3779984  37.9669991  35.3779984  42.8479996  37.1459999  35.2229996
  41.8769989  35.5200005  34.3019981  41.0159988  34.3650017  34.9830017
  41.9370003  33.4090004  35.5989990  40.1049995  33.8750000  33.9189987
  40.1629982  35.1030006  36.0929985  40.6510010  35.0909996  37.4480019
  41.6980019  35.2070007  37.4329987  40.2980003  34.1230011  37.8450012
  40.1730003  36.2410011  38.3810005  40.8779984  36.4140015  39.1689987
  39.9269981  37.4319992  37.6730003  38.8790016  38.1539993  38.3429985
  39.2869987  39.1780014  38.5740013  37.8019981  38.3409996  37.3699989
  37.6020012  37.7369995  36.1170006  38.2309990  37.0009995  35.7400017
  36.5800018  38.2150002  35.4169998  35.9780006  39.1769981  36.2389984
  34.8110008  39.9599991  36.2299995  33.9039993  39.8959999  35.3170013
  33.0239983  40.3880005  35.4319992  34.2760010  39.4360008  34.4669991
  34.4449997  40.6419983  37.3349991  35.2630005  40.6860008  38.3540001
  34.8730011  41.3279991  39.1870003  36.3870010  39.9500008  38.5419998
  36.7140007  39.2179985  37.4350014  38.7560005  35.9830017  39.0639992
  38.0519981  35.8030014  38.2449989  38.4459991  37.4329987  39.6080017
  37.4199982  37.5369987  39.7719994  39.2150002  37.8260002  40.6529999
  38.7570000  37.5830002  41.4830017  38.6129990  35.0169983  40.0950012
  37.2830009  34.1010017  40.2430000  37.3829994  33.2330017  41.4090004
  36.9889984  33.4519997  38.9970016  36.0099983  35.0270004  40.4710007
  35.8969994  35.6930008  41.6570015  36.8040009  36.2350006  41.8709984
  35.9370003  34.8909988  42.5099983  34.6710014  36.6459999  41.7010002
  34.7089996  37.1349983  42.6370010  34.8110008  37.5859985  40.6899986
  33.4760017  37.9129982  40.1940002  33.3230019  39.0110016  40.1339989
  33.1759987  37.4850006  38.8419991  34.0730019  36.7050018  38.0989990
  34.8959999  36.2550011  38.6269989  33.8429985  36.4659996  36.7529984
  34.5519981  35.9879990  36.0810013  32.6139984  36.9700012  36.2439995
  32.5470009  36.9599991  34.8650017  31.6760006  37.2350006  34.4399986
  33.2939987  36.5320015  34.3310013  31.7759991  37.7570000  36.8909988
  32.0839996  38.0940018  38.1800003  31.3349991  38.8889999  38.7939987
  33.3260002  35.9889984  41.6749992  33.3650017  35.2220001  40.8919983
  32.5019989  37.1710014  41.1679993  31.6049995  36.8610001  40.6310005
  32.1660004  38.1990013  42.1759987  31.8379993  37.7750015  42.9490013
  32.9309998  35.3359985  42.8330002  31.9920006  34.0349998  42.7729988
  32.6559982  33.1069984  41.7970009  31.8110008  33.5769997  44.1599998
  30.5739994  34.3339996  42.1450005  29.7029991  35.3359985  42.7700005
  30.2639999  36.2340012  42.9939995  29.2240009  35.0219994  43.6870003
  28.5529995  35.7610016  41.8989983  27.9909992  36.5369987  42.4150009
  29.0189991  36.3919983  40.7050018  28.1079998  36.2929993  39.6580009
  27.6329994  37.1769981  39.3810005  28.7420006  35.6199989  38.4339981
  29.9540005  34.9309998  38.5470009  30.4599991  34.8370018  39.5009995
  30.5790005  34.4729996  37.3950005  31.5349998  33.9469986  37.4150009
  29.8619995  34.4580002  36.0989990  30.3630009  34.0379982  35.0270004
  28.6520004  35.0730019  36.1020012  28.2980003  35.3510017  35.2029991
  28.0860004  35.7019997  37.2330017  27.0079994  36.1850014  37.1870003
  27.6439991  34.6570015  41.4430008  28.3719997  33.9129982  41.2400017
  27.0179996  35.3400002  40.2029991  26.7670002  34.5330009  39.5169983
  25.7539997  36.0040016  40.5120010  25.2609997  36.1360016  39.7319984
  26.7369995  34.3740005  42.4389992  25.9239998  33.0769997  42.3260002
  26.7240009  31.8850002  42.0190010  24.6700001  33.3680000  41.6049995
  25.4650002  32.9749985  43.8330002  26.4160004  33.3100014  44.8849983
  27.4200001  33.3699989  44.4860001  26.5049992  32.4360008  45.5820007
  26.1550007  34.5690002  45.7449989  26.9990005  34.6679993  46.3769989
  25.8279991  35.7130013  45.0009995  25.2509995  36.6640015  45.8569984
  26.0529995  37.2610016  46.3409996  24.4160004  37.6349983  45.0279999
  23.0809994  37.9679985  45.1829987  22.5060005  37.6879997  46.0589981
  22.6320000  38.8409996  44.3559990  23.7369995  39.0690002  43.5190010
  24.0340004  39.8139992  42.3250008  23.1800003  40.7140007  41.9000015
  23.3799992  41.1839981  41.0639992  22.2819996  40.7949982  42.3120003
  25.1989994  39.6940002  41.6559982  26.0580006  38.7939987  42.1080017
  26.9570007  38.6660004  41.5229988  26.0100002  38.0970001  43.2340012
  24.8519993  38.3559990  43.9389992  24.9050007  34.4210014  46.6230011
  24.0249996  34.0130005  46.1220016  24.4200001  35.8349991  46.9370003
  23.3430004  35.9679985  46.8750000  25.0459995  36.3510017  48.1689987
  25.1739998  35.5509987  48.7360001  25.2080002  33.5810013  47.7739983
  24.1889992  32.4210014  48.1320000  24.7740002  31.6340008  49.3160019
  23.8850002  31.7490005  46.8489990  22.8990002  33.1899986  48.7210007
  22.6900005  33.3759995  50.0890007  23.4979992  33.9840012  50.4589996
  22.6539993  32.5299988  50.7130013  21.3490009  34.2179985  50.2000008
  21.3349991  34.6619987  51.1730003  21.3880005  35.3549995  49.3499985
  20.0330009  35.6809998  48.9239998  19.7740002  36.7449989  49.1329994
  20.0620003  35.5559998  47.4339981  20.4069996  34.4550018  46.6679993
  20.8339996  33.5260010  47.0909996  20.3230000  34.6940002  45.3820000
  19.9729996  36.0849991  45.3230019  19.6630001  37.0219994  44.3120003
  19.7350006  36.7659988  43.0169983  19.4839993  37.5390015  42.4119987
  19.9640007  35.8820000  42.6030006  19.2980003  38.2680016  44.6409988
  19.2450008  38.6100006  45.9099998  18.8630009  39.6010017  46.1730003
  19.4610004  37.8779984  46.9700012  19.7999992  36.6170006  46.5859985
  20.0179996  33.5740013  49.9790001  20.1159992  32.9399986  49.1800003
  19.1000004  34.6819992  49.6059990  18.2959995  34.2360001  49.0009995
  18.5139999  35.3400002  50.7330017  18.1229992  34.6440010  51.2700005
  19.5349998  32.7500000  51.1010017  18.7560005  32.1780014  50.8440018
  69.7600021  61.7799988  57.7869987  57.1759987  39.1780014   8.3120003
  39.6040001  54.1380005   9.5139999  21.4039993  49.4280014  79.3330002
  28.8740005  76.5930023   8.2969999  77.5410004  53.4980011  45.8470001
  45.4959984  30.1800003  75.4390030  27.9360008  72.2819977  66.7770004
   3.4270000  64.2789993  22.1910000  48.0909996  58.2589989  71.7070007
   2.3610001  33.1759987  35.6749992  40.7109985   1.7110000  36.5060005
  19.6730003  56.7840004  72.2750015  31.9260006  68.3050003  74.4130020
  48.2070007  45.7519989  73.8079987  30.4510002  14.6020002  13.5450001
   1.6990000  33.8499985  61.0909996  36.5579987  78.2770004  51.9850006
  74.7809982  68.0540009  48.9869995  53.1629982   4.1980000  41.3050003
  53.1510010  19.0860004   0.4830000  56.5989990   8.4499998  28.0529995
  70.1620026  32.2439995   7.3160000   4.0970001  35.7719994  10.8879995
  65.3700027   9.8929996  58.9020004  21.7220001  -3.1080000  33.0940018
  21.6700001  52.7599983   7.5419998  69.0049973  41.2649994  32.0810013
  69.0599976  23.3820000  55.6139984  24.8619995  35.6730003  42.5429993
  47.4679985  39.6150017  38.3289986  29.5039997  23.3180008  61.1720009
  34.4099998  63.3069992  47.8250008  38.5960007  64.9100037  34.9329987
  29.8899994  35.0219994  11.7720003  31.6669998  60.8619995  20.0130005
  68.5149994  27.8619995  47.7639999   4.7919998  44.6780014  68.1100006
  26.3090000  72.0490036  71.5380020  64.6100006  44.6710014  30.7520008
  33.0519981  -1.8770000  36.3149986  45.6320000  62.3050003  24.0520000
  61.4889984  34.6739998   4.4640002  67.3209991  22.9799995  21.3880005
  73.4729996  62.8470001  55.3170013   8.2419996  42.3680000  13.7810001
  19.5650005  56.4669991   6.7160001   5.7859998  46.2130013   6.6939998
   2.0369999  52.6889992  53.3839989  15.8800001  60.3190002  72.5569992
  68.1829987  72.5719986  33.5070000  46.4339981  58.1559982  56.7459984
  22.1830006  30.8460007  45.4360008  33.9770012  78.3280029  40.4860001
  37.0429993  34.9150009   6.4850001  75.4290009  11.1470003  56.5950012
  42.5929985  81.1650009  49.0159988  54.0019989  32.4650002  79.5100021
   1.2170000  33.2949982  20.4230003  60.5309982   9.3199997  16.4510002
  57.7420006  30.3640003  60.9980011  57.8660011  30.5680008  61.9169998
  58.4780006  30.8509998  60.5499992  70.2360001  27.2639999  59.6980019
  70.9319992  26.7840004  59.2649994  69.8710022  27.8260002  58.9350014
  51.3650017  30.2159996  59.7939987  52.0410004  29.5359993  59.5499992
  50.5530014  29.7500000  59.5530014  53.7599983  17.5970001  59.5029984
  52.9809990  17.1749992  59.0489998  53.3199997  17.8439999  60.3510017
  46.8330002  26.8540001  59.3810005  46.0209999  26.4839993  59.7849998
  46.5940018  27.8220005  59.4539986  43.5019989  35.5639992  69.0049973
  44.4679985  35.5620003  69.0589981  43.2960014  36.5089989  69.2839966
  41.7960014  12.8699999  60.2719994  41.8470001  13.7729998  60.7309990
  41.2849998  12.4029999  60.9440002  35.4679985  38.0499992  75.5780029
  35.3279991  39.0540009  75.6729965  36.1699982  38.1209984  74.8799973
  64.1740036  36.3409996  61.9790001  64.0380020  36.3650017  62.9620018
  63.4049988  36.9379997  61.7459984  37.2659988  18.6340008  71.8280029
  37.2789993  19.6100006  72.1679993  37.8429985  18.2469997  72.5179977
  48.1180000  33.0029984  70.7509995  47.2939987  32.8730011  71.3059998
  48.1370010  32.0839996  70.4499969  41.7869987  33.3559990  68.8410034
  42.5139999  33.9650002  69.0339966  41.3750000  33.8069992  68.0920029
  21.6609993  -0.2210000  23.6779995  22.4489994  -0.8030000  23.9360008
  22.0699997   0.6400000  23.8470001  45.3800011  29.9729996  64.4830017
  46.3460007  29.8470001  64.8050003  45.5200005  30.7129993  63.8800011
  46.8849983  34.0400009  68.6539993  46.5719986  34.8899994  69.0790024
  47.4410019  33.7050018  69.3690033  46.5149994  41.1300011  64.2949982
  46.1739998  40.9700012  63.4000015  47.3889999  40.6110001  64.1600037
  23.8080006  -3.9000001  22.9029999  24.0410004  -4.8330002  22.8020000
  24.4729996  -3.4300001  22.4459991  25.7169991  57.2809982  69.3730011
  26.1940002  58.0779991  69.7180023  26.4209995  56.6450005  69.5329971
  32.9939995  46.3619995  68.9749985  33.0390015  47.3260002  68.8529968
  33.2000008  46.0480003  68.1100006  52.9510002  53.4210014  57.0040016
  52.4830017  52.8460007  57.5449982  52.2540016  54.0169983  56.6250000
  41.8769989  54.7630005  64.2089996  41.6380005  54.7290001  63.3199997
  42.6150017  55.4099998  64.1549988  41.5419998  46.7550011  63.2630005
  41.0919991  46.0919991  63.8069992  41.1780014  46.4869995  62.3849983
  42.7910004  51.8300018  73.4509964  42.9939995  52.2750015  72.5520020
  43.6679993  51.4679985  73.6149979  55.1780014  51.0169983  53.5579987
  55.0480003  51.0779991  54.5859985  56.1780014  51.1699982  53.6599998
  54.9039993  47.0600014  62.0470009  53.9799995  47.3489990  62.0680008
  54.8820000  46.3069992  62.7150002  47.5410004  43.4350014  65.1139984
  47.0400009  42.5999985  65.0319977  48.2750015  43.1910019  64.4589996
  56.1020012  44.7560005  50.1300011  56.0690002  44.7299995  49.1069984
  55.6170006  43.9399986  50.2719994  60.4210014  42.9020004  51.9669991
  59.7210007  42.3769989  52.3779984  59.8979988  43.6199989  51.5180016
  56.0719986  53.7980003  60.3330002  55.4420013  54.5009995  60.1699982
  56.6389999  54.1769981  60.9889984  55.5270004  30.2900009  59.0769997
  54.9490013  29.5209999  58.8089981  56.3069992  29.8570004  59.4220009
  56.9379997  33.0270004  53.3629990  56.8440018  33.8889999  53.8110008
  56.3260002  33.0929985  52.6160011  62.8100014  23.4750004  61.6669998
  63.7820015  23.5610008  61.7599983  62.5750008  22.9459991  62.4570007
  48.9770012  22.9920006  59.0550003  48.9679985  22.6089993  59.9469986
  48.0270004  22.7730007  58.7589989  57.5190010  30.1870003  70.5630035
  56.6739998  29.8570004  70.1119995  58.0480003  29.3509998  70.5619965
  39.6450005  33.3660011  70.9840012  39.5099983  34.2779999  71.2200012
  40.5260010  33.3050003  70.6320038  40.0849991  34.6310005  76.2910004
  39.2060013  34.9070015  76.6910019  39.7109985  33.8790016  75.7289963
  25.6100006  39.9889984  70.4140015  26.2539997  39.8590012  71.0940018
  25.3209991  40.9420013  70.5070038  21.9480000  36.2169991  66.9980011
  22.5209999  36.3530006  66.2099991  21.5179996  35.3909988  66.7320023
  52.9519997  71.3089981  16.9759998  53.3069992  70.3840027  16.9080009
  53.6110001  71.6269989  17.6270008  19.8099995  47.2410011  78.1709976
  20.4109993  46.8279991  77.4800034  20.4270000  47.9140015  78.5189972
  35.4430008  30.3939991  71.8420029  36.1479988  31.0380001  71.6409988
  34.9819984  30.3950005  70.9390030  36.2379990  39.1049995  43.9889984
  37.0229988  38.5349998  44.0379982  36.3520012  39.4990005  43.1310005
  53.7389984  45.6209984  70.1159973  53.5940018  45.4249992  71.0709991
  53.4300003  46.5489998  70.0360031  39.1660004  24.3999996  50.7319984
  39.7239990  25.1959991  51.0709991  38.3670006  24.6499996  51.2949982
  33.3660011  46.6559982  65.8300018  33.2019997  46.4679985  64.9130020
  34.1590004  46.1150017  66.0220032  46.3390007  46.5229988  68.3960037
  46.7919998  46.2820015  67.5410004  45.9379997  47.3629990  68.2119980
  50.8050003  51.6279984  55.7540016  51.5169983  51.0909996  55.5579987
  50.7540016  51.5849991  56.7400017  42.3689995  23.4060001  58.9000015
  41.8639984  23.8099995  58.1220016  41.7430000  23.4869995  59.6180000
  54.6619987  45.4249992  64.2129974  54.0089989  45.9640007  64.6999969
  54.1469994  44.5940018  64.0260010  30.9589996  25.2870007  58.0130005
  30.9990005  25.9979992  58.6689987  30.3139992  24.6739998  58.5149994
  26.7649994  28.7019997  52.7500000  27.3090000  29.3700008  52.2480011
  25.8959999  28.9050007  52.3450012  11.6459999  39.5760002  45.9550018
  12.2100000  38.9760017  46.4500008  10.7360001  39.1790009  46.2029991
  28.4319992  27.4619999  56.0250015  29.0820007  28.1989994  56.2859993
  27.6749992  27.7080002  56.6259995  27.5690002  26.2420006  53.7849998
  27.3799992  27.0209999  53.3069992  27.6499996  26.5709991  54.7159996
  37.6710014  17.3530006  46.7290001  37.5390015  18.2380009  47.2150002
  38.4490013  17.0370007  47.2589989  26.8050003  27.8250008  58.0940018
  26.9179993  27.1539993  58.8440018  25.9029999  28.2010002  58.3740005
  27.1289997  26.0830002  59.9000015  27.8209991  25.5090008  59.5550003
  26.8540001  25.5900002  60.7039986  13.2559996  20.1189995  53.2229996
  13.9189997  20.0090008  53.9930000  12.6990004  19.3360004  53.4140015
  15.8269997  33.6020012  48.3429985  15.3760004  33.6940002  47.4760017
  16.1569996  34.5680008  48.3699989  22.4720001  47.2809982  58.8199997
  21.4979992  47.1769981  58.6419983  22.6280003  48.1370010  58.3209991
   8.2939997  29.4330006  62.3849983   9.2559996  29.2329998  62.5839996
   8.2869997  29.2189999  61.4440002  29.4309998  33.4570007  70.6869965
  29.9349995  34.1489983  70.1800003  28.5590000  33.7859993  70.5189972
  28.5900002  32.8680000  63.3069992  28.0489998  32.3040009  63.8600006
  28.9750004  32.2480011  62.6920013  24.8260002  35.2309990  57.9480019
  25.5629997  35.7750015  57.6409988  24.8980007  35.2480011  58.9059982
  17.3439999  40.0769997  55.2690010  17.6219997  39.2680016  54.7910004
  17.3710003  39.7529984  56.2019997  65.6660004  38.6660004  46.4280014
  64.9380035  38.3979988  47.0429993  65.6220016  38.0499992  45.7290001
  31.3169994  35.1520004  46.2470016  30.6509991  34.6570015  46.7659988
  31.5209999  34.4980011  45.5379982  56.6790009  25.1149998  59.7319984
  55.7970009  25.1660004  60.1250000  56.8190002  24.1459999  59.7649994
  19.7789993  47.6040001  41.8889999  19.6970005  46.7639999  41.3629990
  20.3939991  47.3660011  42.6049995  24.8209991  50.7750015  47.6780014
  25.4810009  50.2519989  48.1209984  24.8250008  51.5750008  48.2260017
  20.6060009  48.6720009  46.2239990  21.1959991  48.8250008  46.9760017
  20.5380001  47.6879997  46.2080002  20.6459999  40.8190002  43.6160011
  20.0769997  40.6240005  42.9140015  21.0319996  39.9850006  43.8909988
  22.4829998  46.9879990  66.0080032  22.5209999  46.2550011  65.3440018
  21.4829998  47.0950012  66.0339966  21.3020000  61.0000000  69.1460037
  20.6620007  60.6399994  68.4449997  22.0000000  60.3209991  69.0029984
  17.4720001  47.1710014  50.6619987  16.5769997  47.3740005  50.2989998
  18.0510006  47.1940002  49.8139992  17.3759995  41.6170006  60.9920006
  16.9699993  41.7029991  61.8909988  17.9519997  42.4399986  61.0760002
  21.3309994  48.9280014  54.9290009  20.5440006  48.5929985  55.4099998
  21.8199997  49.3870010  55.6899986  19.3889999  64.3769989  22.9389992
  18.4950008  64.1549988  22.6259995  19.5970001  63.6370010  23.5419998
  55.1479988  46.1199989  52.2080002  55.1189995  45.4830017  52.9319992
  55.6459999  45.5970001  51.5680008   8.2500000  46.8330002  67.2170029
   7.4650002  46.8470001  66.6340027   8.6910000  45.9900017  66.9120026
  64.9649963  40.4459991  56.2519989  64.9670029  41.1549988  55.5110016
  64.5960007  40.8919983  57.0000000  74.5650024  38.6209984  64.0540009
  74.4649963  37.8750000  64.6729965  74.6890030  38.2010002  63.1839981
  65.8379974  34.8510017  48.5489998  66.0630035  35.3289986  47.7060013
  66.7310028  34.9609985  49.0040016  57.4070015  48.7019997  30.4400005
  58.1020012  49.3409996  30.3129997  57.7280006  48.2080002  31.2320004
  54.0639992  31.7759991  28.1949997  54.9399986  31.8449993  27.8150005
  53.9430008  30.8050003  28.3430004  18.1040001  65.8720016  54.0730019
  18.4330006  65.0500031  54.4230003  18.7339993  66.5439987  54.4860001
  48.7482224  38.5791473  50.7435417  49.4887695  37.8772812  50.7552261
  48.4146004  38.6946182  49.8391533  49.0598869  36.2781372  48.7514496
  49.7137299  36.6733971  48.1195412  47.5185432  36.9255981  48.9632835
  58.8839989  30.8789997  18.1949997  58.7140007  31.5939999  18.8360004
  58.0139999  30.3969994  18.2189999  67.4960022  14.3389997  24.5680008
  66.6119995  14.0249996  24.3850002  67.6959991  13.8420000  25.3750000
  45.2639999  40.4099998  38.0760002  44.4239998  40.1220016  37.7070007
  44.9669991  41.2449989  38.5519981  57.8190002  16.8670006  43.7249985
  58.0760002  17.8400002  43.4589996  57.7830009  16.5459995  42.7789993
  36.2820015  40.0600014  41.6090012  36.4239998  41.0260010  41.4980011
  36.2080002  39.8629990  40.6440010  34.3800011  23.9459991  27.1520004
  35.2690010  23.6100006  26.9330006  34.6199989  24.6420002  27.7630005
  59.7560005  10.2329998  21.5400009  60.4959984   9.9099998  22.0990009
  59.9160004  11.1949997  21.6770000  24.0489998  48.2729988  53.6049995
  24.1720009  47.3050003  53.5009995  23.4319992  48.2470016  54.3880005
  41.7869987  60.0709991  62.6469994  40.8330002  60.2430000  62.6959991
  42.0180016  60.9140015  62.1689987  41.9900017  55.1139984  58.9329987
  41.0890007  55.5309982  58.7830009  41.9760017  55.0719986  59.9249992
  28.4430008  46.7779999  54.6910019  27.8939991  45.9570007  54.7750015
  27.8180008  47.4490013  54.3489990  46.2050018  11.7449999  40.3149986
  46.4620018  11.9580002  39.3880005  45.3989983  11.2430000  40.2000008
  26.5730000  56.5690002  59.7220001  26.8220005  56.2439995  60.6119995
  26.1429996  55.7879982  59.3489990  33.2540016  54.3180008  67.3349991
  32.8629990  55.1389999  67.6809998  32.4589996  53.7550011  67.4290009
  28.0599995  47.8209991  63.2900009  28.5279999  48.2859993  62.5629997
  27.1210003  47.9809990  62.9990005  52.8199997  50.4189987  52.5589981
  52.4970016  50.0750008  53.4389992  53.7579994  50.6660004  52.7779999
  45.8040009  47.7739983  42.1090012  45.8650017  47.0810013  42.7690010
  45.6529999  48.5750008  42.6310005  54.7159996  51.7159996  56.0540009
  54.1510010  52.5639992  56.1739998  55.2570000  51.7729988  56.8740005
  50.0600014  52.9910011  42.2400017  50.4389992  53.3180008  41.3979988
  50.8170013  52.4700012  42.5379982  27.3260002  60.1570015  19.7360001
  28.1289997  60.1259995  20.2740002  27.3939991  59.3429985  19.1989994
  65.6589966  43.9809990  58.4910011  65.9619980  43.8689995  57.5709991
  65.2119980  43.1399994  58.6399994  66.2919998  41.4550018  40.8740005
  65.5490036  41.9329987  41.2330017  66.3700027  40.7570000  41.5610008
  59.1360016  44.8810005  55.5559998  58.8310013  45.5890007  56.1559982
  58.8930016  45.2879982  54.7080002  55.3839989  44.6230011  47.5890007
  55.2639999  45.6240005  47.5379982  55.9329987  44.5340004  46.8030014
  59.1599998  39.2550011  41.4790001  59.3499985  39.7639999  42.3120003
  58.2599983  38.9189987  41.7019997  52.7529984  43.1180000  61.8199997
  53.5789986  43.0120010  61.2589989  52.4309998  43.9640007  61.3160019
  56.5120010  46.3339996  59.9430008  55.9029999  45.8069992  59.3240013
  55.7989998  46.4770012  60.6679993  58.0839996  36.5200005  48.8129997
  58.4609985  36.8320007  49.6559982  57.7290001  35.6539993  49.0810013
  64.5410004  33.8160019  52.3240013  64.6409988  33.2690010  53.1020012
  63.6949997  34.3489990  52.5670013  63.5400009  38.2220001  48.7060013
  63.4169998  37.2840004  48.9339981  62.7060013  38.5629997  49.1329994
  71.9499969  29.5960007  51.5660019  72.2040024  30.4740009  51.1230011
  71.2300034  29.8320007  52.1209984  65.5400009  42.3810005  53.8839989
  64.7819977  42.7179985  53.3600006  65.8199997  41.6419983  53.3300018
  55.7400017  33.1809998  59.4790001  54.7789993  33.3660011  59.5309982
  55.6990013  32.2179985  59.4319992  64.3679962  29.4290009  56.4220009
  63.5820007  29.7549992  55.9819984  65.0250015  30.1240005  56.3880005
  60.5320015  33.8260002  62.5180016  60.2330017  34.6879997  62.2690010
  60.5400009  33.3940010  61.6489983  63.2840004  35.6409988  48.9109993
  62.7599983  35.1899986  49.6389999  64.1060028  35.1559982  49.0369987
  66.2570038  35.9879990  46.0200005  66.2710037  36.4370003  45.1520004
  65.8949966  35.0870018  45.7089996  70.3270035  32.8899994  47.5209999
  69.6760025  33.6450005  47.4119987  70.7020035  33.2210007  48.3750000
  72.1699982  28.6919994  45.2290001  71.3150024  28.5170002  45.6259995
  72.6340027  29.1709995  45.9249992  69.3069992  30.1180000  47.0719986
  69.1320038  30.4459991  46.1489983  69.5839996  31.0079994  47.4339981
  71.5759964  40.3860016  39.8009987  72.0719986  39.6889992  39.3569984
  72.1640015  40.6040001  40.5690002  47.1020012  46.3740005  37.2120018
  46.8610001  46.8740005  38.0239983  46.2029991  46.4140015  36.7470016
  64.7310028  44.7659988  22.6630001  65.5159988  45.1669998  23.1599998
  65.2659988  44.2210007  22.0359993  74.2819977  47.1160011  27.5119991
  75.1490021  46.6539993  27.5389996  73.7220001  46.3470001  27.3670006
  78.7809982  42.8689995  35.7820015  78.8730011  43.7159996  36.3460007
  77.9469986  43.1710014  35.2840004  68.8359985  29.7989998  34.0209999
  69.0319977  30.5559998  34.6380005  69.4779968  29.1280003  34.3429985
  65.0749969  30.5049992  27.4430008  64.6669998  30.2040005  26.6079998
  64.3410034  31.0909996  27.7399998  69.0579987  39.2190018  29.6650009
  69.4469986  40.1020012  29.8090000  68.7529984  39.0740013  30.6089993
  71.5309982  31.4680004  29.5249996  71.0139999  31.2360001  30.3379993
  71.5500031  32.4469986  29.6270008  73.4010010  36.5960007  28.1110001
  72.5100021  36.5050011  28.5779991  73.0930023  37.0639992  27.2740002
  56.9770012  33.2290001  22.2570000  56.5260010  34.0120010  21.8230000
  57.5559998  33.6809998  22.9090004  55.9550018  36.9420013  18.5060005
  56.1269989  37.1349983  19.4440002  56.0789986  37.8240013  18.1030006
  52.2980003  33.7729988  27.3129997  51.9650002  33.2949982  26.5580006
  52.9729996  33.1230011  27.6980000  52.7410011  36.9189987  27.3110008
  52.7480011  35.9739990  27.2700005  53.5369987  37.1529999  26.7929993
  32.0110016  61.2649994  50.6839981  31.8439999  60.6580009  49.9290009
  32.3549995  60.6829987  51.3839989  58.8720016  33.0859985  20.0119991
  58.1199989  33.3440018  20.5550003  58.6349983  33.5929985  19.1849995
  40.9049988  56.1710014  53.6739998  40.1380005  56.4949989  54.2509995
  41.6339989  56.3530006  54.3160019  58.3759995  21.4950008  23.0529995
  58.2249985  22.3850002  22.5979996  59.2919998  21.6240005  23.3670006
  62.2099991  22.3010006  26.1219997  62.0830002  21.7539997  26.9020004
  62.3409996  23.2040005  26.4790001  46.9319992  51.6580009  43.7099991
  47.1809998  52.0870018  44.6300011  46.5130005  50.8479996  44.1129990
  63.8240013  23.7119999  23.9790001  64.7040024  23.3990002  23.6569996
  63.5699997  22.8360004  24.3670006  60.0000000  27.4370003  19.2159996
  60.3689995  28.3820000  19.1289997  59.5940018  27.3610001  18.3600006
  74.7529984  23.0750008  31.3509998  74.4420013  23.9699993  31.0860004
  74.4520035  22.6100006  30.5160007  66.2730026  20.8980007  20.8880005
  65.5090027  21.0970001  20.3369999  66.5759964  19.9950008  20.5520000
  74.1080017  21.4799995  36.1459999  73.6890030  20.8290005  35.5309982
  74.0599976  20.9669991  36.9970016  58.3310013  21.2689991  36.0070000
  58.5149994  20.9950008  36.9930000  58.3689995  20.3029995  35.6419983
  63.1129990  20.5660000  45.1310005  62.8279991  21.3799992  44.6969986
  62.6360016  19.8910007  44.5670013  58.9620018   9.9250002  36.2430000
  58.4710007  10.6510000  36.5209999  58.7029991   9.8219995  35.2849998
  52.4889984   9.6180000  31.8279991  52.7849998  10.4820004  32.1139984
  51.9259987   9.3500004  32.5919991  63.9140015  15.5260000  33.1160011
  64.4339981  15.2460003  32.2820015  64.3779984  16.3369999  33.3390007
  62.6599998  19.1739998  41.9560013  61.7960014  19.3260002  42.4490013
  63.1609993  18.6089993  42.5449982  58.3559990  10.9980001  54.2509995
  58.8889999  10.5220003  54.9309998  57.6969986  10.2869997  54.0530014
  19.6140003  49.9990005  14.3529997  18.7199993  49.8009987  14.8310003
  19.8470001  50.7849998  14.8830004  45.6990013  36.1570015  33.1040001
  46.0559998  36.6699982  33.8559990  46.5029984  35.6440010  32.7989998
  46.3409996  39.1629982  31.5319996  45.6759987  38.5159988  31.2329998
  45.7210007  39.8050003  31.9400005  26.8230000  51.5169983   5.6510000
  26.3659992  51.7280006   6.4889998  27.3069992  50.6669998   5.9060001
  38.3499985  15.5810003   9.0059996  38.0559998  15.7969999   8.0419998
  37.4920006  16.0760002   9.3780003  34.6800003  26.8400002  24.0470009
  34.7220001  27.0520000  23.0939999  35.0270004  25.9689999  24.0279999
  33.1839981  23.3929996  24.3430004  34.0019989  22.8040009  24.1650009
  33.3759995  23.6380005  25.2129993  15.0039997  44.9749985   7.1529999
  14.2889996  45.2680016   6.4819999  15.7939997  45.3059998   6.6739998
  16.8479996  50.6090012  12.7849998  16.2180004  50.5159988  13.4879999
  16.9829998  51.5600014  12.7489996  21.5949993  48.4309998   4.5339999
  21.2089996  49.2820015   4.9120002  20.7380009  47.9589996   4.4130001
  22.4120007  49.6529999   8.5939999  22.1870003  50.5589981   8.2939997
  22.9869995  49.3209991   7.8629999  41.5060005  18.8260002  20.9680004
  41.3429985  18.4529991  21.8649998  42.1739998  18.1930008  20.6429996
  22.2810001  60.2519989  17.8220005  21.4290009  60.4029999  17.4179993
  22.5979996  59.4360008  17.3840008  26.5590000  63.5320015  18.4270000
  27.2240009  63.7330017  19.0970001  25.7369995  63.4799995  18.8969994
  45.6440010  20.5660000  26.0590000  45.1279984  21.2350006  25.5270004
  45.6279984  19.8299999  25.4050007  53.5940018   5.1609998  23.9319992
  52.8779984   4.6259999  24.3509998  54.2449989   5.1510000  24.6749992
  43.9770012  18.4470005  33.9570007  44.8680000  18.7129993  33.8160019
  43.6100006  19.3139992  34.2659988  43.1580009  21.0660000  32.2029991
  42.2420006  21.3010006  31.9860001  43.0909996  20.9090004  33.1199989
  39.8720016  25.1639996  27.2759991  39.3769989  25.9939995  27.1469994
  40.7999992  25.5639992  27.3010006  44.1629982  29.5289993  32.4809990
  43.8129997  30.4449997  32.4980011  43.9970016  29.3099995  33.3989983
  44.2280006  27.8339996  30.2479992  44.1370010  28.3409996  31.0930004
  43.7389984  28.3880005  29.6590004  33.4850006  25.9799995  31.3959999
  32.5789986  26.3829994  31.2380009  33.5919991  26.1499996  32.3510017
  39.6629982  32.5950012  24.5459995  38.9739990  33.2690010  24.5060005
  40.2200012  33.0200005  25.3040009  37.8740005  22.4179993  44.3079987
  38.4659996  21.8560009  44.9309998  37.2900009  22.7049999  45.0919991
  33.8120003  27.3680000  42.1380005  34.2449989  26.5370007  42.3800011
  32.9440002  27.0580006  41.7430000  34.2579994  23.2420006  31.0200005
  33.7589989  22.9330006  31.8230000  34.0070000  24.2049999  31.1679993
  37.8750000  21.7099991  41.6160011  37.6990013  22.5569992  41.2709999
  37.9329987  21.9050007  42.5960007  45.9169998  25.9319992  46.7799988
  45.1220016  26.1450005  46.3180008  45.7900009  26.5459995  47.5499992
  49.3370018   6.7340002  42.5120010  49.0929985   6.2610002  43.3050003
  49.3390007   6.0430002  41.8330002  42.5130005  39.7039986  37.2420006
  42.1619987  39.2430000  38.0359993  41.9760017  39.1609993  36.5709991
  48.4259987  38.4930000  33.2439995  47.8779984  38.0699997  33.9300003
  47.7070007  38.6679993  32.5709991  44.6469994  34.3919983  43.4799995
  44.5359993  33.4430008  43.3110008  44.9749985  34.4070015  44.3930016
  47.2080002  40.4720001  42.7519989  46.3279991  40.0460014  42.8390007
  47.5449982  40.1619987  41.9199982  53.3779984  26.2409992  46.0970001
  53.4049988  27.2390003  46.1699982  53.6769981  26.0060005  47.0029984
  50.0839996  19.8199997  45.0789986  49.1609993  19.7129993  44.7000008
  50.1100006  20.8020000  45.1580009  58.4290009  23.1569996  46.8919983
  57.9780006  23.5610008  46.1489983  59.1389999  23.8430004  47.0400009
  58.3950005  14.2969999  46.0870018  58.3260002  13.5109997  45.4790001
  58.5719986  13.7629995  46.9210014  62.6059990  41.9959984  38.2449989
  62.5709991  42.8889999  38.6839981  63.4599991  42.1839981  37.6940002
  50.9959984  37.4589996  32.6870003  50.0620003  37.8269997  32.6010017
  51.0079994  36.8899994  31.8680000  66.7369995  47.0559998  27.6630001
  66.0820007  46.6879997  27.0760002  66.1409988  47.6510010  28.2399998
  42.1320000  44.1230011  36.1199989  41.2649994  44.3510017  35.6809998
  42.2820015  44.9010010  36.6910019  43.1910019  64.7470016  29.2700005
  43.8600006  64.0479965  29.2019997  42.3740005  64.2050018  29.2380009
  42.5779991  59.7919998  24.8530006  43.4920006  59.3720016  25.0419998
  42.9179993  60.6539993  24.5340004  45.6339989  63.3139992  29.4260006
  45.6069984  62.5709991  30.0580006  45.8180008  64.0830002  30.0230007
  40.7229996  69.2190018  16.6879997  40.9620018  68.4229965  16.0820007
  41.1339989  69.9359970  16.1730003  39.7130013  58.6150017  20.7530003
  40.0029984  59.4729996  20.4729996  38.8619995  58.8089981  21.1580009
  45.8610001  65.2699966  11.8979998  44.9690018  64.8389969  11.5959997
  46.4399986  64.4850006  11.7069998  18.3059998  66.2399979  14.8690004
  17.6200008  65.5680008  14.5889997  17.9740009  67.0199966  14.3990002
  31.3920002  58.2210007  22.8500004  30.9400005  57.5070000  22.2660007
  31.9489994  58.6119995  22.1679993  33.1419983  54.5940018  21.4820004
  33.3540001  55.3219986  22.1660004  33.0960007  55.1879997  20.7220001
  32.5849991  62.2599983  30.3029995  33.4020004  62.0390015  30.7269993
  31.9659996  62.3260002  31.0380001  37.3240013  63.1310005  33.5390015
  37.0019989  63.7789993  32.8930016  36.6809998  63.3190002  34.2709999
  37.5379982  48.8349991  20.5419998  37.7350006  49.1459999  21.4480000
  37.6800003  49.7290001  20.0960007  49.6629982  46.6549988   8.5439997
  49.0900002  46.9500008   9.2019997  49.7999992  45.7120018   8.7089996
  49.9879990  47.8370018  45.6300011  49.9239998  47.6800003  46.6090012
  49.7960014  46.8969994  45.3720016  47.9620018  41.7859993  37.9140015
  48.6339989  42.2919998  38.4350014  47.7760010  42.3870010  37.2220001
  52.1990013  47.1870003  43.2089996  51.4939995  47.5340004  42.6609993
  52.5149994  48.0320015  43.5999985  49.2649994  47.3339996  42.4510002
  49.1129990  48.1409988  41.9360008  49.0519981  47.6059990  43.3339996
  57.8699989  37.2999992  46.4039993  56.9269981  37.0909996  46.0970001
  57.8349991  36.9949989  47.3380013  53.9179993  25.7280006  48.8839989
  54.8240013  25.6459999  48.7550011  53.7039986  25.2549992  49.7560005
  57.3409996  33.9869995  49.5149994  57.6240005  33.1180000  49.2439995
  56.6629982  33.8349991  50.1609993  65.5879974  26.3999996  54.1220016
  65.1910019  26.3290005  53.1930008  64.7659988  26.5020008  54.6119995
  63.3610001  27.6389999  49.0610008  64.2050018  27.1770000  49.3470001
  63.7649994  28.4629993  48.7849998  60.8040009  18.4169998  45.9490013
  60.8279991  18.8619995  45.0519981  60.0550003  17.7989998  45.7999992
  61.0419998  26.9430008  50.5639992  61.3790016  26.9659996  51.4700012
  61.7910004  27.3810005  50.0950012  66.2630005  18.5470009  49.9230003
  66.7829971  19.2719994  49.6150017  66.4540024  18.5590000  50.8849983
  66.7440033  25.9260006  60.5060005  66.2949982  26.6539993  60.0200005
  67.1999969  26.4519997  61.1850014  71.1949997  14.6359997  37.3460007
  70.4229965  14.7919998  37.9430008  71.7760010  15.4180002  37.5989990
  61.6609993  23.4869995  45.4869995  61.0559998  24.1779995  45.9090004
  62.2799988  24.0610008  44.9650002  58.5830002  26.0680008  50.0429993
  59.5159988  26.3840008  50.1889992  58.4230003  26.4179993  49.1469994
  65.9800034  28.3029995  46.7500000  65.1989975  28.8950005  47.0470009
  65.5999985  27.8419991  46.0620003  63.9749985  25.5529995  36.6539993
  64.9479980  25.5820007  36.4850006  64.0169983  25.7859993  37.6399994
  64.0690002  40.6090012  28.8250008  64.0400009  39.6409988  29.0209999
  64.3919983  40.9090004  29.7360001  65.0019989  38.1139984  23.3689995
  65.6169968  37.3909988  23.0440006  64.6829987  37.6310005  24.2059994
  57.9329987  39.9910011  30.7129993  57.2900009  39.2330017  30.6970005
  58.4309998  39.8120003  31.5410004  64.2760010  48.8289986  25.2639999
  65.1819992  49.2010002  25.3090000  64.1709976  48.8670006  24.2670002
  65.8669968  44.9360008  38.6559982  65.7850037  44.3670006  37.8969994
  65.5130005  45.7550011  38.2919998  59.2509995  49.1510010  37.6329994
  60.0670013  48.6720009  37.7809982  58.6310005  48.4749985  37.3050003
  51.4389992  47.5120010  34.4609985  52.2089996  47.4370003  35.1250000
  51.5559998  46.6440010  34.0699997  50.9780006  50.4249992  39.7820015
  50.3040009  51.0180016  39.4239998  51.7719994  50.9910011  39.5820007
  62.4659996  51.8540001  38.4869995  62.4020004  51.7360001  37.4959984
  61.5379982  51.8139992  38.7529984  49.3590012  57.9720001  49.1069984
  50.2060013  57.5950012  48.9589996  49.0589981  57.4949989  49.8470001
  62.2430000  52.2929993  22.9909992  61.5660019  52.2389984  23.7430000
  62.3370018  53.2639999  22.9939995  50.8639984  56.5699997  30.8400002
  50.3769989  55.7140007  30.7150002  51.4399986  56.2739983  31.5890007
  53.9099998  54.1510010  28.1609993  53.9809990  53.8269997  29.1130009
  53.4879990  55.0600014  28.3959999  53.1230011  51.0579987  28.6599998
  53.3100014  51.5589981  29.5030003  54.0400009  50.6669998  28.5839996
  50.1119995  49.2719994  32.9620018  50.3720016  49.9319992  33.6069984
  50.5489998  48.4780006  33.3530006  46.2140007  47.9480019  39.4720001
  46.0830002  47.7939987  40.4090004  46.7309990  48.7890015  39.4959984
  49.1500015  44.3499985  37.1479988  48.7080002  45.2319984  36.9570007
  49.2060013  44.4830017  38.1389999  42.0919991  58.5169983  27.9899998
  42.0890007  57.5289993  27.6849995  42.3629990  58.9259987  27.1709995
  54.6769981  58.1479988  26.6749992  55.0209999  58.8569984  26.1720009
  53.9059982  58.4879990  27.1569996  41.8400002  56.2200012  32.1959991
  42.2190018  57.0349998  32.6329994  42.1570015  55.5299988  32.9049988
  36.9900017  61.9749985  30.2229996  37.4669991  61.1199989  30.3999996
  36.2130013  61.6969986  29.7010002  37.0340004  45.9319992  33.5309982
  36.1399994  45.5950012  33.5320015  36.9150009  46.8680000  33.7900009
  22.8719997  51.7120018  50.9169998  23.6749992  52.0849991  50.6240005
  22.2110004  52.4099998  50.6479988  23.4629993  55.7019997  42.1699982
  24.2290001  55.5660019  41.6570015  22.8400002  56.2010002  41.6010017
  24.7800007  50.6739998  52.4529991  23.8290005  50.9099998  52.2249985
  24.6889992  49.7849998  52.9020004  23.5779991  53.9090004  59.1640015
  23.9680004  54.6599998  58.6290016  23.1730003  54.4059982  59.8730011
  14.2119999  58.1879997  54.0830002  13.6879997  57.5730019  54.6129990
  14.4899998  58.8089981  54.7540016  27.0550003  69.2009964  44.0709991
  27.8069992  68.5839996  44.1940002  26.5470009  68.7289963  43.3489990
  30.6690006  65.8229980  37.9589996  30.6630001  65.4499969  38.9129982
  30.0370007  66.5469971  38.1320000  38.3750000  59.0229988  45.4370003
  39.2919998  59.2879982  45.0750008  38.2480011  59.8209991  45.9780006
  37.3629990  56.4580002  52.0870018  37.6599998  55.6010017  52.3930016
  36.9889984  56.2659988  51.2019997  53.0349998  48.7859993  40.7490005
  53.0419998  49.5789986  41.3440018  52.1660004  48.9970016  40.3639984
  39.5999985  52.3499985  47.1150017  40.5309982  52.2809982  46.8899994
  39.1539993  51.7449989  46.5349998  45.5000000  49.2820015  44.6160011
  44.7849998  49.7029991  45.1469994  45.2970009  48.3549995  44.7449989
  40.4879990  60.1759987  44.2700005  40.7140007  61.0180016  44.7669983
  40.0340004  60.6100006  43.4869995  39.8470001  61.4090004  41.8689995
  39.8250008  62.3349991  41.5439987  40.6739998  61.0940018  41.4049988
  40.4930000  81.8130035  44.6529999  40.6320000  80.8349991  44.6809998
  39.6780014  81.8659973  45.2190018  42.7220001  54.8930016  34.5859985
  43.5859985  55.3120003  34.8569984  43.0429993  53.9599991  34.5460014
  45.5509987  58.2089996  31.6410007  45.6669998  57.7669983  30.7460003
  45.1949997  59.0849991  31.3470001  33.8580017  59.3059998  40.9010010
  33.8219986  59.9379997  40.1759987  32.9010010  59.0079994  40.9990005
  30.9300003  63.3190002  28.5489998  30.4130001  62.5079994  28.3710003
  31.6110001  62.8670006  29.2059994  21.5550003  59.8310013  35.9140015
  22.4379997  60.1910019  35.7719994  21.0510006  60.2169991  35.1940002
  18.7600002  58.0260010  34.6529999  19.0849991  58.8940010  34.7299995
  18.7150002  57.7350006  35.6150017  22.2430000  59.9770012  32.7130013
  22.3470001  60.8079987  32.1489983  22.5380001  59.2999992  32.0499992
  11.4309998  59.3619995  26.7679996  10.8859997  58.5940018  26.4239998
  12.2270002  58.9269981  27.0590000  19.6480007  50.4109993  41.6310005
  19.8560009  49.4560013  41.6080017  18.9190006  50.4399986  40.9379997
  14.8870001  47.9249992  31.4629993  15.3830004  47.5349998  32.2430000
  14.6260004  48.7799988  31.8990002   9.8909998  50.2430000  33.8380013
  10.4090004  49.5730019  33.3120003  10.3549995  50.2449989  34.7070007
   8.9740000  30.6490002  34.8370018   9.3280001  30.2479992  34.0029984
   9.6949997  30.3190002  35.4410019  27.0750008  39.3860016  26.3390007
  28.0219994  39.2000008  26.4920006  26.9589996  40.1850014  26.9349995
  32.8370018  38.1339989  28.8279991  33.2449989  38.7039986  29.5209999
  32.3680000  38.9259987  28.3460007  25.6590004  34.3190002  35.0999985
  26.0830002  33.9749985  35.9160004  25.2350006  35.1150017  35.4589996
  31.6900005  42.0569992  32.1180000  31.4020004  42.9269981  32.4809990
  31.1040001  41.9780006  31.3320007  34.6889992  44.5660019  34.5200005
  35.2089996  43.8219986  34.2169991  34.5610008  44.2809982  35.4710007
  24.9360008  61.3180008  19.1399994  25.9099998  61.0919991  19.2159996
  24.8349991  61.9099998  19.9200001  34.7500000  62.3400002  32.0299988
  35.6230011  62.6850014  32.3289986  34.3019981  62.3339996  32.9500008
  13.6120005  52.6450005  33.2570000  13.2419996  52.0839996  34.0260010
  12.8459997  53.2980003  33.2589989  22.5900002  62.0299988  25.9839993
  22.5389996  62.0670013  26.9419994  22.9400005  61.1339989  25.7740002
  17.2339993  52.8129997  32.9659996  17.4559994  51.9010010  33.3320007
  18.0249996  52.9469986  32.3460007  64.6999969  29.3209991  77.1699982
  63.9189987  28.6980000  77.3410034  65.1839981  28.9610004  77.9919968
  16.4510002  54.5610008  24.9239998  16.3069992  53.9210014  25.6490002
  16.5289993  55.4090004  25.4810009  14.3789997  47.5789986  36.8740005
  13.6289997  48.2089996  36.7000008  14.1049995  47.2019997  37.6839981
  14.0019999  41.0340004  25.9389992  13.7069998  40.1419983  26.2479992
  14.9680004  41.0149994  26.0879993  13.9829998  46.8250008  29.2530003
  14.4610004  47.3580017  29.9489994  13.5109997  46.1669998  29.8230000
  20.4720001  47.7779999  26.3150005  19.8600006  47.7669983  25.5049992
  19.8589993  48.2700005  26.9020004  17.5869999  54.7029991  20.4829998
  17.4279995  54.0110016  19.7859993  17.7000008  54.1189995  21.2399998
  15.6990004  51.9379997  25.8630009  16.1840000  51.4980011  25.0869999
  14.8009996  51.6240005  25.6009998  15.4490004  46.0110016  21.0650005
  14.6750002  45.5449982  20.5970001  14.9010000  46.2589989  21.8610001
  11.0410004  60.0239983  14.5249996  11.0590000  60.5050011  13.6709995
  11.2270002  59.1290016  14.3009996  19.6070004  51.4809990  22.1060009
  18.9860001  52.2050018  22.2460003  19.0230007  50.7210007  22.2789993
  26.7360001  58.2779999  11.0080004  27.6219997  58.1389999  10.5740004
  26.4780006  59.1230011  10.5520000  28.1329994  56.2290001  16.9640007
  28.3129997  55.9990005  17.9039993  27.7600002  57.1500015  17.1089993
  20.8600006  53.6829987  20.4610004  20.3659992  53.6710014  19.6130009
  20.3880005  53.0190010  20.9689999  24.7189999  51.8219986   7.9369998
  23.7880001  51.9920006   7.6059999  25.0559998  52.6780014   8.1059999
  26.1240005  71.1119995  12.0039997  26.2730007  71.6849976  12.7480001
  25.6980000  70.3769989  12.5190001  23.9300003  71.4889984  20.7679996
  23.5610008  71.7239990  21.5779991  23.1949997  71.4759979  20.1119995
  27.4410000  45.6559982   6.1149998  26.9020004  45.8740005   5.3410001
  28.0720005  45.0660019   5.7150002  21.2929993  54.7270012   5.4770002
  21.3980007  54.0579987   6.2300000  20.5349998  54.3619995   5.0599999
  38.2589989  50.9070015  18.9389992  37.8880005  51.5390015  18.3430004
  39.2340012  50.8790016  18.8020000  29.1639996  27.7420006  16.1420002
  28.2199993  27.6210003  15.9820004  29.4829998  27.0629997  15.4779997
  24.5779991  29.4370003   6.1919999  24.2929993  28.5849991   5.9549999
  23.7609997  29.9370003   6.3790002  40.2709999  33.1629982  14.2460003
  41.0419998  32.8460007  14.6929998  40.4860001  32.9179993  13.3330002
  45.3720016  34.9420013  11.7489996  45.3790016  35.8930016  11.8310003
  44.8160019  34.7789993  12.5909996  27.0389996  47.3759995   8.0559998
  27.3689995  46.9440002   8.8850002  27.2639999  46.6619987   7.4159999
  29.4880009  50.7830009  -1.7110000  30.3740005  50.4599991  -1.4820000
  29.5529995  51.6150017  -1.1990000  26.8190002  46.1160011   3.6610000
  27.7029991  45.9220009   3.1880000  26.2380009  45.6469994   3.0890000
  32.6539993  38.2089996   2.7110000  32.9599991  38.5530014   1.8350000
  31.9990005  37.5559998   2.3959999  30.4540005  37.2540016  10.5109997
  31.3610001  37.6170006  10.4090004  29.9710007  37.6619987   9.7620001
  19.3770008  46.8160019   3.6470001  18.7900009  47.4949989   4.0050001
  19.3409996  46.0820007   4.2960000  21.2709999  36.0800018  14.5450001
  22.0790005  35.7299995  14.9709997  20.6940002  35.3170013  14.7170000
  13.5410004  28.4389992  25.7509995  13.5430002  29.3910007  25.6089993
  12.6049995  28.2730007  25.4400005  12.4899998  38.5390015   5.5980000
  12.8590002  39.3059998   6.1050000  11.6510000  39.0180016   5.2930002
  21.1809998  28.8689995  17.9099998  21.7779999  29.2919998  18.5919991
  21.1359997  27.9930000  18.3230000  45.8069992  73.2009964  63.8180008
  45.1879997  73.8820038  63.4339981  46.4300003  73.1699982  63.0550003
  15.3470001  44.9440002  15.7670002  14.8620005  44.5820007  16.5529995
  15.5349998  44.0489998  15.3540001  23.6580009  56.9379997   5.0009999
  23.8059998  56.9620018   5.9930000  22.9880009  56.2309990   4.9480000
  20.4729996  47.9799995   9.3629999  21.1189995  48.6570015   9.1020002
  20.4419994  48.1419983  10.3299999  21.5419998  43.8160019   6.9720001
  22.1509991  43.7760010   6.2240000  21.9740009  44.4840012   7.5370002
  21.1989994  58.1870003   7.1840000  21.3719997  59.1110001   6.9419999
  21.5830002  58.1160011   8.0530005  30.4099998  56.7109985  20.8530006
  30.1980000  55.8089981  20.6469994  31.3869991  56.7140007  20.5760002
  37.1189995  53.6370010  17.0919991  36.2509995  53.7840004  17.5009995
  36.7949982  53.2750015  16.2320004  32.0649986  47.5400009  21.4720001
  31.7199993  48.1940002  20.8929996  31.5289993  47.6209984  22.2919998
  22.4480000  60.7309990  20.6639996  22.7999992  60.4749985  19.7759991
  21.7819996  61.3289986  20.4109993  38.6250000  31.3099995  15.5649996
  39.1370010  31.8430004  14.9480000  37.9609985  30.9519997  14.8929996
  37.7579994  37.1819992  26.6229992  38.0779991  36.4710007  25.9720001
  38.3110008  37.0079994  27.3670006  27.3649998  32.6430016  17.1410007
  26.8910007  32.7309990  18.0049992  26.6520004  32.3860016  16.5389996
  33.1430016  28.9400005  12.9390001  33.3979988  29.8139992  12.5570002
  34.0299988  28.4629993  12.8529997  30.8829994  31.7210007  24.6350002
  31.4529991  30.9510002  24.3759995  31.4990005  32.4560013  24.5510006
  35.5219994  36.9210014  28.6980000  36.0880013  37.1479988  27.9400005
  34.7340012  37.4140015  28.5370007  23.3330002  35.7649994  17.4489994
  23.4589996  35.1240005  18.1830006  23.3799992  36.6150017  17.9179993
  16.5610008  44.2109985  19.1410007  16.3810005  44.8569984  19.9200001
  15.6580000  44.1459999  18.8040009  53.4469986  24.7970009  51.8149986
  53.8559990  23.8969994  51.8110008  53.9560013  25.2390003  52.4889984
  55.0060005  25.2180004  55.9220009  54.5040016  24.4340000  55.6220016
  54.7779999  25.8589993  55.2350006  45.4899330  35.0343742  50.8246613
  45.8373566  35.7521324  50.2635574  44.7933578  35.4577179  51.3903046
  46.9870758  36.9414749  52.4920692  46.1090126  37.4394035  52.4672127
  47.5493317  37.4011154  51.8302841  47.0243721  32.5604172  51.8421555
  47.5441818  31.9849243  52.4739113  47.1499596  32.1371269  50.9691238
  50.2789993  13.4390001  76.0439987  49.7169991  12.7030001  76.3460007
  49.9329987  14.0970001  76.7360001  44.4869995  41.2130013  32.0040016
  43.9490013  41.0730019  31.2210007  43.9150009  41.8419991  32.5169983
  38.5839996  33.9620018  27.1949997  38.9179993  34.6209984  27.8850002
  38.8149986  34.4300003  26.3640003  39.5079994  47.3909988  32.9700012
  39.8050003  46.9869995  33.7630005  38.6409988  47.8199997  33.1980019
  37.9830017  40.6170006  23.8600006  37.2169991  40.3660011  24.4279995
  38.7099991  40.3409996  24.4449997  41.8569984  42.0159988  38.0750008
  42.2589989  41.1940002  37.7709999  41.9449997  42.5159988  37.2389984
  36.0400009  40.6739998  28.9920006  36.3050003  41.0769997  29.7779999
  36.9080009  40.4059982  28.6140003  34.9819984  43.5000000  36.9690018
  35.6040001  43.5820007  37.6889992  34.5379982  42.6720009  37.1660004
  41.5359993  33.7550011  26.2940006  41.3989983  34.0779991  27.2450008
  41.6920013  34.6300011  25.9370003  35.3600006  38.9949989  32.9269981
  36.1240005  39.4749985  32.5530014  35.7599983  38.5519981  33.7050018
  35.6020012  42.8479996  30.9950008  34.7270012  42.5079994  30.9160004
  35.8419991  42.6300011  31.9400005  30.9969997  39.3079987  33.0660019
  30.1870003  39.0540009  33.4010010  30.9500008  40.2340012  32.8860016
  33.8139992  41.3079987  27.8369999  34.4080009  41.1030006  27.1180000
  34.4230003  41.1790009  28.6280003  29.6140003  39.2869987  41.9869995
  30.2049999  38.5060005  41.9970016  30.1219997  39.8339996  42.6609993
  33.8689995  33.2960014  39.2239990  33.4659996  33.0029984  40.1300011
  34.7010002  33.6819992  39.5260010  33.0719986  32.9329987  27.1529999
  32.7579994  33.7970009  27.5660000  32.9570007  33.0719986  26.2500000
  22.8260002  35.3429985  43.5629997  22.3180008  35.9319992  42.9659996
  22.0629997  34.8569984  44.0050011  39.5159988  44.8670006  34.7550011
  38.7290001  45.3279991  34.3450012  39.8230019  44.3120003  34.0390015
  44.0229988  23.0179996  74.0429993  44.5000000  22.3610001  73.5240021
  44.0519981  22.5730000  74.9489975   5.2740002  59.1259995  21.1770000
   6.1890001  59.4669991  21.3670006   4.8870001  60.0540009  21.0939999
  75.0429993  61.3610001  28.8260002  75.9639969  61.5429993  29.1180000
  74.8529968  62.3199997  28.5389996  50.0270004  32.9490013  65.7170029
  50.0639992  32.5070000  66.5930023  49.1040001  33.3899994  65.8300018
  41.1269989  28.3719997  73.2190018  40.6609993  27.5160007  73.1299973
  41.7260017  28.1389999  73.9789963  53.2169991  24.3460007  76.1029968
  52.4570007  23.6889992  76.1910019  53.4949989  24.3330002  77.0879974
  36.6479988  30.8470001  77.0070038  37.2680016  30.3080006  76.4990005
  35.9749985  31.0450001  76.2870026  53.8349991  12.4490004  67.6070023
  54.7330017  12.5229998  67.9980011  53.9160004  13.0190001  66.8909988
  71.5800018  70.8030014  24.5909996  71.8809967  71.6470032  24.9829998
  72.4219971  70.3219986  24.6639996  68.0329971  63.0849991  16.7339993
  68.1289978  63.8050003  17.3610001  69.0000000  62.8759995  16.5440006
  54.1259995  35.9010010  83.9100037  54.8950005  35.9510002  83.3720016
  53.8650017  36.8750000  83.9530029  60.3170013  57.5810013  14.6630001
  61.1430016  57.1870003  14.2930002  59.6850014  57.2599983  13.9650002
  52.2089996  27.3710003  79.2409973  51.9550018  26.5359993  79.6839981
  52.9169998  27.6429996  79.8759995  42.6349983  31.0690002  74.3649979
  42.8730011  31.3880005  73.4820023  43.5289993  31.0760002  74.7760010
  54.7010002  27.1259995  75.3349991  55.4469986  26.6429996  74.9540024
  54.3709984  26.4330006  75.9049988  50.8359985  27.6779995  82.6579971
  51.6459999  28.2509995  82.8949966  51.2910004  26.9720001  82.1470032
  69.5380020  56.2239990  14.8870001  70.0490036  55.4490013  15.2250004
  68.5999985  55.8989983  14.9770002  50.1549988  24.7630005  69.5719986
  49.6310005  25.1599998  68.8280029  50.3409996  25.4969997  70.1520004
  72.8059998  67.7190018  22.5259991  71.9179993  67.7610016  22.0599995
  72.6370010  66.9130020  23.0450001  46.9410019  25.9410000  73.6289978
  46.3899994  25.7269993  74.4319992  47.3240013  26.7819996  73.9420013
  44.7960014  50.2509995  76.0350037  44.4160004  50.9070015  76.6999969
  45.7200012  50.6720009  75.9300003  47.7630005  46.4770012  76.6699982
  47.7120018  47.4469986  76.9319992  47.9500008  46.5919991  75.7300034
  45.9889984  22.8780003  79.0360031  46.1510010  21.9260006  79.1679993
  45.2550011  22.9680004  79.6900024  61.0639992  30.5970001  80.4319992
  61.1829987  31.0319996  79.5500031  60.5149994  29.8269997  80.2109985
  55.0989990  37.7050018  71.1740036  55.4650002  37.0670013  71.7860031
  54.7649994  38.3549995  71.8389969  48.0839996  32.0760002  86.4369965
  48.7809982  32.5540009  86.9540024  47.4020004  32.0009995  87.1350021
  51.4179993  22.2129993  76.0130005  50.6010017  22.1819992  76.5279999
  51.1150017  21.7570000  75.1849976  56.9830017  34.2290001  69.2620010
  56.4010010  34.7299995  68.6549988  57.5190010  33.7700005  68.6429977
  52.1049995  25.1110001  81.0400009  52.8680000  24.9209995  81.6819992
  51.4070015  24.6690006  81.5360031  47.4070015  30.4139996  70.3359985
  46.6640015  30.2919998  70.9229965  47.4650002  29.4650002  69.9349976
  44.5190010  27.8670006  81.4929962  43.9570007  27.6569996  82.2559967
  44.3320007  28.8770008  81.4879990  49.6769981  43.3510017  79.9209976
  50.5940018  43.5709991  80.0630035  49.2939987  44.2010002  79.5970001
  51.9109993  34.3919983  83.1500015  51.1320000  34.9729996  82.9810028
  52.4830017  35.0849991  83.5559998  54.4799995  44.7299995  78.5429993
  54.8709984  44.0429993  79.0569992  54.8650017  44.5810013  77.6370010
  53.6759987  23.8689995  82.6849976  54.6409988  24.0249996  82.5530014
  53.6829987  23.7210007  83.6259995  51.5779991  31.7759991  82.6439972
  51.7410011  32.7669983  82.6679993  50.9459991  31.6609993  83.3720016
  55.7750015  29.1620007  76.9390030  55.3339996  28.5919991  76.2139969
  56.5180016  28.5310001  77.1289978  27.6720009  76.6740036  54.7130013
  28.0849991  77.0329971  55.5369987  27.1809998  77.5169983  54.4519997
  45.5559998   3.9700000  58.5880013  45.4370003   3.3580000  59.3149986
  45.5279999   4.7919998  59.1230011  48.6189995  15.3540001  77.1350021
  47.8160019  15.5600004  76.6500015  49.2019997  16.0400009  76.8499985
  19.7019997  67.2170029  51.1920013  19.3729992  66.6289978  50.4640007
  18.8279991  67.4929962  51.5859985  45.3839989   6.0260000  60.2239990
  44.3930016   6.0560002  60.4900017  45.6469994   6.9310002  60.4959984
  44.2379990   8.8990002  65.8980026  43.9319992   9.9090004  66.0039978
  44.6749992   9.0389996  65.0360031  56.1759987  17.1389999  60.2229996
  56.5239983  17.9689999  59.8460007  55.2449989  17.1469994  59.8149986
  24.6539993  69.3649979  67.2929993  25.4160004  69.5139999  67.8990021
  24.1630001  68.6790009  67.7699966   5.2080002  38.2379990   7.2160001
   4.8189998  37.5009995   7.6650000   6.1180000  38.2490005   7.4679999
  71.1090012  36.7729988   5.4410000  70.9000015  36.5680008   6.3390002
  71.8050003  37.4379997   5.5460000  29.8040009  77.8499985  61.3009987
  28.9440002  78.2269974  61.1590004  29.5690002  76.8730011  61.2430000
  74.3099976  45.9780006  15.1040001  74.0390015  46.7779999  15.5500002
  75.0500031  45.7200012  15.7240000  54.7260017  11.4519997  75.6370010
  53.7389984  11.5710001  75.5220032  55.0929985  11.7720003  74.8570023
  36.3180008  17.7950001  67.4739990  36.2220001  18.2339993  68.3809967
  35.4010010  18.0270004  67.1370010  44.2070007  22.3220005  68.8949966
  45.0730019  21.9750004  69.2649994  44.4700012  22.3540001  67.9319992
  33.2470016  74.1800003  63.3989983  32.8470001  73.7819977  64.2080002
  33.9440002  74.7330017  63.7779999  43.0839996  10.6160002  72.3379974
  43.6930008  10.4029999  73.1070023  43.4329987   9.8900003  71.7379990
  73.1009979  48.1860008  13.2819996  72.5100021  47.4720001  13.5310001
  73.4479980  48.4399986  14.1520004  50.9580002  15.4619999  73.7890015
  51.7809982  15.6070004  74.3150024  50.4350014  14.8389997  74.3580017
  54.3899994   6.1789999  65.2379990  54.8750000   5.6970000  64.5279999
  53.4860001   5.8020000  65.0220032   8.7309999  53.4980011  16.0550003
   8.5730000  54.4729996  15.9619999   8.1450005  53.3069992  16.7910004
  46.7029991  20.1639996  79.6019974  46.7859993  19.7870007  78.7080002
  47.2470016  19.6019993  80.1470032  12.7570000  54.1980019  17.2229996
  13.1680002  54.4819984  18.1159992  12.6440001  53.2249985  17.4899998
  56.0779991  13.0520000  69.0920029  56.9480019  12.6969995  68.8280029
  56.3489990  13.8230000  69.6009979  10.0690002  46.9049988  12.6999998
  10.4099998  46.0960007  12.2049999  10.1409998  47.5089989  11.9799995
  49.0820007  13.0330000  72.0830002  48.4560013  13.6520004  72.4860001
  48.9010010  12.2620001  72.6139984  63.0000000  32.8310013  62.8709984
  63.4319992  32.8909988  62.0099983  62.0800018  33.0629997  62.6609993
  57.5950012   8.1899996  65.4189987  57.5719986   9.1920004  65.2269974
  58.4269981   7.9689999  64.9980011  58.2249985  11.5640001  68.5619965
  58.8149986  12.0109997  67.9479980  58.4710007  10.6260004  68.5000000
  53.6640015  11.4320002  60.9169998  54.5519981  11.5279999  61.3730011
  53.2910004  10.6639996  61.4280014  52.0180016  11.4510002  75.1250000
  51.5299988  12.2290001  75.3590012  51.3250008  10.7729998  75.2870026
  65.3590012  23.5209999  68.5289993  65.7819977  24.3659992  68.2330017
  66.0899963  23.0799999  68.9609985  50.7589989  17.9309998  67.0979996
  50.8880005  17.7509995  66.1460037  49.9020004  17.4400005  67.2180023
  47.4059982  26.5209999  63.8979988  48.1510010  26.9529991  63.3639984
  47.0909996  25.9239998  63.1879997  11.3230000  49.3569984  14.1169996
  10.9370003  50.1269989  14.6379995  10.5070000  48.8429985  14.1070004
  65.4229965  19.3059998  68.7630005  64.9779968  18.4160004  68.5940018
  64.7770004  19.9039993  68.3349991  35.3689995   1.5480000  18.1429996
  36.2669983   1.2650000  17.9239998  35.3429985   2.3030000  17.5130005
   9.6230001  48.7470016  22.7950001  10.0450001  48.5810013  23.6930008
   9.3400002  47.8619995  22.5720005  53.3689995  24.0100002  63.9480019
  53.2659988  23.5189991  63.0870018  53.3709984  24.9549999  63.5740013
  14.0179996  56.4309998  12.6669998  14.1300001  56.8440018  13.5889997
  14.0000000  55.4959984  12.8219995  51.5750008  30.3579998  72.1930008
  50.9879990  29.6620007  72.6809998  51.0309982  31.1270008  72.3610001
  49.2970009  43.4589996  76.7519989  48.8499985  44.3260002  77.0159988
  50.1049995  43.8120003  76.3229980   1.5730000  54.9230003  15.7419996
   1.4630001  54.0419998  15.3549995   0.9800000  54.9099998  16.4759998
  48.9560013  23.6840000  66.2200012  48.6679993  23.3939991  65.3099976
  49.7690010  23.2070007  66.3509979  17.2129993  52.9650002   9.6689997
  16.6089993  53.2550011   8.9659996  17.1110001  53.7430000  10.2779999
  57.9910011  19.2469997  74.8229980  58.0439987  18.9069996  75.7279968
  57.0730019  19.5429993  74.7460022  12.5349998  47.1310005   7.8550000
  12.9239998  47.5070000   7.0730000  13.2019997  47.4410019   8.5319996
  10.6949997  49.0760002  10.5279999  10.0059996  49.5180016  11.0459995
  10.4010000  49.3069992   9.5979996   6.4740000  45.9109993  12.4910002
   5.9450002  45.2099991  12.0730000   7.1440001  46.1069984  11.8020000
  10.9829998  39.9720001  10.0799999  11.0769997  39.2779999   9.3809996
  11.8979998  39.8950005  10.5070000   8.6140003  48.5979996   5.7639999
   8.3820000  47.8230019   6.2719998   8.4440002  48.1629982   4.8699999
  78.5049973  38.6049995  15.3629999  77.8290024  39.2680016  15.5579996
  78.1770020  37.8059998  15.8240004  60.4550018  13.1090002  71.9909973
  60.8520012  12.3310003  71.6149979  60.8030014  13.8199997  71.4850006
  66.6110001  35.6049995  61.6199989  65.6559982  35.9659996  61.7220001
  66.8430023  35.5890007  62.5620003  69.4359970  27.5939999  67.8339996
  68.6630020  28.1170006  68.2730026  68.9280014  27.3829994  67.0009995
  61.4949989  35.6040001  68.5979996  60.7560005  35.0449982  68.9000015
  62.2060013  35.0810013  68.9940033  51.2200012  20.1550007  80.6090012
  50.6290016  20.9270000  80.7220001  51.9830017  20.5259991  80.1429977
  62.2179985  28.2299995  77.5960007  61.5159988  28.4820004  78.2529984
  61.7589989  28.5389996  76.7890015  44.5299988   4.5790000  67.0490036
  45.3849983   5.0289998  66.7720032  44.0629997   4.7049999  66.1689987
  74.1640015  53.2620010  14.8190002  74.4580002  53.0089989  13.9480000
  74.8349991  53.9440002  15.0850000  64.6709976  20.9570007  65.0910034
  63.9900017  21.5860004  65.4169998  64.4619980  20.1539993  65.5950012
  50.2459984  13.4219999  66.4169998  50.6780014  13.9670000  67.1569977
  50.6489983  13.9060001  65.6930008  58.9300003  16.5020008  74.1529999
  58.4850006  16.3099995  75.0139999  58.7560005  17.3990002  73.9150009
  44.9850006  30.1919994  71.6210022  45.0540009  30.0380001  72.5820007
  44.4430008  29.4820004  71.2740021  57.1559982  20.8560009  69.8259964
  58.0540009  21.0820007  69.7639999  56.8209991  21.7970009  70.0210037
  45.0929985  19.0480003  58.9129982  44.4119987  18.9379997  58.2299995
  44.9570007  18.2119999  59.4280014  71.5790024  37.2509995   8.0930004
  71.5289993  37.6879997   8.9449997  72.2050018  36.5550003   8.2639999
  71.9260025  58.3580017  18.2980003  71.1439972  58.7529984  18.8040009
  71.4649963  58.1819992  17.4419994  56.9550018  31.7709999  77.0660019
  56.8030014  32.2439995  77.9240036  56.6450005  30.9050007  77.3130035
  55.1850014  26.6110001  84.4059982  54.2480011  26.8460007  84.5899963
  55.4830017  26.6229992  85.3960037  79.0500031  41.2570000  11.5089998
  78.3550034  41.9239998  11.7110004  79.8740005  41.8390007  11.5509996
  78.4800034  55.7260017  26.3449993  78.2030029  56.0719986  25.5049992
  78.6490021  54.7799988  26.1959991  57.5670013  10.7729998  65.4219971
  58.4690018  11.1569996  65.6169968  57.1129990  11.7080002  65.3359985
  42.6080017  13.3470001  72.5159988  43.2620010  13.3889999  73.2549973
  42.5950012  12.4069996  72.2819977  62.7999992  15.1120005  65.8669968
  62.4300003  16.0480003  65.7450027  62.9269981  14.9759998  64.8880005
  60.2430000  20.5970001  70.3629990  61.0769997  20.1459999  70.5550003
  60.0779991  21.0459995  71.2070007  56.5699997  21.0289993  65.8700027
  55.9160004  20.6569996  66.5029984  57.2750015  21.3780003  66.4660034
  57.2739983  28.5060005  65.0019989  56.6430016  28.0480003  64.4459991
  57.9650002  27.8330002  65.1409988  54.0480003  16.4090004  69.0839996
  53.3549995  17.1380005  69.3119965  54.6020012  16.5119991  69.8919983
  62.7820015  22.9909992  69.2320023  62.8740005  22.7399998  70.1900024
  63.7939987  23.0540009  69.0800018  61.4519997  31.8770008  57.9580002
  61.8289986  31.4050007  57.2070007  62.2400017  31.9279995  58.5559998
  64.0999985  30.0410004  66.3880005  64.0250015  29.0590000  66.5309982
  63.8129997  30.0650005  65.4509964  53.5009995  23.4650002  66.5059967
  53.4329987  23.7700005  65.5879974  54.1749992  24.0400009  66.8690033
  71.9830017  61.7089996  19.0189991  72.7190018  61.1040001  19.2310009
  72.3820038  62.5349998  19.2770004  58.7389984  22.5160007  62.0540009
  58.4480019  22.6679993  61.1640015  57.8899994  22.5769997  62.5569992
  62.1020012  26.7619991  71.6650009  62.4000015  26.6529999  72.6309967
  62.8559990  26.3360004  71.2490005  58.5559998  16.4340000  57.3349991
  59.4659996  16.6580009  57.0480003  58.0750008  16.4130001  56.4659996
   8.5979996  53.3120003   8.8690004   8.7959995  53.1699982   7.9619999
   7.6510000  53.4179993   8.8079996  52.2379990   8.3629999  66.9339981
  53.2169991   8.3809996  66.9479980  52.0719986   8.6499996  67.8690033
  61.9580002  31.4839993  68.8270035  61.5820007  30.7240009  68.3899994
  62.7900009  31.6089993  68.3470001  43.3009987  11.2240000  65.6510010
  42.2910004  11.1250000  65.6190033  43.2970009  11.7410002  66.5530014
  55.9869995  32.4599991  74.6179962  56.2919998  32.1100006  75.4729996
  55.3489990  31.7759991  74.3089981   1.4110000  52.3919983  15.5740004
   2.0790000  51.9220009  16.0970001   0.6300000  52.1500015  16.1259995
  47.4830017   3.7049999  62.9300003  48.1049995   3.3520000  62.2690010
  47.9490013   4.4650002  63.2910004  14.8649998  61.9410019  15.2650003
  14.0799999  61.6570015  15.8190002  15.5869999  61.4729996  15.6929998
  38.0289993  -2.1340001  17.0909996  38.4480019  -1.3099999  16.8549995
  37.3089981  -2.2620001  16.5070000  48.2019997  12.0330000  66.9400024
  48.0219994  12.4840002  67.7620010  49.0779991  12.5249996  66.7340012
  54.6910019  15.1450005  66.7630005  54.3380013  15.2480001  67.6930008
  53.9269981  15.4020004  66.2289963  13.8719997  70.1569977  15.8599997
  14.1330004  70.8280029  16.4799995  13.2830000  70.6969986  15.2539997
  53.8050003  24.4669991  71.6999969  53.6520004  25.4449997  71.7580032
  52.9309998  24.1749992  71.4280014  46.6870003  24.5189991  69.2890015
  46.8740005  25.2910004  68.7389984  46.0789986  24.8110008  69.9619980
  68.9380035  41.7389984  12.6330004  68.6129990  41.9370003  11.7589998
  68.5169983  40.9529991  12.9040003  41.8260002  28.0550003  68.7509995
  42.2190018  27.8449993  69.6110001  41.7080002  29.0410004  68.8619995
  56.0190010  11.5660000  62.5299988  56.6710014  11.6840000  61.8339996
  56.1500015  10.6370001  62.7939987  66.1949997  48.5960007   9.3030005
  66.4940033  47.6650009   9.2620001  66.9240036  49.0239983   9.7209997
  47.8709984   9.5190001  67.6790009  48.1409988  10.3870001  67.3560028
  48.4160004   9.4270000  68.4629974  62.2150002  25.6399994  68.7959976
  62.4729996  24.7089996  68.9789963  61.2379990  25.5529995  68.9560013
  67.0820007  29.4249992  62.9059982  67.6940002  28.7010002  62.7849998
  66.3270035  28.9230003  63.3129997  66.1760025  26.0349998  68.6569977
  66.1340027  25.7789993  69.5630035  66.4570007  27.0119991  68.7760010
  61.8030014  15.3950005  70.9240036  62.6139984  15.9250002  70.9400024
  61.2879982  15.6650000  70.2200012  54.2849998  13.1490002  52.7410011
  54.9669991  12.6409998  52.2610016  53.8950005  13.6389999  51.9410019
  78.9950027  51.0670013  16.7360001  78.5879974  50.3279991  17.1480007
  78.6279984  50.9410019  15.8199997  61.9179993  21.9629993  65.6849976
  61.5089989  21.3589993  66.3840027  61.8100014  21.4349995  64.9079971
  50.8940010   7.3130002  65.0039978  51.3740005   7.6550002  65.7699966
  51.2350006   6.4410000  64.9049988  30.5200005  72.8690033  72.8229980
  31.3680000  72.4120026  72.5609970  30.7169991  73.2220001  73.7220001
  51.2599983  22.0300007  66.3160019  52.0110016  22.6590004  66.2880020
  51.4199982  21.5720005  65.4570007  64.7720032  15.9499998  67.6439972
  64.1470032  15.6560001  66.9520035  65.6039963  15.7810001  67.1289978
   2.4719999  46.7360001  11.7580004   2.2100000  47.5349998  11.2600002
   2.5300000  46.0849991  11.0089998  63.7470016  28.7649994  69.6179962
  63.5289993  28.5039997  68.7080002  63.3820000  28.0410004  70.1409988
  68.2570038  33.9749985  68.4499969  67.6060028  34.0270004  67.6890030
  67.6449966  33.6110001  69.1520004  55.4930000  14.8599997  75.9489975
  54.9379997  15.5590000  75.5510025  55.4039993  14.1379995  75.2839966
  64.2620010  45.5519981   7.6329999  64.9759979  45.3170013   8.2679996
  64.5800018  45.0639992   6.8499999  49.8919983  33.8370018  77.5940018
  49.7019997  32.9399986  77.2269974  49.2330017  34.3590012  77.1380005
  58.0159988  27.2570000  77.3470001  58.6080017  26.8820000  76.6900024
  57.5769997  26.4349995  77.6890030  49.6339989  35.1749992  71.4020004
  49.3559990  35.3629990  72.3369980  49.0890007  34.4199982  71.1549988
  54.2859993  42.0260010  69.6910019  54.6790009  42.3260002  70.6259995
  55.0709991  41.4329987  69.5000000  61.5929985  41.2140007  66.0780029
  61.3540001  41.9469986  65.4319992  62.1660004  41.7770004  66.6220016
  51.1419983  38.6520004  72.7630005  51.6780014  38.7830009  71.9710007
  50.5670013  39.4000015  72.7580032  61.5919991  29.7789993  72.8830032
  61.0730019  29.2759991  72.2429962  61.2760010  29.3869991  73.7129974
  68.3639984  40.4020004  55.4090004  68.7109985  41.0800018  56.0880013
  68.3229980  39.6430016  55.9780006  65.1019974  40.0919991  66.7440033
  65.4619980  39.4700012  67.3870010  64.6060028  39.4729996  66.1740036
  58.5540009  37.7570000  71.1969986  57.9640007  37.8390007  71.9420013
  58.0270004  37.3790016  70.4720001   8.6899996  61.1119995  15.6910000
   9.5640001  60.7529984  15.4530001   8.6000004  60.6529999  16.5590000
  58.0200005  44.0009995  59.4049988  57.3849983  44.7099991  59.4220009
  57.5460014  43.3040009  58.9220009  54.0950012  30.4200001  73.7919998
  53.4650002  30.5450001  74.4929962  53.4399986  30.3430004  73.0309982
  68.1190033  30.8920002  59.1800003  68.5009995  30.2380009  58.5559998
  68.1529999  31.6879997  58.6170006  60.9749985  35.5870018  65.5820007
  61.1889992  35.5000000  66.5599976  60.6520004  34.6199989  65.5479965
  35.8380013   3.2560000  15.9960003  36.2960014   3.3469999  15.1300001
  34.9300003   3.3429999  15.6549997  27.6620007  63.0009995  14.0760002
  28.6159992  63.1279984  13.9600000  27.4559994  63.7729988  14.6280003
  52.4700012  36.7859993  76.8750000  52.4090004  36.4529991  75.9430008
  51.5699997  36.7179985  77.1569977  54.5989990  27.0620003  70.5849991
  54.5159988  27.2889996  71.5270004  54.8699989  27.9759998  70.2819977
  58.8009987  19.3649998  62.8959999  58.6910019  18.4960003  63.2350006
  57.8930016  19.7570000  63.0769997  56.6990013  24.8640003  65.2910004
  56.8300018  24.0170002  65.7630005  57.5690002  25.2679996  65.4410019
  58.5499992  32.9879990  67.3639984  58.3790016  32.0340004  67.0479965
  59.5209999  32.9319992  67.2050018  63.7389984  24.4419994  66.2320023
  63.6510010  23.5949993  66.7460022  62.9119987  24.9039993  66.4039993
  60.5400009  39.3839989  64.2689972  60.6539993  40.0670013  64.9729996
  61.3919983  38.9169998  64.3259964  53.5000000  39.4179993  64.5309982
  52.9669991  38.5769997  64.3180008  54.3460007  39.0330009  64.6039963
  56.8040009  37.4370003  73.2279968  57.2210007  37.6310005  74.1080017
  56.4339981  36.5470009  73.4300003  48.9290009  40.0950012  63.6549988
  49.2519989  39.1380005  63.6090012  49.8180008  40.5139999  63.5400009
  75.6190033  24.1910000  59.0579987  76.5319977  24.2010002  58.5480003
  75.1589966  24.7880001  58.3839989  14.7639999  60.0550003   9.9069996
  14.6359997  60.2319984  10.8590002  14.6669998  59.0719986   9.9530001
  51.1739998  41.2709999  63.0299988  51.9210014  40.6139984  63.1500015
  51.7270012  41.9749985  62.5449982  21.1580009  62.0999985   3.7980001
  21.1870003  63.0180016   4.0430002  21.5209999  62.0740013   2.8989999
  59.6409988  34.4510002  69.9990005  58.7540016  34.7669983  70.2259979
  59.6240005  33.5219994  70.1060028  56.1430016  26.6650009  63.2309990
  56.2490005  26.0939999  64.0120010  55.2280006  26.5310001  62.9830017
  68.9290009  35.8040009  76.0729980  68.6190033  35.1399994  76.7549973
  69.1279984  35.1800003  75.3399963  19.1910000  61.0110016  10.0290003
  19.8040009  60.9930000  10.7200003  18.5189991  60.3720016  10.4379997
  18.6970005  65.2389984   8.9340000  19.3630009  65.8160019   9.2589998
  18.6410007  64.5820007   9.6379995  68.3020020  46.5079994  66.6669998
  68.2419968  45.7859993  67.3150024  68.4889984  47.2630005  67.2570038
  32.3359985  62.2939987   2.6010001  32.6930008  62.7809982   1.8450000
  32.7319984  61.4280014   2.4760001  58.7700005  36.9539986  64.4779968
  59.4269981  36.4480019  64.9580002  59.2019997  37.8460007  64.4059982
  70.6600037  37.7140007  76.8529968  70.0289993  38.4580002  76.7119980
  70.0599976  36.9469986  76.6740036  60.5730019  46.1510010  72.5000000
  60.3860016  47.0180016  72.8659973  61.0359993  46.4099998  71.7109985
  52.8419991  21.1980000  70.0390015  53.1669998  21.9780006  69.5299988
  51.8800011  21.3509998  70.0770035  37.1230011  -3.1380000  19.5849991
  37.3769989  -2.9890001  18.6630001  36.9070015  -4.1510000  19.5109997
  44.0029984   4.0830002  12.4870005  43.5089989   4.8299999  12.0799999
  44.8530006   4.1950002  11.9809999  64.2630005  28.0919991  60.6819992
  63.4319992  27.6439991  60.3489990  64.7180023  28.3369999  59.8530006
  43.2770004   6.1570001  16.7150002  43.2779999   5.5079999  15.9340000
  42.3260002   6.1389999  16.9519997  54.2179985  51.8349991  73.4980011
  55.2159996  52.1030006  73.6790009  54.0159988  51.4900017  74.3690033
   9.4010000  64.4769974  16.5909996   8.4980001  64.5800018  16.2520008
   9.2830000  63.9199982  17.4160004  57.2540016  25.4729996  72.5920029
  57.0600014  25.4820004  73.5960007  56.4249992  25.9319992  72.3300018
  70.6039963  38.1769981  72.2109985  70.8789978  37.2480011  72.3870010
  70.0970001  38.3089981  73.0619965  60.3930016  39.9609985  71.4550018
  60.9869995  40.0299988  70.6510010  59.6980019  39.3670006  71.0520020
  69.1139984  45.8619995  60.0449982  68.7369995  46.2980003  59.2639999
  68.5989990  46.4039993  60.7389984  58.4620018  22.7530003  66.7649994
  58.9550018  22.7880001  65.9619980  59.0900002  23.2549992  67.3830032
  51.7529984  31.4449997  75.1689987  52.3030014  32.2830009  75.2200012
  51.1440010  31.7040005  74.4789963  57.9350014  44.8009987  66.5790024
  58.4160004  45.5509987  66.8320007  57.1940002  44.7280006  67.2239990
  56.7960014  52.4760017  69.8190002  57.1980019  51.9230003  69.1179962
  55.8829994  52.2949982  69.7060013  28.6210003  70.5199966  10.7980003
  28.2880001  71.2149963  10.1709995  27.7900009  70.4270020  11.3210001
  16.9799995  61.8170013  11.5710001  16.4720001  61.0960007  12.0139999
  16.1949997  62.4160004  11.4390001  66.3600006  37.7820015  68.2860031
  65.5640030  37.8969994  68.8339996  66.8420029  37.0849991  68.6959991
  42.1889992  13.1709995  19.7380009  42.7739983  13.6870003  19.1550007
  42.7459984  13.2819996  20.5459995  63.5029984  46.9529991  53.1349983
  62.5419998  46.8750000  52.9920006  63.7570000  46.2760010  52.3870010
  48.5509987  35.7840004  73.6869965  48.5830002  36.2159996  74.5690002
  47.6199989  35.8839989  73.4680023  49.3549995  48.3129997  71.6949997
  49.4210014  47.7509995  70.9000015  49.0569992  47.6329994  72.3399963
  54.3040009  34.0639992  72.0879974  54.8750000  33.5190010  71.5159988
  53.5449982  34.1539993  71.4649963  59.8440018  27.9200001  70.8430023
  60.5929985  27.3980007  71.2340012  59.8670006  27.5470009  69.8990021
  27.8579998  -6.4520001  22.6110001  28.4239998  -6.9200001  23.2490005
  28.1980000  -5.5599999  22.7259998  61.2659988  20.2700005  63.5800018
  60.3940010  20.0400009  63.3209991  61.8240013  19.5900002  63.1850014
  48.4620018  43.1209984  67.8099976  48.1119995  43.0750008  66.8789978
  48.0229988  42.3180008  68.1470032  62.6170006  26.3770008  74.3199997
  62.6539993  26.0160007  75.1940002  63.3489990  27.0960007  74.3529968
  55.1920013  30.2189999  62.6819992  55.4269981  29.9969997  61.7570000
  56.1129990  30.6450005  62.9290009  75.8919983  20.9120007  61.5120010
  76.7080002  21.4500008  61.5070000  75.1930008  21.5559998  61.4850006
  14.7489996  64.3109970  11.8350000  14.0880003  63.6529999  12.1169996
  14.6499996  64.2279968  10.8640003  63.5660019  50.8549995  70.9059982
  64.2030029  50.8820000  70.1559982  63.7799988  50.0649986  71.3450012
  58.6250000  34.5830002  75.8519974  58.3209991  35.3720016  75.3539963
  58.7360001  33.9550018  75.0970001  60.0480003  23.5079994  68.7779999
  60.9659996  23.1879997  68.9440002  59.7039986  23.4869995  69.7369995
  62.7360001  36.7890015  73.1839981  62.1599998  36.9749985  72.3850021
  62.7360001  35.8489990  73.1340027  14.3669996  66.9410019  19.9109993
  14.5889997  66.0459976  20.2639999  13.5850000  67.1230011  20.4249992
  42.9630013   7.9819999   8.2320004  43.8909988   7.7449999   8.2519999
  42.5680008   7.3649998   7.6500001  64.1539993  32.4199982  67.7659988
  64.4469986  31.5550003  67.4860001  63.8759995  32.7249985  66.9250031
  56.8339996  48.0470009  75.9759979  56.8889999  48.5200005  75.1439972
  55.8050003  48.0699997  76.0029984  46.8019981  40.2029991  83.1610031
  47.3989983  39.4039993  83.1159973  46.4300003  40.2039986  82.2809982
  57.1090012  50.8170013  71.8089981  57.4000015  51.4860001  71.1380005
  56.9210014  51.4459991  72.5429993  50.1549988  39.8919983  66.9739990
  50.6780014  39.0499992  67.0970001  50.8419991  40.5400009  66.9069977
  65.4130020  27.2520008  58.1850014  64.8759995  27.8649998  57.6440010
  66.0589981  26.9619999  57.5219994  50.0859985  43.5009995  72.9909973
  49.2509995  43.9090004  73.2080002  50.0950012  43.6520004  72.0179977
  75.1340027  45.8930016  67.8489990  75.6650009  45.8409996  67.0309982
  75.8430023  46.2420006  68.4629974  68.1640015  33.7789993  77.8929977
  67.5510025  33.0439987  77.6770020  68.5699997  33.4000015  78.7200012
  68.9369965  27.7369995  62.1250000  69.3960037  27.8610001  61.2690010
  69.5999985  27.2999992  62.6419983  71.1529999  22.3409996  63.2179985
  70.3170013  22.7980003  63.2000008  71.5370026  22.3680000  62.3520012
  51.8289986  49.2610016  72.9909973  52.6570015  49.1240005  72.5630035
  51.2309990  49.0550003  72.2399979  47.0890007  34.8839989  77.9250031
  46.6520004  34.7200012  77.1190033  47.4970016  34.0419998  78.1630020
  67.1139984  25.8369999  71.4000015  67.3460007  26.1860008  72.2910004
  67.9670029  25.3180008  71.2610016   3.1780000  24.5820007  63.0800018
   2.3060000  24.3379993  63.4119987   3.7690001  23.9120007  63.2509995
   7.1919999  66.8389969  28.7390003   6.9800000  66.6750031  29.6879997
   6.3730001  66.5940018  28.2889996  52.2500000  34.7080002  70.5370026
  51.3320007  34.5589981  70.7190018  52.2739983  35.6739998  70.5459976
  56.0960007  34.9640007  73.8909988  55.2859993  34.7620010  73.3140030
  56.0629997  34.0670013  74.3679962  14.7770004  57.4039993  10.2830000
  14.3929996  56.6399994   9.8050003  14.5559998  57.1380005  11.2100000
  32.4449997   4.4120002  19.5709991  33.4020004   4.6190000  19.4459991
  32.5089989   3.5799999  20.0699997  67.4369965  35.5509987  64.6449966
  67.6600037  36.2610016  65.2860031  67.0970001  34.8190002  65.1900024
  71.3789978  36.7620010  65.0989990  71.0100021  36.0250015  64.4909973
  70.9430008  37.5180016  64.6159973  74.2839966  41.0859985  63.0639992
  74.3160019  40.8170013  62.1220016  74.4739990  40.2099991  63.4949989
  67.6399994  49.3600006  56.5830002  66.8099976  49.6559982  57.0070000
  67.4059982  49.6710014  55.6609993  55.9910011  21.3549995  80.7679977
  56.1910019  20.9069996  81.6539993  56.9090004  21.4239998  80.4079971
  63.2910004  19.2500000  66.8389969  62.8930016  18.5949993  66.2190018
  62.4389992  19.5900002  67.2789993  13.7749996  34.2389984  65.7200012
  14.2779999  33.5029984  66.1660004  13.4989996  34.6899986  66.5360031
  78.8399963  43.4230003  67.7009964  79.5479965  42.6930008  67.6709976
  78.2030029  42.9379997  68.3010025  61.5390015  43.4269981  71.9010010
  61.2420006  44.2669983  72.2539978  60.7849998  43.1730003  71.3180008
  48.2750015   5.4020000  24.5489998  48.3969994   5.8280001  23.6539993
  47.3040009   5.4749999  24.6369991  61.9690018  40.9230003  62.0940018
  61.4490013  41.3300018  62.7770004  61.7999992  41.4700012  61.2929993
  62.1489983  45.7039986  66.5849991  61.9099998  45.6679993  65.6240005
  62.8120003  46.4239998  66.5429993  71.2210007  56.1180000  57.1489983
  71.7900009  56.4000015  57.8810005  71.2819977  55.1459999  57.2840004
   0.3900000  38.6860008  68.8130035  -0.1850000  38.9370003  69.5670013
  -0.3110000  38.2179985  68.2760010  62.8510017  38.7500000  65.8509979
  62.4430008  39.6520004  65.9800034  62.6539993  38.3559990  66.7440033
   1.1560000  29.9729996  66.3270035   1.2620000  30.1480007  65.3870010
   1.0140001  30.9039993  66.5970001  46.4280014   4.5320001  11.0369997
  46.3059998   5.3620000  11.5839996  47.2779999   4.2490001  11.3979998
  65.0230026  45.8670006  67.5490036  66.0270004  45.6980019  67.5589981
  64.7099991  45.2200012  68.1699982  67.8550034  36.7029991  70.5609970
  67.6149979  37.5800018  71.0009995  68.7880020  36.6339989  70.8700027
  75.1490021  51.9269981  55.2750015  75.8109970  51.3849983  55.7980003
  75.8069992  52.5589981  54.9020004  24.5559998  73.5849991  17.2749996
  25.0130005  74.3030014  16.7689991  24.0809994  73.2040024  16.5349998
  70.8570023  35.6570015  72.6579971  70.4339981  35.3769989  71.7730026
  70.3850021  34.9399986  73.1640015  48.1870003   4.7900000   8.1850004
  48.4189987   5.6360002   8.5209999  47.2420006   4.8759999   8.0489998
  35.0000000  73.7050018  48.7830009  35.4970016  74.4059982  49.2709999
  34.9630013  74.0569992  47.9399986  51.9819984   5.2540002  57.2589989
  51.2340012   4.7300000  56.8810005  52.2659988   4.5710001  57.9389992
  51.7130013  11.9729996  69.4079971  52.5219994  12.3389997  68.8919983
  51.0929985  12.5509996  68.9400024  48.7299995   5.2529998  58.9920006
  48.7589989   4.4419999  58.4819984  48.2319984   5.8299999  58.3989983
  51.8940010   7.5469999  54.3079987  52.0070000   7.8270001  55.1819992
  52.7779999   7.7420001  53.9290009  31.5550003  74.6640015  69.5810013
  32.0760002  74.1370010  70.3310013  31.0470009  75.2379990  70.1869965
  28.2700005  75.8300018  63.2550011  29.0520000  76.2330017  63.7220001
  27.6130009  75.8389969  64.0009995  52.0859985   4.8909998  64.5380020
  51.7029991   4.1409998  65.0120010  51.5489998   4.8850002  63.7080002
  35.1059990  69.7559967  71.7789993  35.1889992  70.7080002  72.1719971
  34.1889992  69.8690033  71.4319992  34.7360001   9.2969999  62.9399986
  35.5349998   8.9659996  63.3219986  34.0190010   8.9080000  63.4949989
  53.5719986   5.7930002  68.2160034  53.5849991   4.8350000  67.9369965
  53.6440010   6.2140002  67.3150024  17.3670006  74.0309982  60.1539993
  17.8290005  73.8150024  59.3160019  17.1369991  73.0999985  60.4259987
  60.8899994  10.1309996  58.3549995  60.5260010  10.0489998  57.4729996
  60.3300018  10.8439999  58.7150002  53.4959984   7.4010000  60.1419983
  52.6710014   7.5289998  59.5880013  53.4020004   8.2550001  60.6930008
  63.9529991  10.5620003  61.9990005  64.5630035  11.2390003  62.3530006
  64.2190018  10.4980001  61.1030006  25.4969997  67.8509979  50.9090004
  26.1480007  68.3509979  50.3880005  24.7010002  68.4059982  50.7299995
  30.7089996  70.7419968  61.4189987  31.1749992  70.9950027  62.2070007
  29.8820000  70.3710022  61.7210007  35.0760002  77.3190002  62.8829994
  34.1739998  76.9830017  62.8759995  34.9029999  78.2549973  63.1469994
  52.5940018   2.6559999  58.2799988  52.8540001   2.2219999  59.1269989
  52.0089989   1.9270000  57.9410019  45.1269989   3.3920000  69.6019974
  44.7659988   3.8659999  68.8259964  45.8009987   4.0530000  69.8779984
  27.2140007  73.0449982  62.8030014  27.9370003  73.6689987  62.7789993
  27.7129993  72.2009964  62.6570015  61.8689995   9.6020002  49.4640007
  61.6069984   9.1660004  50.2820015  61.0159988   9.8059998  49.0610008
  65.8479996  15.5979996  53.5390015  65.8280029  15.2419996  54.4519997
  64.9720001  15.1739998  53.2529984  60.7350006  16.8999996  52.7470016
  60.0540009  16.9440002  52.0369987  60.3680000  16.2789993  53.4090004
  59.0670013   7.1560001  56.4589996  58.2900009   6.5430002  56.6809998
  59.1679993   6.8309999  55.5429993  60.0550003  12.8520002  59.1030006
  59.4010010  13.4510002  59.3580017  60.4090004  13.2620001  58.2350006
  41.4469986  82.2570038  50.7770004  41.5890007  82.1610031  51.7649994
  40.6409988  82.8909988  50.8530006  70.5110016  13.9239998  47.8100014
  70.7109985  14.8950005  47.8160019  70.8349991  13.7100000  48.6870003
  17.4139996  48.6969986   4.7800002  17.0389996  49.1020012   5.5860000
  17.2150002  47.7779999   4.9080000  69.7040024  14.3870001  56.7019997
  70.3379974  14.8149996  56.1049995  69.0830002  15.1859999  56.8919983
  68.5479965  19.8750000  65.1689987  69.5049973  19.9160004  65.3109970
  68.3290024  20.6749992  65.7829971  48.9049988  79.4309998  50.0699997
  48.1720009  79.9189987  49.6889992  48.8639984  79.6920013  51.0060005
  62.2589989   8.6020002  54.8699989  62.4690018   8.3420000  55.7980003
  62.0410004   7.7199998  54.5019989  65.3909988  22.2140007  57.5719986
  64.7770004  21.7399998  58.2319984  65.4140015  23.0550003  58.1720009
  68.0690002  15.4069996  40.8180008  68.6070023  15.7030001  41.5800018
  67.3290024  16.0109997  40.8380013  18.1900005  54.6180000   5.8660002
  17.2630005  54.7400017   5.7719998  18.2549992  53.6069984   5.8899999
  60.9900017  20.1520004  67.5149994  60.7840004  20.5330009  68.3789978
  60.1139984  19.7339993  67.3249969  36.6489983  75.1220016  57.5270004
  35.8100014  75.5100021  57.7470016  37.2280006  75.8880005  57.3530006
  52.1049995  14.1359997  64.3359985  52.2989998  14.9670000  63.8959999
  52.9029999  13.8079996  64.7279968  62.5970001   5.6999998  61.0680008
  62.7620010   4.7490001  60.8720016  63.4710007   6.1139998  60.9000015
  58.9589996  12.2530003  62.5800018  59.7089996  12.0799999  63.1990013
  59.1010017  11.4239998  61.9920006  22.3829994  51.9519997  -1.4210000
  21.9029999  52.7410011  -1.7029999  22.2670002  52.0690002  -0.4570000
  52.2019997   5.3709998  48.4230003  52.1629982   4.3699999  48.5410004
  52.9959984   5.3800001  47.8269997  22.9360008  58.9160004   9.2460003
  22.7500000  58.7360001  10.2349997  22.9619999  59.9020004   9.3579998
  67.0230026  17.6259995  65.6470032  66.2429962  18.1580009  65.7600021
  67.7149963  18.3490009  65.6579971  56.5709991  12.0229998  59.6819992
  56.4129982  11.9040003  58.7239990  56.9259987  12.9090004  59.7709999
  53.0060005  73.9520035  47.7849998  53.4300003  73.0970001  47.3969994
  52.1150017  73.5719986  47.9620018  71.0970001  18.5970001  62.7439995
  71.5159988  18.1560001  61.9370003  70.4759979  17.8640003  62.9630013
  73.8970032  13.3649998  51.1549988  73.2839966  13.4689999  51.9410019
  74.4469986  12.6160002  51.4809990  39.5779991  67.6780014  67.4739990
  39.6949997  67.6060028  68.4309998  40.0970001  68.4860001  67.3040009
  67.9670029  11.3219995  52.4020004  67.4010010  11.9169998  51.8619995
  67.4619980  11.3190002  53.2579994  76.5979996  19.9599991  54.8610001
  76.5800018  19.0400009  55.2140007  77.3990021  20.3090000  55.3610001
  26.6200008  48.8359985  -7.1560001  26.9130001  49.0789986  -6.2480001
  26.0900002  48.0330009  -6.9169998  39.9710007  79.2919998  58.2529984
  39.6899986  78.4169998  58.5820007  39.6220016  79.2369995  57.3230019
  42.8260002  79.6729965  57.7669983  43.3370018  78.9420013  58.1090012
  41.9210014  79.4219971  57.9679985  17.2169991  45.2879982  -0.6900000
  17.1840000  44.3190002  -0.6410000  17.9529991  45.5929985  -0.1470000
  36.5569992  78.0059967  56.6329994  36.9010010  78.9339981  56.7379990
  37.1310005  77.6330032  55.9160004  57.5709991   9.5730000  60.9690018
  57.3170013  10.3430004  60.3600006  57.2420006   8.8420000  60.3110008
  39.0340004  81.3909988  55.3110008  38.7529984  81.4130020  54.3600006
  39.5330009  80.5350037  55.3440018  64.6849976  12.0979996  48.1119995
  64.7340012  12.6239996  47.2480011  64.7549973  12.8970003  48.7179985
  71.4369965  28.3880005  55.7340012  71.1579971  27.7150002  55.0929985
  72.4120026  28.3099995  55.6759987  59.7089996  12.2080002  66.2880020
  60.6479988  11.9910002  66.0599976  59.7239990  13.1409998  66.1640015
  17.9950008  53.4790001   1.6450000  18.1620007  53.0309982   0.7810000
  18.5970001  52.9109993   2.2049999  65.4260025  11.9049997  66.1569977
  64.4580002  12.0260000  66.1910019  65.4649963  11.2110004  65.4749985
  51.8349991  19.2590008  74.2829971  52.0769997  18.6250000  73.5960007
  51.6150017  20.0540009  73.8919983  20.7159996  41.1759987   3.3280001
  20.6219997  40.9589996   2.4070001  20.0569992  41.9020004   3.4349999
  25.4169998  58.5040016  -1.5030000  25.2989998  57.5480003  -1.7650000
  24.4890003  58.7890015  -1.4080000  15.9759998  57.7649994   6.4229999
  16.2409992  57.6259995   7.3480000  15.7259998  56.8079987   6.2399998
   3.3380001  13.5860004  47.1199989   3.1180000  13.6789999  46.1940002
   4.0300002  14.2370005  47.2589989  61.0970001  27.3630009  60.7840004
  60.1959991  27.1049995  60.8829994  61.1030006  28.3390007  60.8160019
  62.3040009   6.3410001  53.1660004  63.0330009   6.7170000  52.5849991
  62.6150017   5.4369998  53.2970009   6.9109998  38.7610016  13.6409998
   6.3210001  38.2869987  13.0710001   7.3709998  39.3689995  13.0240002
  58.0320015  14.1899996  72.5950012  58.5299988  14.9410000  72.9459991
  58.7570000  13.5489998  72.4100037  62.5680008  30.2579994  63.7089996
  62.4059982  29.8710003  62.8289986  62.9169998  31.1259995  63.5110016
  59.5190010   4.8620000  64.0759964  59.2490005   4.5149999  64.9619980
  58.7319984   5.4289999  63.9020004  17.2140007  49.6329994  10.3959999
  18.1009998  49.9599991  10.0880003  17.1560001  50.1080017  11.2469997
  17.5970001  50.3590012   2.6470001  17.4570007  49.6349983   3.2700000
  16.6599998  50.5040016   2.4070001  61.3759995  13.8500004  61.7249985
  60.5070000  14.0310001  62.1419983  61.0429993  13.1990004  60.9949989
  62.6590004  18.2509995  62.3639984  63.5880013  18.1410007  62.8149986
  62.6500015  17.4249992  61.8940010  75.0090027  32.2809982  70.0469971
  74.1250000  32.6310005  69.8619995  75.3330002  33.0019989  70.7009964
  67.1419983  16.2779999  59.1220016  67.6589966  16.4969997  58.3300018
  66.9349976  17.2059994  59.5180016  55.3300018  10.7609997  70.8740005
  54.6959991  11.3280001  71.3639984  55.4500008  11.1490002  70.0270004
  62.0009995  17.5830002  59.3660011  61.6310005  17.5529995  58.4620018
  62.3040009  16.6590004  59.4309998  58.1899986  10.9180002  71.1330032
  57.2579994  11.2500000  71.0380020  58.5229988  11.2969999  70.2659988
  22.4440002  68.9420013  10.9770002  22.3430004  69.8710022  10.7910004
  21.5380001  68.6910019  11.3330002  49.5769997   6.8730001  61.1500015
  49.9309998   7.6789999  60.7540016  49.0750008   6.5100002  60.3829994
  17.3899994  66.3310013  11.5190001  17.8069992  65.4250031  11.3590002
  18.1459999  66.7829971  11.8730001  49.2109985  15.2019997  59.0110016
  49.9729996  14.6789999  58.8499985  48.5999985  14.5889997  59.5040016
  35.7369995  77.5210037  45.7449989  35.6290016  76.8750000  45.0079994
  36.3989983  77.0739975  46.3139992  70.3789978  25.5869999  69.4079971
  70.0309982  26.2970009  68.7979965  70.8550034  26.2579994  70.0120010
  31.5419998  74.5289993  55.2620010  30.9179993  75.1190033  54.7500000
  31.3250008  73.7060013  54.8040009  74.6910019  18.7320004  59.9440002
  74.8990021  17.8570004  60.3580017  75.0510025  19.3040009  60.6310005
   1.8690000  34.3079987  13.2519999   1.6320000  34.3180008  12.2969999
   2.5510001  33.6180000  13.3009996  22.9169998  50.1520004  -3.4540000
  22.1450005  50.6370010  -3.8740001  22.9349995  50.7420006  -2.6120000
   5.8629999  42.5279999  13.0810003   5.3140001  41.7109985  12.9619999
   5.4619999  43.0789986  12.3509998  70.6190033  26.3589993  53.7709999
  70.1370010  25.5349998  53.5639992  71.5360031  26.0690002  53.7610016
  52.2369995   9.3299999  69.4089966  52.5550003   9.2250004  70.3190002
  52.1930008  10.2650003  69.2929993  20.8099995  66.4759979   9.8839998
  21.7369995  66.1880035  10.1639996  20.5599995  66.7870026  10.8260002
  69.1240005  24.8320007  45.2859993  69.6060028  24.7660007  44.4339981
  68.3249969  24.3360004  45.0419998  57.3600006  14.4750004  62.6100006
  57.4430008  14.6359997  61.6749992  57.8499985  13.6389999  62.7789993
  64.9879990  12.3210001  56.8089981  65.3079987  11.4849997  57.1549988
  64.0469971  12.3719997  57.1409988  57.0340004  16.7590008  54.9819984
  56.7340012  16.2320004  54.2010002  57.2140007  17.5949993  54.5040016
  50.8989983  14.5270004  56.3689995  50.4410019  13.7539997  56.1020012
  51.0649986  15.0699997  55.5769997  64.9909973   7.1630001  60.2739983
  65.9309998   6.9190001  60.2309990  65.0680008   7.9740000  59.6549988
  38.5099983  81.1890030  52.5610008  39.2010002  81.8040009  52.2309990
  38.3759995  80.6279984  51.8059998  64.1910019  18.1779995  54.3330002
  63.9599991  17.5949993  53.6170006  63.3019981  18.4659996  54.6339989
  72.2460022  18.7329998  56.1180000  71.3560028  18.3320007  56.0400009
  72.2210007  19.4570007  55.4410019  70.0699997  20.5590000  57.3520012
  70.7500000  20.8659992  56.7760010  69.2590027  20.7819996  56.9319992
  46.2459984  77.3440018  62.4970016  46.8590012  77.9260025  62.9990005
  45.5169983  77.9720001  62.2849998  75.1129990  19.5979996  52.4640007
  75.9739990  19.7049999  52.9319992  75.3970032  18.8010006  51.9020004
  51.8510017  17.8799992  69.6989975  51.6450005  18.1849995  68.8109970
  50.9539986  17.6840000  70.0449982   1.0620000  39.2159996   8.6239996
   0.0710000  39.1529999   8.6669998   1.3230000  38.6549988   9.3750000
  26.2800007  74.6019974  65.2890015  25.3899994  74.2570038  65.0790024
  26.7530003  73.7480011  65.5019989  56.2490005  23.2919998  70.7330017
  56.7760010  23.4969997  71.5100021  55.4399986  23.8269997  70.9199982
  57.4879990   6.4819999  67.6640015  57.8460007   5.7610002  67.0879974
  57.3069992   7.1919999  66.9649963  52.3240013   2.0869999  65.5830002
  51.3750000   2.0820000  65.2610016  52.4980011   1.1320000  65.2850037
  66.5059967  33.4840012  65.9639969  65.5260010  33.5900002  65.9759979
  66.5559998  32.6399994  65.4810028  65.7310028  12.8310003  62.4990005
  66.6989975  12.6549997  62.4790001  65.7119980  13.4490004  61.6749992
  14.3549995  43.6590004   0.5970000  13.7650003  43.1010017   0.1010000
  15.2200003  43.5349998   0.2170000  13.6129999  48.4160004   5.6129999
  14.0260000  48.2050018   4.7440000  12.7849998  48.8660011   5.3860002
  36.9970016  80.5299988  57.1209984  36.5550003  81.3339996  57.5460014
  37.6969986  80.9449997  56.6250000  52.5919991  85.5820007  53.1860008
  52.9970016  85.7040024  52.3030014  53.2330017  86.0250015  53.7719994
  46.1110001   0.4620000  66.3479996  46.0060005  -0.3270000  66.9759979
  46.3790016  -0.0480000  65.5260010  66.7559967  12.8579998  50.6769981
  67.4479980  12.7250004  50.0029984  66.0469971  13.1780005  50.1609993
  14.9410000  52.7060013   5.1490002  14.8299999  52.6250000   4.1789999
  14.0970001  52.2910004   5.4749999  78.1790009  37.7719994  67.3450012
  77.2799988  37.6580009  67.6920013  77.9629974  38.4480019  66.6380005
  69.4029999  32.3909988  63.5130005  69.7829971  31.7099991  62.9570007
  69.5619965  32.1370010  64.4179993   0.4190000  36.6510010  62.1990013
   0.6720000  36.6500015  63.2229996   1.0450000  35.9090004  61.9490013
  71.7880020  31.7189999  65.5449982  71.5059967  32.3730011  66.2220001
  70.9940033  31.1310005  65.5459976   6.5089998  27.8959999  40.6040001
   6.5809999  27.3400002  41.3520012   6.2259998  28.7070007  41.0589981
  75.0749969  37.6010017  68.0179977  74.5619965  37.1520004  67.3010025
  74.3059998  37.9410019  68.5380020  65.2720032  24.6100006  58.5289993
  64.7710037  25.2049999  57.9930000  65.8720016  25.1900005  59.0309982
  25.7639999  56.4570007   0.7800000  25.3750000  57.1570015   0.2780000
  25.7269993  56.8619995   1.7250000  74.5540009  25.6329994  65.0360031
  74.2730026  26.2250004  65.7300034  73.9179993  25.8199997  64.3050003
  19.9290009  71.4899979  12.3170004  20.6630001  71.5299988  11.6280003
  19.1299992  71.3160019  11.7180004  79.3479996  29.3959999  53.6660004
  79.1500015  28.8579998  52.8450012  79.1539993  30.3040009  53.3040009
  28.1959991  65.1949997   7.0990000  29.1030006  65.4660034   7.3990002
  27.9920006  65.9229965   6.4740000  65.6750031  42.6959991  66.9609985
  65.4990005  41.7010002  66.9339981  64.7030029  43.0000000  66.9140015
  75.6019974  29.3040009  62.3839989  75.5039978  29.0730000  63.3580017
  76.5709991  29.5249996  62.4529991  56.3889999  20.7040005  63.2309990
  56.2130013  20.6219997  64.1689987  56.2050018  21.6650009  63.1430016
   3.4800000  22.4340000  54.7280006   2.8840001  22.2380009  53.9599991
   3.5009999  23.4249992  54.6889992  55.7900009  19.4850006  57.3129997
  55.1310005  18.9969997  56.7869987  55.2379990  20.1320000  57.7620010
  25.0179996  67.4649963   4.4520001  25.1630001  66.5879974   4.8360000
  24.0070000  67.4290009   4.3720002  75.0810013  18.9969997  63.5349998
  75.3160019  19.6590004  62.8419991  74.8779984  19.6639996  64.2480011
  74.1999969  40.4099998  57.9109993  74.5400009  39.4939995  58.2350006
  73.2959976  40.1469994  57.6629982  68.8099976  39.4360008  68.9879990
  68.9850006  39.8160019  69.8489990  67.8860016  39.1640015  69.1289978
  64.9380035  27.8239994  63.1969986  64.5530014  26.9410000  63.2229996
  64.7760010  28.0160007  62.2270012  71.2870026  41.6549988  63.0559998
  71.6100006  41.4300003  62.1850014  70.3990021  41.2280006  63.0369987
  69.3779984  28.6940002  57.6349983  70.1490021  28.6830006  57.0149994
  68.6500015  28.6800003  56.9560013  77.1709976  27.1200008  56.5550003
  77.3349991  28.0939999  56.5400009  77.5240021  26.9150009  55.6180000
  75.5429993  29.9939995  69.1510010  74.8030014  29.8899994  68.4629974
  75.2600021  30.9080009  69.4489975  74.3300018  34.3899994  63.7459984
  73.4530029  34.0989990  63.5349998  74.6859970  33.4739990  63.8450012
  73.1060028  25.4570007  53.8019981  72.8840027  24.5079994  53.7970009
  73.6399994  25.5510006  54.6349983  24.8209991  51.9029999  -4.0790000
  25.6569996  51.3769989  -3.8970001  24.2500000  51.1430016  -4.2979999
  78.0940018  26.9179993  47.2270012  78.6019974  26.1299992  46.9150009
  77.3199997  26.8700008  46.6250000  65.1320038  17.5599995  63.3880005
  65.7229996  18.2830009  63.0740013  65.6640015  17.1900005  64.0999985
  76.8150024  36.8639984  54.9430008  77.0080032  35.9799995  55.2330017
  76.2239990  36.7159996  54.1720009   4.3390002  23.2889996  57.9440002
   3.3789999  23.1019993  58.0730019   4.6980000  23.0750008  58.8829994
   9.2740002  24.6639996  66.2730026   8.7790003  23.9810009  66.7269974
   8.9139996  24.4519997  65.3590012   7.7849998  21.8139992  48.1679993
   8.3970003  21.8080006  48.9249992   6.9140000  21.6289997  48.5979996
  69.9540024  20.3209991  52.5740013  69.9229965  21.2819996  52.3069992
  70.8759995  20.1539993  52.6479988  26.6040001  54.3279991   5.6960001
  26.7670002  53.4249992   5.4949999  26.1819992  54.2949982   6.6269999
   5.4089999  43.6910019  56.6780014   5.9390001  43.0040016  56.1930008
   4.5609999  43.2599983  56.7989998  70.3359985  26.0090008  64.1869965
  69.6490021  26.4650002  64.7500000  70.6650009  25.3139992  64.7500000
  70.4459991  33.5200005  66.9150009  69.8960037  33.4589996  67.7470016
  70.8379974  34.4099998  67.0739975  70.9130020  23.4419994  67.8130035
  71.4160004  23.9060001  67.0859985  70.6940002  24.2180004  68.3519974
  21.8990002  71.5110016  10.4449997  22.7360001  72.0699997  10.6020002
  21.5359993  71.9739990   9.6759996  70.9800034  21.8509998  49.5550003
  70.7730026  22.4839993  48.8419991  70.6380005  22.2910004  50.3499985
  66.3610001  21.4410000  61.2190018  67.1269989  21.7019997  60.7470016
  65.8580017  22.2740002  61.3409996  32.7830009  70.2829971  14.6120005
  32.9010010  71.1770020  14.2510004  33.5970001  69.8059998  14.3149996
  71.2330017  22.3439999  55.4179993  71.8850021  22.4689999  56.1559982
  71.8150024  22.5949993  54.6370010   4.4080000  34.7190018  56.1629982
   3.9070001  34.8219986  57.0029984   4.9310002  33.8899994  56.3680000
  74.0469971  36.2779999  65.9660034  73.0530014  36.3750000  65.9970016
  74.1230011  35.4109993  65.5080032  72.5410004  17.3369999  60.8170013
  72.7949982  18.1439991  60.3279991  72.8000031  16.6490002  60.1899986
  53.7389984  25.4680004  58.5629997  54.1570015  25.4860001  57.7120018
  52.8269997  25.2450008  58.3619995  63.5680008  36.4179993  64.5569992
  63.4020004  37.3320007  64.8990021  62.6710014  36.0569992  64.7460022
  69.7570038  34.6220016  70.5130005  69.6969986  33.6269989  70.4879990
  69.2419968  34.7760010  69.6780014  23.2240009  61.5349998   9.7849998
  23.6580009  62.3959999   9.5419998  22.3150005  61.8199997   9.4259996
  21.3299999  64.7460022   7.2160001  21.3239994  63.9939995   7.8990002
  22.0249996  65.3160019   7.5949998   6.4699998  26.9060001  50.4990005
   6.5170002  26.0249996  50.9640007   5.7040000  27.3169994  50.8759995
   6.9369998  21.6650009  64.1449966   7.0100002  21.1389999  63.3310013
   5.9860001  21.9720001  64.0599976  73.4580002  35.5530014  73.0550003
  73.0950012  36.0680008  73.8160019  72.6429977  35.2220001  72.7089996
  30.5900002  66.6210022   7.7480001  31.0949993  67.3659973   7.5500002
  31.1119995  66.2490005   8.5109997   3.9170001  30.0769997  57.6489983
   4.6250000  30.7390003  57.6850014   3.4300001  30.2929993  58.4959984
  69.3440018  19.9529991  59.9389992  70.0970001  19.9750004  60.5299988
  69.8000031  20.3090000  59.1139984  68.9020004  44.9770012  55.7340012
  68.6039963  45.5730019  56.4889984  69.7440033  45.4319992  55.4990005
  68.0820007  20.9009991  49.9329987  68.7200012  21.3050003  50.5050011
  67.2360001  21.3600006  50.1879997  75.2979965  28.9599991  65.0559998
  74.7860031  28.3139992  65.6510010  76.0999985  28.9829998  65.6760025
  19.1469994  56.5390015   2.0260000  19.0629997  55.6059990   1.7190000
  19.0470009  56.9920006   1.1130000  26.3869991  66.1110001  11.5670004
  26.7420006  66.8050003  12.1709995  25.7280006  66.7070007  11.0699997
  71.5520020  27.1399994  71.3349991  72.4649963  26.7560005  71.4349976
  71.3740005  27.3869991  72.2369995  72.2369995  22.9740009  53.0050011
  72.7129974  22.7600002  52.1930008  71.3020020  23.1289997  52.7019997
  72.7689972  34.1080017  69.5199966  72.6880035  34.7150002  68.7229996
  71.8509979  34.2000008  69.8909988   3.8800001  25.8509998  59.4910011
   3.2560000  26.2500000  58.8769989   4.6079998  25.5620003  58.9160004
  76.9410019  23.2970009  50.4440002  76.3730011  23.5599995  49.6889992
  76.3899994  23.5720005  51.1910019   2.7560000  22.0629997  60.4379997
   2.1910000  22.1709995  59.6110001   2.3150001  22.5799999  61.0940018
  18.9659996  52.1860008  -0.4050000  18.4179993  51.8180008  -1.0960000
  19.4349995  52.9029999  -0.9890000  59.0120010  24.6790009  76.5920029
  59.0589981  24.5879993  77.5279999  59.5000000  23.8309994  76.3170013
  77.7770004  28.4880009  66.2409973  78.2580032  29.2159996  66.7340012
  77.8420029  27.7570000  66.8740005  64.5410004  20.3610001  59.4780006
  64.8830032  19.4349995  59.4609985  65.1320038  20.7369995  60.1720009
  73.4810028  43.5369987  67.3889999  74.1520004  44.2220001  67.2630005
  73.1569977  43.3069992  66.4749985  78.6679993  27.4200001  61.8839989
  79.0619965  27.3490009  62.7809982  78.5009995  28.4090004  61.9150009
  66.8649979  31.4340000  68.2689972  67.0589981  31.9410000  67.4739990
  65.9300003  31.6480007  68.4039993  70.1119995  31.0079994  53.2599983
  69.7959976  31.8959999  52.9749985  70.5270004  31.2420006  54.1310005
  77.6689987  24.4279995  61.6759987  77.0599976  23.9659996  61.0680008
  77.1849976  25.2579994  61.8400002  75.1100006  22.5179996  54.5000000
  75.6289978  21.7129993  54.5190010  75.7549973  23.1340008  54.1629982
  73.5070038  22.5650005  56.9150009  73.9079971  22.0529995  57.7280006
  74.1340027  22.3029995  56.2309990   0.7410000  29.5070000  58.1409988
   0.1190000  29.1980000  57.4350014   1.0290000  30.3630009  57.6879997
  74.2949982  22.6790009  43.4500008  73.8150024  21.8880005  43.1220016
  75.1709976  22.5319996  43.1230011   5.7430000  19.7679996  46.1189995
   6.3600001  20.2430000  45.4410019   4.9219999  20.2369995  45.9959984
  58.1710014  15.3760004  59.7330017  58.4239998  15.8199997  58.9129982
  57.6609993  16.0690002  60.1920013  68.2129974  27.0440006  65.4359970
  67.5910034  26.3160000  65.3229980  67.5770035  27.8190002  65.4069977
  79.2819977  26.1100006  59.1720009  79.2910004  27.0909996  59.2239990
  79.3929977  25.8990002  60.1189995  78.7539978  20.9489994  56.1430016
  79.6790009  20.8059998  56.3380013  78.7259979  21.5119991  55.3689995
  67.6770020  29.8110008  71.5640030  67.9850006  29.6900005  72.4899979
  66.6790009  29.8579998  71.6399994  24.8239994  67.7799988   9.9490004
  25.2479992  68.2760010   9.1980000  24.0890007  68.4869995  10.1389999
   4.7740002  35.4000015  64.1780014   5.0270000  35.1250000  65.1210022
   4.3290000  36.2630005  64.4329987  77.6600037  24.6849995  57.6290016
  77.5569992  25.5520000  57.1059990  78.3700027  25.0610008  58.2200012
  27.9619999  73.7819977   6.0970001  27.4150009  73.1890030   5.5689998
  27.2999992  74.3059998   6.5890002  69.4980011  24.1310005  57.6949997
  69.1129990  23.9130001  58.6199989  70.4550018  24.1620007  57.9360008
  11.2639999  49.7239990   4.6149998  10.3149996  49.8079987   4.7779999
  11.2760000  49.1329994   3.8559999  22.0100002  17.3230000  61.2949982
  22.2059994  16.8579998  62.1489983  21.2150002  17.7989998  61.5089989
  60.0349998  38.1839981  61.0730019  59.6609993  38.8050003  61.7060013
  59.7770004  38.6850014  60.2280006  69.7770004  35.1259995  63.2089996
  69.0110016  35.2599983  63.7890015  69.9390030  34.1819992  63.2010002
   1.9880000  40.0909996  56.3699989   1.5750000  40.0309982  55.4729996
   1.9650000  39.1739998  56.6629982   0.4760000  32.5460014  65.7300034
  -0.4550000  32.6619987  65.5400009   0.8880000  33.1730003  65.1139984
   9.6029997  27.0330009  65.2730026   9.6320000  26.1879997  65.6819992
   9.6879997  26.8180008  64.3229980   7.1520000  40.7980003  57.4830017
   6.3260002  40.4210014  57.0340004   7.7370000  40.0060005  57.4210014
  79.1200027  31.9710007  59.6250000  79.5979996  32.8580017  59.6629982
  79.7630005  31.3939991  60.1010017  76.6200027  50.9430008  65.9229965
  77.5260010  50.8839989  66.1370010  76.4710007  51.9129982  65.9459991
   2.5630000  33.4930000  64.0940018   3.2720001  34.1800003  64.1080017
   2.2690001  33.5909996  63.1469994   5.4749999  46.4169998  57.2610016
   4.5650001  46.5519981  56.8650017   5.5489998  45.4220009  57.1339989
  67.3600006  28.6590004  69.1770020  67.6500015  28.7399998  70.0869980
  67.3310013  29.6219997  68.9290009  78.0780029  28.1170006  43.7290001
  77.0920029  28.0119991  43.6669998  78.3109970  27.1529999  43.8199997
  78.9990005  31.8080006  52.6360016  79.8750000  31.6380005  52.2980003
  79.3000031  32.3800011  53.3899994  72.7009964  40.0740013  65.5680008
  72.0419998  40.5600014  64.9830017  73.1669998  39.5589981  64.8990021
  50.4370003   4.0260000  14.5509996  50.4879990   4.1050000  15.4879999
  49.7960014   4.7059999  14.2799997   6.2240000  46.6069984  65.6740036
   5.2890000  46.7130013  65.8970032   6.2579999  47.1749992  64.8769989
   1.2029999  43.4589996  61.4790001   1.7450000  43.0359993  62.1370010
   1.6230000  43.1860008  60.6339989  78.1949997  38.3870010  58.3880005
  78.9800034  37.7840004  58.6180000  78.6689987  39.2080002  58.6409988
  66.2979965  31.9179993  77.5510025  65.4079971  31.9589996  77.0879974
  66.6800003  31.0900002  77.2750015   3.5290000  46.3689995  66.3949966
   2.5420001  46.2529984  66.5120010   3.5620000  46.2570000  65.3919983
   5.0669999  51.9599991  59.8450012   4.6009998  51.7400017  60.7140007
   5.9600000  51.6959991  60.1030006  20.4459991  73.7679977  18.2709999
  19.8449993  73.3550034  17.6009998  20.9080009  74.4020004  17.6749992
  62.9480019  15.1219997  59.9679985  62.9620018  14.2379999  59.4720001
  62.2919998  14.8889999  60.6730003  71.1060028  12.9259996  45.4239998
  70.9899979  13.2709999  46.3050003  70.6449966  12.0520000  45.6189995
  68.6689987  13.5240002  38.6940002  68.8099976  12.6009998  39.0169983
  68.5009995  14.0030003  39.5320015  13.7399998  10.3809996  51.0900002
  13.0209999  10.3389997  51.7540016  13.2089996  10.1890001  50.2659988
  51.8160019  82.4649963  41.5180016  51.0589981  81.9520035  41.1119995
  51.3409996  83.0070038  42.1100006  74.4879990  23.3740005  61.3359985
  74.6949997  24.2049999  61.8269997  74.9270020  23.5890007  60.4630013
  57.4080009  83.3310013  53.7470016  56.8870010  83.8399963  54.3650017
  57.5139999  82.4469986  54.2719994  70.1800003  13.5419998  51.9259987
  70.7480011  13.0730000  52.5649986  69.3229980  13.4960003  52.3549995
  58.6329994   4.3169999  66.5459976  59.3820000   4.2490001  67.1520004
  57.9029999   3.8410001  66.9589996  45.7379990  83.7770004  41.3989983
  46.0250015  84.3669968  40.7000008  45.8460007  82.9160004  40.9119987
  72.2839966  12.8149996  53.5579987  72.9189987  13.2449999  54.1910019
  71.9489975  12.0439997  54.1100006  65.0830002  14.6120005  49.4539986
  64.4140015  15.1850004  49.8240013  65.7850037  15.2279997  49.2480011
  66.6429977   8.7200003  55.9980011  66.3199997   8.7629995  56.9199982
  66.3430023   7.8790002  55.6240005  76.0699997  11.6029997  52.1220016
  76.6669998  10.8889999  52.2989998  76.6110001  12.3719997  52.2130013
  78.5469971  18.3369999  52.4879990  77.6979980  17.8659992  52.4799995
  78.4810028  18.7689991  51.5779991  60.0970001   6.7519999  50.1539993
  60.9749985   6.7709999  49.7120018  60.1110001   5.8509998  50.5169983
  35.7369995  74.5830002  53.4819984  36.3040009  74.0780029  54.0699997
  35.1780014  73.9300003  53.0519981  65.7050018  14.2600002  60.3110008
  66.0569992  15.0609999  59.8619995  64.7320023  14.4589996  60.2430000
  72.9729996  10.2250004  57.1139984  72.2460022  10.8030005  56.7830009
  72.5009995  10.0620003  58.0000000  20.3579998  69.1240005   8.0109997
  21.1170006  69.6309967   7.8179998  20.7670002  68.3420029   8.4630003
  64.1449966   7.1149998  65.3580017  64.6589966   6.2610002  65.1979980
  63.9410019   7.3610001  64.4369965   6.3969998  18.8519993  55.9609985
   6.1399999  19.2730007  56.8120003   6.1630001  19.6079998  55.3849983
   5.9840002  15.0600004  45.8629990   6.5339999  14.2770004  45.7789993
   6.3439999  15.6400003  45.1660004  10.9510002  15.4799995  61.0279999
  11.4080000  16.0960007  60.4080009  11.6540003  14.8070002  61.2169991
   5.1380000  18.3610001  49.9720001   5.6539998  18.3850002  49.1339989
   5.8709998  18.0720005  50.5769997  49.8880005  81.4260025  54.8190002
  50.5740013  80.9589996  55.2900009  49.4949989  80.6880035  54.3339996
   2.7679999  22.2849998  43.8380013   3.2890000  21.6639996  43.3339996
   2.4400001  21.6450005  44.5559998  68.2320023  12.4080000  48.4679985
  67.7340012  12.7110004  47.6839981  68.8909988  13.2080002  48.4339981
  72.1169968  35.4589996  46.7280006  71.2850037  35.6069984  47.2270012
  71.8379974  35.4249992  45.8300018  26.0279999  43.1230011  -5.0730000
  25.3700008  42.5060005  -5.4480000  25.4419994  43.8779984  -4.8790002
   6.8080001  15.4989996  57.5849991   7.6079998  14.9399996  57.4259987
   6.8010001  15.9619999  56.7309990   4.0460000  25.7140007  52.1699982
   4.0570002  26.6940002  51.8470001   4.5669999  25.7840004  52.9449997
  77.2639999  14.6250000  56.7890015  77.8679962  14.5240002  56.0079994
  77.9169998  15.0089998  57.4389992   2.3460000  14.4420004  55.4560013
   2.8650000  14.4709997  56.3079987   2.8550000  13.8699999  54.8959999
   3.3000000  24.0960007  50.3540001   4.0279999  23.5520000  50.0760002
   3.6570001  24.6830006  51.0639992   1.8960000  28.2350006  54.8610001
   1.3559999  29.0529995  54.8069992   1.2869999  27.6539993  54.3170013
  69.1269989  14.4940004  60.0390015  68.4550018  15.1689997  59.7779999
  68.7320023  13.6770000  59.5870018  77.7289963  19.2929993  49.7039986
  76.9160004  18.9459991  49.2770004  78.3320007  19.1369991  48.9430008
   1.4480000  26.3220005  47.0429993   1.1130000  27.0370007  46.4630013
   0.7880000  25.6060009  46.8829994  63.1430016  15.9849997  52.4679985
  62.2400017  16.3889999  52.4640007  63.4150009  16.2140007  51.5260010
  71.0199966  11.1929998  58.8569984  71.5319977  11.9899998  59.1230011
  70.4160004  11.6070004  58.2019997  26.0030003  32.8520012  73.2259979
  26.4519997  32.0060005  73.2389984  25.0690002  32.6629982  73.0839996
  25.2849998  50.4830017  85.6709976  25.7140007  49.7459984  85.1999969
  25.9430008  50.7089996  86.3369980  30.0620003  28.2210007  74.8519974
  30.5130005  29.0610008  74.9140015  29.4559994  28.2099991  75.6100006
  24.6320000  38.1010017  74.8960037  25.4650002  38.4539986  74.5019989
  24.4769993  38.7560005  75.6080017  34.1189995  51.7159996  74.7050018
  35.1199989  51.7820015  74.7289963  33.9529991  52.6160011  75.0869980
  47.5950012  79.9410019  18.2229996  48.5690002  79.9970016  18.1809998
  47.4399986  80.9229965  18.3910007  50.2490005  79.1729965  23.8190002
  50.1030006  78.6500015  22.9850006  50.5769997  80.0080032  23.4519997
  16.1229992  38.3479996  77.6500015  16.1049995  39.0009995  78.3430023
  15.1510000  38.3330002  77.4369965  31.5119991  45.1870003  74.2570038
  31.2420006  44.3889999  73.7440033  30.8290005  45.7709999  73.8840027
  47.7519989  77.4660034  22.6809998  48.3680000  77.2180023  22.0219994
  47.0379982  76.8359985  22.5459995  43.4199982  80.5950012  20.4890003
  43.3339996  79.7149963  20.0389996  42.8820000  81.1240005  19.7660007
  24.0000000  55.6240005  75.9199982  23.9360008  55.5190010  76.9130020
  23.1070004  55.5320015  75.6050034  41.4210014  40.2509995  75.9639969
  41.8269997  39.6049995  75.3919983  40.4580002  40.1209984  75.7440033
  21.1219997  44.3610001  69.0260010  21.1240005  43.5769997  69.6370010
  21.4090004  43.9300003  68.2350006  29.0440006  46.0029984  73.5059967
  28.9309998  45.0880013  73.7639999  28.2490005  46.4329987  73.7639999
  33.4090004  45.7249985  75.9250031  32.6549988  45.6010017  75.2070007
  32.8160019  46.0099983  76.6600037  51.4650002  67.4270020  14.0749998
  51.5359993  68.2559967  13.5649996  50.5299988  67.1289978  13.7980003
  28.9619999  46.5439987  78.9219971  29.2310009  46.3019981  79.8170013
  28.0790005  46.8969994  78.9550018  31.1329994  42.2610016  76.4599991
  31.0070000  42.0859985  77.4410019  30.5939999  43.1380005  76.4420013
  76.9349976  17.0610008  21.3810005  76.8270035  16.5580006  20.5459995
  77.2819977  17.9109993  21.0090008  16.1819992  26.1270008  13.4530001
  15.6140003  25.3829994  13.7819996  16.7789993  26.2649994  14.2449999
   3.9010000  19.7940006  20.0709991   4.7560000  20.3400002  19.9640007
   3.5829999  20.2430000  20.8509998  31.4090004  46.4350014  77.6709976
  30.7029991  46.3769989  78.2870026  31.0639992  46.9970016  76.9319992
  79.4459991  13.9919996  26.8780003  80.3550034  13.6820002  26.8759995
  79.1790009  13.9740000  27.8309994  33.4790001  43.2060013  78.1029968
  33.0900002  42.4039993  77.6100006  33.3460007  43.8030014  77.3389969
  16.8500004  39.8050003  73.1849976  15.9639997  39.8829994  73.6539993
  17.3120003  39.2430000  73.8479996  24.0569992  54.3190002  67.8059998
  25.0319996  54.4620018  67.7210007  24.1000004  53.7200012  68.5800018
  44.7919998  74.1259995  20.4080009  44.4319992  73.2229996  20.6650009
  45.1679993  73.9169998  19.5310001  25.3659992  40.8240013  78.1419983
  24.9099998  40.6209984  78.9690018  26.2210007  40.2770004  78.2689972
  24.2940006  44.6450005  77.9850006  25.1480007  44.2260017  77.6979980
  23.8570004  44.7239990  77.1220016   5.3340001  17.4300003  18.3479996
   5.2040000  18.3419991  18.6270008   6.3309999  17.3330002  18.3789997
  38.6300011  54.1899986  74.4000015  39.3730011  53.5639992  74.4219971
  38.6710014  54.5359993  73.5049973  19.8789997  12.3260002  18.0189991
  19.9699993  13.3179998  18.0830002  18.9039993  12.2690001  17.8670006
  21.4680004  55.7779999  75.0090027  20.7719994  55.9889984  74.3440018
  21.7290001  54.8699989  74.6559982  41.2239990  34.0670013  73.5240021
  41.5190010  34.4179993  72.6529999  42.1399994  33.9560013  73.9079971
  52.4269981  76.8679962  22.4850006  52.0159988  75.9889984  22.4150009
  51.9599991  77.3550034  21.7810001  28.0170002  42.1349983  81.8330002
  27.5769997  42.8889999  82.3040009  27.6189995  42.3400002  80.9250031
  43.9539986  30.5470009  81.2600021  43.5719986  30.0480003  80.4710007
  44.1339989  31.3850002  80.8519974  32.6910019  20.8220005  69.0439987
  32.2779999  20.0720005  69.5630035  33.4210014  21.0230007  69.7040024
  43.9539986  52.9080009   6.8070002  44.1990013  52.0040016   7.1690001
  42.9650002  52.7879982   6.9050002  47.0750008  56.5040016   7.7230000
  47.9889984  56.5190010   7.8420000  46.8129997  55.5839996   7.9419999
  43.9140015  48.6240005   2.5209999  44.4659996  47.9090004   2.9310000
  43.0070000  48.3139992   2.8540001  28.8139992   5.8720002  64.0100021
  27.9009991   6.1970000  64.1920013  29.3339996   6.5700002  64.5479965
  45.7140007  50.6240005   1.5820000  44.9449997  50.3359985   2.1389999
  45.6759987  51.5979996   1.6550000  27.4880009  28.2830009  71.7630005
  26.8040009  28.8980007  72.0319977  27.0459995  27.5470009  71.3440018
  32.4459991  15.9480000  62.8030014  32.8820000  15.5679998  63.5849991
  31.6270008  15.3509998  62.7220001  36.9389992  20.5000000  61.5369987
  36.5890007  20.1259995  62.3759995  36.1800003  20.2310009  60.9449997
  37.0649986  10.9250002  64.5960007  37.2750015   9.9580002  64.3190002
  36.7519989  11.2279997  63.7130013  24.0000000  25.7469997  73.3170013
  23.6110001  26.6940002  73.5169983  23.5590000  25.3090000  74.1139984
  30.6770000  11.1120005  67.6630020  30.2229996  10.7840004  68.4860001
  31.5769997  11.2240000  68.0800018  55.0730019  42.2599983   1.6640000
  55.2879982  42.9830017   0.9930000  55.6459999  41.5629997   1.3730000
  49.3450012  57.1290016   5.7309999  48.4879990  57.4440002   5.4169998
  49.6850014  56.5320015   5.0720000  58.1139984  62.4930000  19.0849991
  57.3040009  62.7179985  18.4909992  57.7299995  61.7220001  19.5189991
  29.3080006  16.5030003  67.8440018  29.5200005  16.5760002  66.8840027
  28.7959995  15.7180004  67.8550034  27.0939999   3.8460000  55.6879997
  26.8020000   3.5380001  54.7939987  26.9629993   3.0369999  56.1720009
  26.3330002  12.1669998  63.5320015  26.4640007  11.3199997  64.1309967
  26.9839993  12.6870003  63.9500008  23.3770008   9.5229998  60.8089981
  24.3320007   9.8599997  60.8030014  23.1410007   9.8950005  61.6850014
  43.0960007  53.2200012   1.2830000  43.2190018  52.3269997   0.9640000
  43.1510010  53.0970001   2.2390001  55.3580017  58.5709991  12.8280001
  54.9319992  58.3110008  13.6250000  54.5519981  59.0330009  12.3959999
  47.6199989  29.4899998  65.5100021  47.4290009  29.6690006  66.4260025
  48.5929985  29.3059998  65.4820023  39.3040009  29.7210007  70.3130035
  40.1669998  30.1200008  70.1169968  38.8320007  30.4699993  70.6890030
  26.5139999  19.6700001  70.1940002  26.0879993  20.1170006  69.4619980
  26.1299992  20.0879993  70.9680023  32.6829987  35.3370018  80.5910034
  32.7159996  36.3590012  80.6740036  33.5989990  35.1660004  80.3649979
  61.2900009  64.1259995  17.3640003  61.9430008  63.7579994  17.8740005
  60.9129982  63.3899994  16.8230000  43.7379990  41.9900017  80.1230011
  43.8440018  42.7439995  79.5289993  43.0919991  42.4140015  80.7429962
  42.3600006  28.1860008  65.8580017  42.9370003  28.8099995  66.3000031
  41.9109993  27.7299995  66.6050034  52.8199997  30.8700008  70.0210037
  52.4970016  30.8850002  70.9479980  52.4510002  29.9740009  69.7819977
  27.2549992  28.1910000  75.1589966  27.4720001  27.7019997  74.3470001
  27.4440002  29.1000004  74.8870010  49.4319992  20.1350002  67.7139969
  49.9679985  19.3250008  67.4879990  49.9329987  20.7369995  67.1949997
  37.4169998  31.9160004  70.8720016  38.2589989  32.5120010  71.0400009
  37.1090012  32.5000000  70.1039963  32.8750000  26.0650005  75.9550018
  32.3209991  26.4869995  76.5970001  33.7529984  26.0189991  76.4550018
  44.5379982  26.8689995  78.8590012  44.3660011  27.1219997  79.8050003
  45.1100006  27.6259995  78.5800018  69.2109985  66.5899963  23.4580002
  69.8059998  67.1890030  24.0219994  68.3669968  66.9840012  23.5480003
  66.1869965  73.3320007  23.9750004  66.9560013  73.0780029  24.5860004
  66.6669998  74.0419998  23.4699993  23.9239998  20.3139992  67.8639984
  23.9080009  20.7010002  68.7399979  23.0790005  20.6580009  67.5070038
  33.0209999  26.0499992  67.7239990  32.3889999  25.2880001  67.8330002
  33.0200005  26.4039993  68.5849991  40.2970009  23.7700005  78.6259995
  39.8409996  24.6580009  78.5530014  41.2480011  24.0410004  78.6949997
  37.4140015  38.5870018  73.8280029  37.8559990  39.2120018  74.4420013
  38.1209984  38.3800011  73.2480011  39.8660011  30.5389996  73.7279968
  40.0690002  29.7929993  73.1409988  40.7229996  30.6959991  74.1439972
  34.5680008  40.7890015  75.9929962  35.1609993  41.5769997  75.8420029
  34.8489990  40.5229988  76.9000015  47.0989990  32.2669983  73.6569977
  46.9189987  33.0320015  74.2590027  46.6250000  31.5599995  74.1729965
  60.2029991  61.9000015  16.0470009  60.0330009  60.9700012  15.9130001
  59.4290009  62.2820015  15.4989996  23.8990002  48.0779991  82.7229996
  23.5599995  48.5610008  83.5289993  23.9099998  48.8899994  82.1070023
  55.8479996  77.7969971  28.7570000  56.4220009  78.5940018  28.9880009
  56.0190010  77.7279968  27.7849998  29.7810001  23.4899998  73.3750000
  30.3820000  23.5310001  72.5490036  29.9750004  24.4050007  73.6309967
  41.9169998  30.6660004  68.8310013  42.7970009  30.5459995  68.3789978
  41.9179993  31.6520004  68.9599991  41.6100006  38.2249985  73.7279968
  40.8530006  37.8089981  73.2689972  41.8429985  38.9650002  73.0820007
  34.5489998  21.7630005  75.1910019  35.5169983  21.7819996  75.0400009
  34.3759995  20.8479996  75.3539963  33.9259987  19.3999996  66.7239990
  33.7630005  19.9270000  67.5189972  33.0029984  19.1900005  66.4570007
  40.3100014  24.1700001  75.7580032  39.9399986  24.1469994  76.7050018
  41.1380005  23.7439995  75.9710007  41.9959984  21.5400009  66.8330002
  42.8709984  21.5990009  66.3519974  41.6980019  20.7129993  66.4179993
  43.7719994  37.0999985  77.2639999  43.2939987  36.8089981  78.1060028
  44.6749992  37.0019989  77.6449966  47.0029984  27.6889992  69.9039993
  46.4990005  27.0130005  70.4309998  46.5810013  27.4379997  69.0410004
  67.2559967  42.9620018  15.6049995  66.9309998  43.5680008  14.9200001
  68.0029984  43.5190010  15.9169998  56.9160004  60.5849991  13.5070000
  57.2459984  60.8730011  12.6099997  56.3940010  59.7760010  13.1239996
  32.5999985  32.2109985  75.2210007  31.8330002  31.8360004  74.7399979
  32.5699997  31.6930008  76.0319977  39.3289986  26.2830009  78.8479996
  38.9379997  26.9909992  79.4069977  40.0120010  26.8080006  78.3610001
  31.5160007  39.4150009  83.5270004  31.6009998  39.9630013  82.7300034
  32.4020004  39.2439995  83.8069992  44.8110008  45.0180016  69.7379990
  45.3359985  45.4700012  69.0930023  45.4959984  44.7299995  70.3479996
  34.0219994  29.8929996  69.6729965  33.4049988  29.1420002  69.6389999
  34.5460014  29.6679993  68.8669968  26.1620007  16.6550007  69.5910034
  26.2830009  17.5660000  69.4820023  27.0230007  16.2369995  69.7229996
  37.8339996  27.5890007  70.6610031  37.3750000  27.6669998  71.5159988
  38.4189987  28.3530006  70.7480011  33.4150009  34.7060013  76.9089966
  33.3320007  34.0900002  76.1320038  33.9469986  34.1380005  77.5339966
  37.4529991  37.3419991  78.7429962  38.2470016  37.3800011  79.3320007
  36.7260017  37.0940018  79.3980026  46.2050018  41.1180000  76.0240021
  45.8790016  40.5830002  76.7860031  45.8110008  40.6069984  75.2570038
  33.1549988  42.9410019  72.2080002  33.0550003  43.8880005  72.1470032
  32.2449989  42.6119995  72.0289993  46.4609985  35.7529984  87.3020020
  47.0569992  35.8520012  86.5579987  46.8250008  36.4160004  87.9430008
  49.8889999  59.4550018   9.4189997  50.4440002  60.0600014   9.8660002
  49.0880013  59.4449997  10.0159998  42.4720001  29.6550007  79.0759964
  42.5089989  30.5450001  78.6549988  41.6430016  29.7469997  79.5530014
  48.4420013  26.4810009  67.1640015  48.4869995  25.8069992  66.3970032
  47.5149994  26.7269993  67.0410004  54.6380005  31.2800007  81.3300018
  54.1250000  30.8110008  81.9520035  55.4490013  31.4640007  81.9290009
  42.2449989  33.0789986  81.3219986  43.0190010  33.6059990  81.4449997
  42.0839996  33.1570015  80.3679962  54.8149986  53.5820007  11.9169998
  55.6769981  53.9329987  11.6800003  54.1629982  54.2509995  11.6429996
  50.6320000  31.4699993  67.9990005  50.4220009  30.6359997  67.4980011
  51.3339996  31.2059994  68.6269989  43.2270012  42.2490005  76.9769974
  42.5209999  41.7519989  76.5619965  43.8950005  41.5460014  77.1529999
  60.7109985  31.5869999  78.0059967  60.4350014  32.5209999  77.7870026
  60.3950005  31.1240005  77.2180023  30.9150009  25.9220009  73.9909973
  31.4729996  25.7670002  74.7809982  30.6030006  26.8920002  74.1439972
  41.6180000  32.0229988  77.6719971  40.9519997  31.8010006  77.0049973
  41.3880005  32.9199982  77.9570007  30.5359993  35.1279984  77.0530014
  31.2269993  35.6780014  77.3270035  30.4069996  35.4259987  76.1370010
  45.7130013  38.9550018  69.7659988  46.5019989  39.1290016  70.3140030
  46.0410004  39.2690010  68.8830032  41.4440002  46.0439987  75.6050034
  41.9560013  45.6910019  76.3899994  41.9010010  46.8950005  75.5159988
  57.0320015  53.9239998   8.2919998  56.0550003  53.8300018   8.3479996
  57.2019997  53.7410011   7.3829999  39.2589989  40.3989983  71.4649963
  39.2330017  39.5200005  71.9619980  40.2239990  40.4199982  71.2369995
  24.0270004  23.9720001  67.5159988  23.7290001  23.2660007  66.9059982
  24.4540005  23.3910007  68.2180023  26.9029999  31.6240005  65.1409988
  26.8540001  32.0629997  66.0009995  26.0070000  31.1900005  65.1039963
  26.2910004  23.1509991  71.2210007  25.7380009  22.4529991  71.6100006
  26.5170002  22.7140007  70.3740005  45.3779984  32.7980003  70.8669968
  45.2249985  31.8190002  71.0149994  45.4000015  32.7900009  69.8899994
  32.7120018  29.9619999  72.6340027  32.1349983  30.4729996  71.9700012
  33.5929985  30.1819992  72.1780014  42.5250015  24.5079994  72.3799973
  43.0209999  23.9260006  72.9739990  41.8300018  24.8840008  72.9720001
  60.5470009  37.9799995  67.6729965  60.9749985  37.1500015  67.9879990
  59.5940018  37.7960014  67.7559967  44.2980003  37.9119987  86.8479996
  44.9819984  37.4010010  87.3379974  44.6329994  38.8199997  86.9309998
  26.0340004  11.1529999  16.9890003  25.1320000  10.7069998  17.1940002
  26.1310005  10.8750000  16.0709991  51.1479988  31.1660004  87.5609970
  52.1559982  31.1420002  87.5780029  50.9440002  30.2000008  87.5080032
  55.5419998  78.4339981  20.2000008  56.2680016  78.3420029  19.5300007
  55.2080002  77.4929962  20.1310005  62.7470016  65.6729965  21.9050007
  63.1739998  65.1729965  22.6189995  62.0880013  64.9589996  21.6140003
  46.9239998  26.9309998  82.6829987  46.2579994  27.1800003  82.0619965
  47.1320000  27.7959995  83.0830002  68.2350006  62.5400009  21.0550003
  68.6480026  63.4090004  20.6800003  67.5490036  62.4710007  20.3460007
  45.0089989  39.9939995  78.0179977  44.9430008  39.0900002  77.6579971
  45.0239983  39.8380013  78.9889984  39.0680008  32.8349991  78.8170013
  39.7690010  33.2529984  79.3249969  39.3889999  31.8840008  78.9150009
  37.5369987  35.3510017  77.0370026  37.5499992  36.1650009  77.6380005
  36.9609985  34.7480011  77.6050034  50.2360001  48.4720001  16.8110008
  51.0169983  48.4109993  17.4419994  50.2319984  49.4910011  16.7999992
  47.3030014  25.5830002  79.5390015  46.5320015  26.1480007  79.7919998
  46.7639999  24.7700005  79.2149963  58.3339996  67.3440018  17.5090008
  58.5449982  66.3820038  17.6289997  58.6759987  67.4619980  16.5760002
  38.4570007  32.7560005  74.8590012  38.8779984  32.0789986  74.2819977
  38.4480019  32.2439995  75.7350006  58.2560005  37.4990005  75.5000000
  58.1489983  37.5979996  76.4469986  59.1839981  37.9650002  75.4800034
  54.7010002  23.3230000  73.9020004  54.4239998  23.6240005  72.9810028
  54.0760002  23.8740005  74.4179993  39.5139999  18.9750004  75.6419983
  39.1780014  19.7590008  76.2259979  40.4510002  19.2019997  75.6470032
  68.2750015  58.5270004  17.4370003  68.4850006  59.2579994  18.0340004
  68.3949966  57.7820015  17.9939995  50.0830002  21.3419991  70.2720032
  49.4570007  20.8449993  69.7239990  49.8590012  22.2700005  70.0490036
  39.6370010  16.9820004  67.4560013  38.7999992  16.5300007  67.1699982
  39.3289986  17.6030006  68.1220016  29.9209995  35.3680000  74.2969971
  29.2590008  34.9029999  73.7779999  30.6140003  35.5070000  73.6640015
  49.9199982  32.2700005  72.8410034  49.1119995  32.5060005  73.3870010
  49.5099983  32.5649986  71.9700012  39.1059990  19.1320000  69.1019974
  39.9739990  19.4300003  69.1859970  38.5180016  19.8899994  69.1809998
  45.4910011  26.6040001  67.7580032  44.6930008  26.2010002  68.1240005
  45.1100006  27.0790005  66.9609985  26.4080009  43.0180016  76.8199997
  26.1550007  42.7999992  75.9089966  25.9009991  42.2330017  77.2070007
  43.7779999  17.7880001  67.7570038  44.4830017  17.2980003  67.2910004
  43.1320000  17.9480000  67.0139999  43.8170013  33.4799995  72.9319992
  43.4319992  34.3149986  72.6340027  44.3300018  33.1819992  72.1640015
  21.7280006  44.9570007  79.4229965  22.5739994  44.6360016  79.1190033
  21.9290009  45.2350006  80.3330002  36.1949997  26.9899998  68.5230026
  37.0769997  26.9410000  68.9940033  35.5820007  27.0340004  69.3030014
  35.7529984  49.0040016  73.6350021  36.1269989  49.8260002  73.9599991
  35.3680000  49.2999992  72.7880020  20.1739998  42.4080009  80.6320038
  20.6060009  42.3829994  81.5080032  19.7119999  43.2280006  80.6740036
  37.1479988  22.3829994  74.3590012  37.5229988  22.2029991  73.4369965
  37.9949989  22.4349995  74.8389969  48.2830009  38.0740013  83.3789978
  48.7700005  37.7400017  84.2040024  47.5270004  37.4179993  83.4420013
  22.8560009  18.2789993  16.3929996  23.8570004  18.1250000  16.4179993
  22.8500004  19.0529995  15.8299999  34.9049988  52.7550011  70.3619995
  34.0950012  53.2330017  70.0869980  35.5890007  53.3300018  70.0000000
  56.2150002  56.6879997  71.8840027  55.2919998  56.5660019  71.6289978
  56.6710014  56.1660004  71.2009964  48.8779984  45.6590004  78.8479996
  48.3390007  45.8590012  78.0210037  49.6769981  46.1409988  78.6650009
  43.7459984  54.5400009  66.3059998  43.0050011  54.6059990  65.5979996
  43.9109993  55.4889984  66.3919983  50.8629990  47.2509995  67.7559967
  50.1829987  46.5390015  67.9769974  51.2799988  47.3339996  68.6490021
  47.8899994  55.4869995  74.7850037  47.1360016  55.5270004  75.4649963
  48.3989983  56.1959991  75.1999969  42.6020012  44.7019997  77.5390015
  43.5359993  44.9869995  77.5009995  42.7379990  43.7340012  77.4000015
  50.9609985  45.4070015  75.2320023  50.9609985  46.4210014  75.2730026
  50.1669998  45.3160019  74.6600037  23.4810009   9.9770002  17.7849998
  23.1720009  10.5129995  17.0480003  23.1439991  10.4709997  18.5520000
  35.5620003  60.2350006  70.9000015  36.1669998  59.5340004  71.2389984
  35.9869995  61.0349998  71.3310013  58.6689987  46.1780014  75.6999969
  58.7579994  45.8790016  74.7819977  57.7690010  46.6520004  75.6669998
  49.1189995  40.8680000  72.7880020  49.5940018  41.7750015  72.7779999
  49.1899986  40.8190002  73.8050003  47.6129990  32.0740013  77.4940033
  48.2560005  31.3579998  77.6510010  46.9620018  31.6949997  76.9229965
  49.5589981  51.1110001  71.6119995  49.5449982  50.1339989  71.5839996
  49.7159996  51.2360001  72.5810013  45.1310005  39.7709999  73.9079971
  45.0569992  38.8419991  73.6090012  44.3160019  40.2620010  73.6100006
  46.5849991  44.2669983  71.3489990  46.8619995  44.6189995  72.1660004
  46.3619995  43.2890015  71.6429977  28.0179996  40.0699997  71.5989990
  28.1830006  39.1160011  71.7340012  28.9009991  40.3950005  71.3320007
  46.4780006  50.2410011  61.7490005  46.4410019  50.4399986  62.6640015
  45.5750008  50.5089989  61.4560013  30.4689999  54.4630013  68.4980011
  29.9769993  53.9729996  67.7979965  30.0079994  55.3240013  68.4059982
  62.9109993  71.4649963  22.8080006  63.7389984  71.6009979  22.3320007
  62.2939987  71.7979965  22.1200008  47.6710014  29.9710007  84.8710022
  47.6570015  30.6840000  85.5380020  46.8549995  30.2229996  84.3479996
  43.2060013  37.8429985  70.2340012  44.0120010  38.3839989  70.0159988
  42.6220016  38.5940018  70.4950027  48.2910004  40.2999992  68.7399979
  49.0110016  40.2630005  68.0879974  48.6759987  39.8190002  69.4810028
  48.3079987  24.1900005  81.6849976  48.3829994  24.9920006  82.2440033
  48.2350006  24.6490002  80.8170013  47.8969994  28.0540009  74.9430008
  47.8839989  27.9220009  75.9530029  47.2480011  28.7759991  74.8990021
  48.9939995  46.1489983  69.7929993  48.8019981  45.1380005  69.7710037
  48.1930008  46.4609985  69.3069992  49.3720016  40.9739990  75.5759964
  48.8069992  40.3759995  76.0790024  49.4160004  41.6930008  76.2539978
  45.8289986  43.9570007  75.3779984  46.5769997  44.3129997  74.9010010
  46.0509987  43.0180016  75.4850006  37.8139992  21.5030003  11.2919998
  37.9440002  22.2950001  10.6960001  38.2439995  21.7849998  12.1180000
  45.9090004  35.7319984  72.5780029  45.8479996  34.7890015  72.7500000
  45.1240005  36.0999985  72.9609985  43.5429993  62.5079994  59.2369995
  43.3720016  62.2760010  58.2960014  43.9900017  61.6730003  59.5279999
  52.3190002  40.3959999  75.1529999  52.4339981  41.0390015  74.4319992
  51.4049988  40.5600014  75.4229965  44.6310005  54.0820007  68.9140015
  43.9980011  54.2729988  68.2220001  44.9480019  54.9519997  69.1800003
  64.4629974  53.4430008  67.1169968  63.7249985  52.8170013  67.3750000
  64.7809982  52.9910011  66.2910004  57.0880013  47.6269989  68.3270035
  57.8129997  47.4329987  69.0569992  57.6240005  47.3409996  67.5729980
  45.3180008  49.3380013  73.4670029  45.2729988  48.3750000  73.3669968
  45.1469994  49.4760017  74.4260025  32.4150009  40.6310005  74.4649963
  31.9069996  41.2290001  75.0049973  33.2179985  40.5919991  74.9869995
  36.7179985  53.4720001  81.5569992  36.4440002  53.2120018  80.6220016
  36.6990013  54.4620018  81.3939972  63.9360008  39.4760017  76.2200012
  64.0380020  39.7770004  75.3050003  63.5919991  40.3089981  76.6559982
  40.7070007  38.3040009  83.2320023  40.0449982  37.6300011  83.5989990
  40.2890015  39.1059990  83.5609970  40.9650002  28.0160007  77.5339966
  41.5760002  28.3640003  78.2799988  41.6640015  28.0860004  76.7959976
  46.0159988  28.9860001  78.4410019  45.6069984  29.6940002  77.9169998
  46.8880005  28.8700008  78.0179977  30.4699993  25.0440006   4.9130001
  30.8250008  25.0100002   4.0359998  30.4599991  24.0949993   5.1599998
  26.8020000  15.6759996  12.7159996  25.8899994  15.7279997  12.4930000
  26.8490009  16.4400005  13.3959999  23.7150002   7.7189999  19.5680008
  23.9950008   7.0489998  18.9130001  23.4489994   8.4659996  18.9130001
  52.5709991  42.1990013  73.2259979  53.2200012  42.3390007  72.5029984
  51.9640007  42.9350014  73.0910034  44.7080002  48.5849991  79.6460037
  45.5740013  49.0839996  79.6969986  45.0000000  47.7319984  79.9950027
  30.5990009  30.8290005  73.9189987  30.6240005  31.5109997  73.2519989
  31.2509995  30.2110004  73.4560013  36.9889984  39.3279991  82.4309998
  37.5089989  39.5260010  81.5920029  36.2360001  38.9000015  82.0650024
  29.6959991  45.7319984  81.5199966  30.0809994  44.8110008  81.5970001
  29.4549999  45.8219986  82.4759979  17.2140007  15.5369997  22.4850006
  17.0939999  15.8739996  23.3939991  16.4130001  15.8730001  22.0300007
  52.9589996  37.3860016  69.7050018  52.6780014  38.2799988  69.5889969
  53.8499985  37.4630013  70.1230011  65.9749985  37.5810013  77.1770020
  66.2900009  37.0589981  76.4520035  65.4570007  38.2809982  76.7239990
  52.7480011  40.6809998  67.0139999  53.5309982  41.2900009  66.9290009
  52.7470016  40.2680016  66.1230011  22.6790009  16.1340008  26.7390003
  23.3899994  16.1060009  26.0669994  22.1599998  16.8980007  26.3479996
  37.3940010  23.4060001   7.1350002  37.7620010  23.5790005   7.9980001
  37.1220016  22.4130001   7.3540001  50.3359985  48.1510010  59.8629990
  49.8559990  47.3370018  59.5620003  49.6629982  48.5320015  60.4850006
  47.0779991  30.9249992  67.7180023  46.9440002  30.9580002  68.6510010
  47.3170013  31.8479996  67.5039978  28.5919991  22.3260002  19.2689991
  28.6809998  23.0879993  19.9130001  29.3419991  22.5620003  18.6930008
  42.4959984  59.3829994  67.4990005  42.6129990  59.1380005  66.5780029
  43.3839989  59.3479996  67.8270035  15.3660002  10.3970003  18.5540009
  15.8950005   9.8859997  19.1790009  14.4580002  10.2010002  18.9309998
  39.6479988  56.2919998  67.3720016  39.9090004  56.6510010  66.5009995
  40.2280006  56.8149986  67.9690018  26.6930008  39.9519997  74.2419968
  27.0559998  39.9519997  73.3180008  27.5009995  40.2200012  74.7300034
  40.0050011  32.5779991  82.8499985  39.9539986  33.5849991  82.9469986
  40.9099998  32.5890007  82.4560013  41.1910019  47.2649994  80.6460037
  41.3040009  47.6119995  81.5400009  41.0419998  46.3250008  80.7590027
  47.8820000  34.4589996  81.9100037  48.7089996  34.9570007  82.0530014
  47.3100014  35.0470009  82.4229965  42.1469994  43.4980011  81.6910019
  42.3590012  43.4690018  82.6309967  41.3510017  44.0250015  81.6809998
  48.2570000  38.9879990  71.1569977  48.6220016  38.1899986  71.5449982
  48.5359993  39.7010002  71.7760010  69.3570023  70.3990021  32.9980011
  69.3089981  69.5139999  33.4970016  70.3349991  70.4729996  32.9710007
  57.2719994  45.4399986  71.9069977  56.9599991  45.3370018  72.8209991
  56.5330009  45.8779984  71.4759979  44.0149994  45.4599991  74.3040009
  44.5750008  44.8160019  74.8199997  44.6189995  46.1269989  74.0100021
  52.4539986  46.1360016  72.6279984  51.9679985  45.7849998  73.3560028
  51.8450012  46.2179985  71.9000015  15.5699997  22.6989994  12.0880003
  14.7259998  23.0690002  12.4390001  15.4560003  21.7479992  12.1990004
  29.0179996  44.1780014  77.0619965  29.1149998  45.0019989  77.5810013
  28.1000004  43.9760017  77.2300034  49.8359985  27.5009995  70.2620010
  49.8349991  27.6459999  71.2649994  48.8409996  27.5400009  70.1370010
  58.5960007  56.4980011  64.1640015  58.0699997  57.3390007  64.1989975
  58.6650009  56.2470016  65.0619965  52.1539993  61.3190002  65.9950027
  51.2280006  60.9669991  66.2070007  52.5740013  61.0839996  66.8410034
  19.3199997  18.1949997  18.2119999  20.0930004  17.6970005  17.8220005
  19.2999992  18.9920006  17.7220001  44.9799995  45.3160019  80.5619965
  44.5359993  44.5460014  80.9189987  44.9809990  45.1040001  79.6119995
  39.2239990  44.1209984  74.1200027  39.1899986  45.0169983  74.4919968
  38.4840012  43.7190018  74.7310028  28.4400005  43.5859985  85.8629990
  28.5769997  43.6139984  86.8440018  28.7439995  42.6660004  85.6979980
  27.9540005  51.1329994  68.2699966  28.4979992  51.6329994  68.9059982
  27.1399994  50.9939995  68.8130035  47.0639992  42.3699989  78.5260010
  46.8889999  41.7999992  77.7559967  47.9160004  42.8240013  78.2030029
  43.9739990  36.9469986  74.1750031  43.8569984  36.9910011  75.1610031
  43.1080017  37.3849983  73.9260025  55.2939987  36.4570007  81.4810028
  56.0999985  36.3600006  80.8590012  55.2669983  37.4519997  81.3909988
  56.0489998  44.8279991  74.2590027  56.2540016  44.2060013  75.0179977
  55.0730019  44.9580002  74.5090027  45.5390015  51.9659996  67.2300034
  45.7220001  51.1910019  67.7969971  45.1010017  52.5250015  67.9380035
  43.9269981  56.1370010  71.8109970  43.7820015  55.6899986  72.6689987
  44.9039993  55.9980011  71.6740036  37.0309982  43.2449989  75.4789963
  36.1650009  43.3559990  75.0770035  36.8129997  43.2620010  76.4499969
  46.0250015  36.2960014  69.7910004  45.8779984  37.2649994  69.6910019
  45.9290009  36.1910019  70.7799988  30.2250004  41.8800011  79.2490005
  29.7450008  41.0839996  79.7190018  29.4939995  42.5169983  79.2679977
  38.4300003  40.1619987  80.3199997  38.9020004  39.4169998  79.9690018
  39.0859985  40.8849983  80.2239990  50.0550003  43.7309990  63.7519989
  50.6110001  43.7060013  64.5589981  50.2919998  42.9220009  63.3180008
  50.3870010  58.2869987  69.8199997  50.4020004  57.4339981  69.3460007
  49.6160011  58.1510010  70.3840027  29.6250000  22.1879997  15.0730000
  29.5149994  22.4689999  14.1230001  28.8799992  22.7000008  15.5010004
  12.2840004  15.4589996  24.3400002  11.5139999  16.0359993  24.3959999
  12.3549995  15.3549995  23.3670006  45.7900009  46.7970009  72.3229980
  46.6269989  46.4869995  72.7060013  45.7540016  46.2060013  71.5250015
  45.6640015  49.5379982  68.6589966  45.9490013  49.5600014  69.6149979
  44.6839981  49.5120010  68.8369980  44.5060005  57.0120010  66.8519974
  44.5530014  57.7470016  67.5699997  45.1860008  57.4300003  66.2300034
  62.9650002  45.1599998  75.8970032  62.7350006  46.0779991  76.2269974
  62.0779991  44.7560005  75.7570038  55.5940018  59.3959999  67.0270004
  54.8310013  58.7690010  67.3239975  56.3190002  59.0000000  67.5879974
  60.1399994  49.4220009  67.3089981  60.9129982  49.8940010  66.9990005
  59.4749985  50.0320015  67.1490021  58.8180008  64.8239975  17.9379997
  59.8199997  64.9000015  17.9209995  58.7470016  63.9949989  18.4360008
  47.2840004  30.1700001  80.5350037  48.0960007  29.6480007  80.3030014
  46.6529999  29.8150005  79.8290024  48.2999992  57.3470001  67.4270020
  47.7000008  57.6949997  68.0360031  47.7739983  57.4150009  66.5950012
  49.8160019  64.8860016  69.5360031  49.8199997  65.1510010  68.5739975
  49.6520004  63.9500008  69.4459991  57.8769989  55.0139999  66.4189987
  57.3390007  54.1899986  66.2860031  57.1570015  55.6080017  66.7050018
  39.7599983  17.4319992  10.6110001  39.9799995  16.6130009  11.0039997
  39.2120018  17.1989994   9.8959999  49.3339996  63.5250015  65.6859970
  48.5169983  64.1240005  65.5370026  49.3499985  63.0309982  64.8809967
  49.2610016  66.7929993  67.1920013  49.2400017  67.4039993  67.9820023
  50.2179985  66.5650024  67.1910019  48.2579994  53.9840012  54.6129990
  47.3120003  54.1189995  54.8559990  48.2900009  53.0299988  54.3989983
  15.6510000  15.8570004  18.9829998  15.2049999  16.3120003  19.7889996
  14.9770002  15.1110001  18.9419994  41.6189995  57.8950005  74.2590027
  40.8530006  58.5639992  74.4029999  41.7260017  57.6590004  75.1740036
  32.6180000  18.0699997  12.6800003  32.9249992  18.3209991  11.7629995
  31.7950001  17.5860004  12.4049997  25.2409992  15.6820002  16.1189995
  25.1790009  15.7480001  17.0860004  24.4629993  15.1759996  15.8640003
  47.8160019  49.4949989  66.9619980  47.2140007  49.6240005  67.7080002
  47.1529999  49.2639999  66.2929993  54.9449997  51.9339981  61.8359985
  54.6020012  51.4220009  61.1290016  55.4720001  52.6119995  61.3899994
  54.7639999  69.0289993  54.9379997  54.0250015  69.6569977  54.9850006
  54.7140007  68.7399979  54.0209999  51.5649986  53.4459991  66.3199997
  50.9449997  54.1920013  66.3059998  52.4049988  53.9430008  66.1070023
  52.3709984  51.0559998  65.9219971  51.7540016  50.6300011  66.6220016
  52.0299988  51.9129982  65.9309998  55.9370003  63.0139999  60.6430016
  55.6380005  63.3549995  61.5139999  55.0970001  62.9080009  60.1819992
  55.0940018  42.8660011  72.2089996  55.2270012  43.5050011  72.9250031
  55.7630005  42.1829987  72.5059967  51.4420013  34.2949982  -6.1009998
  50.5610008  34.6529999  -6.1050000  51.4790001  34.0079994  -7.0830002
  34.6059990  -3.9140000  59.3530006  34.5209999  -4.8930001  59.5629997
  33.7560005  -3.6250000  59.6870003  12.6049995  60.4809990  40.2220001
  12.9410000  61.3569984  40.0279999  13.3369999  59.9410019  40.0180016
  26.8349991  -5.8620000  50.9269981  26.6690006  -4.9130001  50.8089981
  26.4060001  -6.0749998  51.7739983  22.9349995   0.6200000  55.3950005
  22.2579994   1.0650001  55.9329987  22.3190002   0.2520000  54.7169991
  67.2220001  76.6179962  49.0610008  67.1780014  77.2020035  48.2949982
  66.2600021  76.3659973  49.0800018  29.8490009   3.1540000  46.4500008
  30.8150005   3.0170000  46.2919998  29.9020004   4.1729999  46.5219994
  13.9890003  68.1380005  55.8839989  14.5059996  67.7099991  55.2029991
  14.1000004  69.0810013  55.6129990  29.0510006   7.1149998  56.1920013
  28.1930008   6.7379999  56.4889984  28.9890003   6.8509998  55.2360001
  40.1660004  10.3870001  54.7350006  40.2280006   9.9639997  55.5730019
  39.7080002   9.6990004  54.1959991  22.1709995   6.2880001  60.8289986
  21.8509998   6.8959999  61.5449982  21.7339993   5.4840002  61.1980019
  51.3950005  44.1780014   9.2589998  50.4109993  44.0229988   9.5559998
  51.7910004  43.5050011   9.8269997  25.8369999  -0.6390000  55.4449997
  24.9220009  -0.3200000  55.6300011  26.2789993   0.0250000  56.0050011
  28.4090004   5.4619999  49.8740005  27.9349995   5.0050001  49.1650009
  29.1889992   4.9000001  49.9910011  18.9150009   3.0360000  53.5610008
  18.7310009   2.2030001  54.0229988  18.3110008   3.6789999  53.8339996
  30.6539993  -3.8030000  53.2109985  30.1310005  -3.9110000  52.4059982
  31.4930000  -4.3039999  52.9949989  29.0520000   1.1430000  53.1080017
  29.5930004   1.9310000  53.0149994  29.2950001   0.7900000  53.9669991
  22.7450008  17.3400002  58.6310005  23.5639992  16.8299999  58.4300003
  22.5799999  17.0960007  59.5880013  75.2740021  65.0059967  49.7729988
  74.9059982  65.8990021  49.6059990  74.4410019  64.4779968  49.5699997
  39.6240005  28.2450008  62.9029999  39.8250008  28.2059994  61.9710007
  39.2820015  27.3299999  63.0779991  54.3019981  38.8880005   0.0590000
  55.0460014  38.4109993  -0.2560000  54.3499985  39.7130013  -0.5030000
  51.3040009  52.3269997   6.5339999  51.6419983  52.9269981   5.8290000
  51.7729988  52.5190010   7.3189998  37.0009995  12.2620001  62.1879997
  36.4169998  11.9239998  61.5219994  36.4550018  13.0559998  62.4850006
  38.4329987  18.8269997  50.7949982  38.5919991  18.7749996  51.7540016
  37.6949997  18.2679996  50.6549988  30.2250004  20.5669994  65.0970001
  30.6259995  19.7290001  65.4130020  30.5760002  21.1700001  65.7720032
  27.5690002  19.9200001  59.4640007  27.4820004  19.6200008  58.5559998
  27.7479992  20.8729992  59.3709984  39.2729988  20.8880005  60.5519981
  38.3660011  20.5540009  60.8310013  39.1080017  21.8169994  60.5379982
  35.8930016   2.8329999  53.5070000  36.4160004   2.2600000  52.9140015
  35.4430008   3.4449999  52.8889999  30.9090004  20.5979996  52.9129982
  31.6679993  20.5480003  52.3089981  30.9920006  21.5569992  53.2249985
  68.6549988  58.4840012  13.7840004  67.7470016  58.3889999  14.1250000
  68.9919968  57.5390015  13.8830004  32.3230019  11.7320004  61.3390007
  31.8759995  12.0799999  60.5359993  31.5699997  11.1890001  61.6860008
  39.5660019  14.5419998  58.4700012  39.2459984  13.6929998  58.9399986
  39.4350014  14.1630001  57.5649986  40.8139992   5.9720001  52.7109985
  41.0600014   6.9619999  52.7400017  41.5320015   5.6420002  53.2039986
  46.5839996  24.8530006  56.4379997  45.7809982  24.7180004  57.0219994
  46.8510017  23.8959999  56.4080009  29.9930000  10.3090000  61.7379990
  30.0060005   9.3430004  61.6629982  29.4860001  10.6190004  61.0070000
  39.1080017   4.6550002  64.5869980  39.4039993   4.5500002  63.6399994
  38.3440018   4.0530000  64.5759964  79.3119965  55.6170006  56.9739990
  79.1849976  54.6230011  57.0060005  78.9260025  55.8750000  57.8409996
  30.3430004   0.6200000  55.7589989  29.9820004   1.2650000  56.4199982
  30.3260002  -0.2060000  56.3359985  29.4750004  18.1730003  60.4770012
  28.9340000  18.7530003  59.9179993  29.8959999  17.6299992  59.8680000
  41.6829987   3.2040000  64.8720016  41.4679985   2.5030000  64.2170029
  40.8870010   3.7639999  64.7900009  41.7369995   6.2649999  56.0929985
  42.6520004   6.5640001  56.3230019  41.8959999   5.8070002  55.3009987
  44.5250015  26.1100006  60.4469986  44.1899986  26.9349995  60.8520012
  44.0400009  25.4640007  60.9300003  47.0239983   0.3400000  48.2439995
  46.2159996   0.8940000  48.3600006  47.4819984   0.4340000  49.0979996
  58.1529999  41.6269989   6.7280002  57.2080002  41.8559990   6.7950001
  58.0699997  40.6790009   7.0330000  35.9070015  -1.9850000  51.0769997
  35.2560005  -2.5920000  50.8129997  35.4160004  -1.1270000  50.9889984
  35.6269989   7.2199998  57.8269997  34.9199982   7.0349998  57.1430016
  35.0890007   7.8290000  58.4059982  41.3409996  18.6630001  66.1090012
  40.5900002  18.1009998  66.3750000  41.4690018  18.2520008  65.1880035
  25.3740005  18.6590004  66.4850006  26.2380009  19.1429996  66.3750000
  24.8880005  19.4069996  66.9609985  54.6349983  25.4209995  68.6110001
  53.7980003  24.9179993  68.7919998  54.5429993  26.0820007  69.3430023
   7.1259999  68.2289963  46.1699982   7.4250002  69.2080002  46.1030006
   7.7560000  67.8909988  46.8489990  43.2700005  17.0879993  53.3650017
  43.5670013  16.6340008  54.1549988  43.9029999  17.8190002  53.3370018
  73.5049973  35.2610016   8.5710001  74.3880005  35.4420013   9.0679998
  73.9329987  34.9930000   7.7069998  34.2490005  22.8339996  63.1739998
  33.3149986  23.0289993  63.1969986  34.2430000  21.8449993  63.3660011
  30.5890007  13.6450005  66.4089966  30.7320004  12.6940002  66.3949966
  29.7320004  13.7570000  66.8010025  30.7150002  25.4689999  55.6139984
  29.7940006  25.7950001  55.8120003  30.9799995  25.2579994  56.5629997
  48.5200005  24.5669994  76.6559982  48.6759987  23.7040005  77.1250000
  48.2220001  24.2019997  75.7760010  37.3940010  15.4399996  66.5619965
  36.8310013  16.1760006  66.8649979  36.8240013  14.6719999  66.8629990
  27.1599998  15.2510004  61.7649994  26.2800007  14.9270000  62.0589981
  27.0300007  15.4659996  60.8829994  49.9119987   9.9340000  49.2340012
  49.9179993  10.1359997  48.2480011  49.0449982   9.5950003  49.3300018
   1.6059999  63.0950012  53.4539986   1.1890000  63.0660019  54.3479996
   1.7180001  64.0589981  53.2960014  43.4790001  21.9230003  62.0540009
  44.1479988  21.9020004  61.3510017  43.5760002  22.9340000  62.1930008
  29.6790009  15.4890003  55.5540009  29.9589996  16.3129997  55.2190018
  30.5359993  14.9510002  55.3540001  41.1529999  11.6160002  69.0729980
  40.4319992  11.2360001  68.5699997  41.0769997  11.3999996  69.9690018
  44.7949982  19.0839996  69.7659988  44.5219994  18.6590004  68.9290009
  44.1879997  18.6229992  70.4029999  37.4980011   3.7709999  56.0379982
  37.1119995   3.6530001  55.1679993  36.7389984   3.9510000  56.5589981
  40.0089989   3.3350000  55.6419983  39.0629997   3.4059999  55.8089981
  40.3219986   4.1320000  55.2949982  32.0359993   7.9400001  51.9790001
  32.5909996   8.6040001  52.4529991  31.1280003   8.3190002  52.1049995
  60.9669991  40.1790009   1.0840000  61.2649994  40.6629982   1.8780000
  61.6500015  39.4770012   1.0710000  34.7050018  10.2200003  44.9589996
  35.2410011  10.8839998  44.3740005  33.8510017  10.6409998  44.8479996
  39.5830002   7.1659999  65.4189987  39.3269997   6.2509999  65.1320038
  40.3820000   6.8990002  65.9520035  28.8759995   6.2110000  53.5519981
  27.9890003   5.8590002  53.6209984  28.8619995   6.6180000  52.6809998
  37.3899994  21.5939999  50.6020012  37.7130013  21.1079998  49.8320007
  38.2080002  21.9020004  50.9879990  19.0380001  69.6539993  60.3279991
  19.2670002  69.5670013  59.3740005  18.1639996  70.0979996  60.2169991
  43.1819992  13.6490002  64.4270020  43.4480019  13.9469995  65.3330002
  43.3120003  12.6990004  64.4380035  36.7350006  16.3129997  64.1669998
  37.6399994  16.4720001  63.7430000  37.0429993  15.7910004  64.9639969
  50.2910004  41.4119987   0.0710000  49.8820000  40.6469994   0.4540000
  51.1910019  41.4609985   0.5710000  34.0200005   7.1859999  55.7890015
  33.2840004   7.8470001  55.6119995  33.4650002   6.3810000  55.7599983
  60.3740005  24.2369995   3.4040000  60.5359993  23.3419991   3.8480000
  59.3720016  24.2360001   3.3850000  31.9069996  10.5139999  58.1230011
  32.2000008  10.8739996  57.2680016  31.3640003  11.2489996  58.5340004
  37.4220009   5.5960002  53.5550003  36.8709984   5.9870000  52.8779984
  37.6209984   4.7150002  53.2480011  39.9239998  13.5900002  66.6299973
  39.2859993  13.0170002  67.0619965  39.4430008  14.4270000  66.6279984
  47.2220001  14.4890003  73.2310028  46.6619987  14.9340000  72.5299988
  46.7290001  14.8140001  74.0449982  32.4259987   8.9399996  64.4150009
  32.6529999   8.8760004  65.4010010  32.3580017   7.9109998  64.2910004
  54.6720009  58.9080009   8.8409996  55.3549995  59.6650009   8.8240004
  54.2779999  59.0540009   7.9320002  47.3610001  20.2549992  69.6750031
  47.7039986  20.1609993  68.7519989  46.4609985  19.8969994  69.5729980
  34.2779999   7.7700000  50.2620010  34.6110001   8.6450005  50.1310005
  33.4099998   7.9770002  50.6850014  29.1280003  -3.6080000  55.3250008
  28.4829998  -2.9970000  54.9090004  29.8560009  -3.5339999  54.6489983
  60.1819992  50.9290009  12.7989998  59.7050018  51.7029991  12.3629999
  60.9239998  51.4690018  13.2790003  30.0370007  14.9650002  62.9449997
  29.2199993  15.0550003  62.4379997  30.0629997  13.9840002  63.1290016
  35.4980011  18.5879993  63.3670006  35.7299995  17.6499996  63.2589989
  35.9679985  18.8579998  64.0989990  47.0190010  22.5130005  71.0400009
  47.4220009  21.7889996  70.5910034  46.9879990  23.1630001  70.3160019
  39.1430016  12.3299999  48.6679993  39.6990013  12.0050001  49.4070015
  38.9589996  13.2200003  49.0330009  36.8800011  11.1160002  70.4110031
  36.2770004  11.8070002  70.0849991  37.2719994  11.5900002  71.1500015
  43.3720016  24.7430000  62.4550018  42.4879990  24.4410000  62.2179985
  43.1800003  25.6609993  62.7480011  32.0670013  10.1980000  48.4620018
  32.6640015  10.3879995  49.1879997  31.3810005  10.8559999  48.6800003
  44.4490013   8.6110001  70.6070023  45.1710014   8.5430002  69.9580002
  43.7239990   8.2240000  70.1070023  24.4790001   3.2609999  57.7770004
  24.4689999   2.9779999  58.7000008  23.7040005   3.8880000  57.8040009
  56.8470001  44.4850006   0.8280000  57.6710014  44.1170006   0.3390000
  57.1129990  44.3419991   1.7700000  35.2319984  12.4300003  58.5509987
  35.4440002  13.2360001  59.0439987  35.0299988  11.8269997  59.2690010
  55.3909988  40.8409996  -1.6730000  56.4220009  40.8339996  -1.6220000
  55.3559990  41.8279991  -1.5350000  32.5229988  19.6930008  58.0950012
  32.2179985  20.2259998  57.3520012  33.3530006  19.3250008  57.6850014
  35.4710007  18.3859997  69.9029999  34.8310013  17.7129993  70.1360016
  36.0330009  18.4640007  70.7119980  28.6529999  26.4410000  67.1039963
  28.9689999  25.7180004  67.6510010  29.2980003  27.1200008  67.4329987
   9.0430002  68.4980011  56.6160011   9.2910004  67.6660004  57.1320000
   9.5319996  68.3529968  55.8320007  66.2330017  46.1899986  19.5569992
  65.7229996  45.4770012  19.9400005  66.9869995  45.7109985  19.2299995
  32.5680008  28.4979992  66.7009964  32.8750000  27.5830002  67.0130005
  31.6509991  28.5000000  67.0790024  34.7410011  18.3059998  57.1539993
  35.6040001  17.9629993  57.4000015  34.8870010  18.3910007  56.1759987
  36.3409996  14.7200003  59.6380005  36.8240013  15.5799999  59.6040001
  37.0289993  14.0769997  59.5139999  36.2729988  24.7740002  64.0240021
  35.7159996  24.1250000  63.4860001  35.7470016  24.7689991  64.8430023
  47.2070007  11.0959997  57.3870010  47.9049988  10.9589996  58.0989990
  46.5390015  11.5310001  57.9469986  31.1350002  17.1320000  70.1380005
  31.1490002  18.0919991  70.3880005  30.2490005  17.0259991  69.7389984
  35.4799995  14.3620005  62.9580002  34.7500000  14.4499998  63.6339989
  36.0979996  15.0839996  63.3540001  27.9680004  12.0509996  59.4710007
  27.5569992  12.9709997  59.4039993  27.2579994  11.4989996  59.7430000
  19.6580009  11.5380001  56.0999985  18.7110004  11.5369997  56.3839989
  19.7140007  12.4359999  55.7630005  40.5209999  17.6910000  73.6149979
  39.9580002  18.0170002  74.3690033  40.7900009  16.8180008  73.9380035
  49.9980011  28.9410000  66.4280014  49.5880013  28.1310005  66.7679977
  50.8079987  29.0060005  66.9860001  33.9840012   8.7550001  59.5209999
  34.4230003   9.5249996  59.9220009  33.1349983   9.1910000  59.1510010
  29.3169994  16.9379997  64.9209976  29.3579998  16.2119999  64.2229996
  28.5340004  17.4330006  64.5820007  17.6240005  11.2849998  48.3190002
  18.3680000  11.9040003  48.3660011  17.9710007  10.6850004  47.6049995
  35.0079994   1.2760000  55.6580009  34.1389999   1.3700000  55.5169983
  35.4230003   1.6980000  54.8489990  36.0270004   5.7979999  64.6019974
  36.0029984   6.0209999  65.5670013  35.2109985   5.2600002  64.5350037
  34.4700012  -2.1919999  62.0239983  35.4150009  -2.4700000  62.0379982
  34.0040016  -2.7420001  62.6110001  27.9270000   6.8119998  59.3750000
  27.0030003   6.6739998  59.7369995  27.7439995   6.9390001  58.4140015
  42.6660004  27.2910004  63.2410011  43.2709999  27.5400009  63.9640007
  41.8559990  27.8069992  63.4930000  44.3499985   6.5790000  56.5320015
  44.8030014   7.4809999  56.6320000  45.1199989   6.0190001  56.8709984
  42.9360008   8.5640001  58.8530006  43.5789986   8.7580004  58.1409988
  42.4659996   7.7839999  58.5849991  32.5519981  21.8959999  65.8119965
  33.4189987  21.7229996  66.1500015  32.4599991  21.1450005  65.1750031
  34.1269989  16.3939991  60.6419983  34.5989990  15.5469999  60.4920006
  33.7369995  16.2189999  61.4959984  35.0509987  22.2789993  67.5210037
  35.9980011  22.1410007  67.3010025  34.8139992  23.0070000  66.9909973
  33.2360001  14.2130003  64.8069992  32.9230003  13.3579998  64.4800034
  32.6180000  14.3450003  65.5289993  33.4049988  15.7489996  70.9120026
  32.5940018  16.2530003  70.9199982  33.7970009  15.8950005  71.7350006
  31.6429996  18.2460003  65.7119980  30.9410000  17.6490002  65.5260010
  32.3009987  17.6630001  66.0820007  17.8430004  26.5389996  71.4349976
  18.2250004  27.4799995  71.3069992  17.9349995  26.2570000  70.5000000
  34.3950005   6.2519999  61.0820007  34.2700005   7.0619998  60.5340004
  33.4770012   6.2399998  61.5060005  47.7560005  13.5819998  60.8100014
  48.0320015  13.3020000  61.6590004  46.7900009  13.6379995  60.9710007
  24.1380005  21.7110004  47.4150009  24.6429996  20.9419994  47.7509995
  23.2660007  21.5429993  47.8100014  38.0960007  21.2709999  72.1770020
  39.0419998  20.8740005  72.2200012  38.1980019  21.5879993  71.2170029
  45.9469986   8.7939997  59.9900017  46.6920013   9.1499996  60.4189987
  45.2859993   9.4720001  60.2490005  34.8139992  21.0779991  70.4690018
  35.2830009  20.3589993  70.0189972  35.3380013  21.8490009  70.3769989
  47.7060013   8.0419998  48.0379982  47.0719986   7.7410002  47.3600006
  48.3680000   7.3979998  48.0530014  20.9120007   2.3290000  56.8610001
  21.0680008   2.9319999  57.5820007  20.4190006   2.9250000  56.2270012
  37.1780014  17.3099995  56.9780006  37.7260017  17.8430004  56.4020004
  37.3050003  16.4179993  56.6119995  43.6559982   1.6059999  66.9049988
  44.5839996   1.3210000  66.7379990  43.6459999   2.4649999  66.4629974
  30.6180000  16.2040005  52.2010002  31.1709995  16.9689999  51.9550018
  31.0480003  15.8269997  53.0009995  40.9210014  23.1420002  48.7859993
  40.1599998  23.6889992  49.2010002  40.4519997  22.2759991  48.7509995
  41.7249985  15.2900000  68.4229965  41.0419998  15.9840002  68.3170013
  41.2120018  14.5159998  68.0859985  31.6889992  17.1250000  59.2739983
  32.4889984  16.8519993  59.7229996  31.9209995  17.9790001  58.8520012
  25.5450001  75.2149963  68.2860031  24.7490005  75.6930008  67.9010010
  25.5270004  74.4700012  67.6600037  11.4130001  63.7760010  60.5009995
  10.4639997  63.8149986  60.7439995  11.6630001  64.7289963  60.6199989
  42.0159988   4.0749998  60.4269981  42.5040016   4.6700001  61.0499992
  42.2779999   3.1989999  60.7529984  44.8730011  12.1260004  59.1819992
  44.2859993  11.7060003  58.5620003  44.4070015  11.9469995  60.0439987
  44.3409996   6.2199998  51.2680016  43.9249992   7.0730000  51.4500008
  44.5209999   5.7900000  52.1020012  38.7929993  -1.8510000  51.8450012
  38.4879990  -0.9190000  51.7350006  37.8639984  -2.2660000  51.8629990
  23.8519993   3.4830000  55.1100006  23.8069992   3.2470000  56.0589981
  23.6459999   2.6080000  54.6769981  39.8310013  -1.2960000  55.4099998
  39.0139999  -1.7790000  55.4430008  39.4609985  -0.3660000  55.1739998
  35.6080017   9.2810001  54.6250000  35.2410011   8.5000000  55.0779991
  36.3250008   8.8950005  54.1020012  44.1500015   1.4640000  52.5970001
  43.4599991   1.2850000  53.2970009  44.7579994   1.9480000  53.1720009
  57.9900017  36.5419998   2.5070000  57.4930000  37.2039986   3.0290000
  57.3629990  35.7989998   2.5669999  45.9129982  12.3389997  65.6190033
  46.6769981  11.9540005  65.9950027  45.2070007  11.7110004  65.8180008
  39.3190002  16.7840004  63.8619995  39.5989990  15.8430004  63.8540001
  40.0999985  17.2240009  63.4669991  46.0369987   2.7179999  60.7150002
  46.0429993   3.3920000  61.4399986  46.0070000   1.9180000  61.2509995
  28.1650009  24.4400005  62.6030006  28.1840000  24.4139996  63.5890007
  27.3449993  24.0300007  62.4210014  46.3429985  18.1159992  62.0149994
  45.6360016  17.7399998  61.4760017  47.1160011  17.5200005  61.6790009
  35.6800003  19.1749992  53.7910004  35.7999992  20.0720005  53.3440018
  34.7039986  19.3479996  54.0330009  42.9990005   6.0060000  61.8209991
  43.2330017   5.9899998  62.7540016  42.4169998   6.8730001  61.7890015
  27.0639992  74.4290009  58.6100006  27.4540005  73.9629974  57.8349991
  27.4260006  73.8740005  59.3100014  38.2809982  23.3740005  61.2949982
  37.7919998  22.7880001  61.8940010  37.5000000  23.6439991  60.7080002
  39.7589989  11.8850002  46.0169983  39.5699997  12.1599998  46.9370003
  39.3909988  12.6169996  45.5070000  20.8250008  75.3470001  55.9749985
  21.7819996  75.3180008  56.2109985  20.8120003  75.4390030  54.9690018
  47.7340012   9.7550001  61.5449982  48.0229988  10.6099997  61.1139984
  48.5019989   9.5579996  62.1020012  35.3330002  19.2789993  59.7369995
  34.8670006  19.0510006  58.8559990  34.8190002  18.7369995  60.3230019
  40.3440018   9.2259998  63.7509995  40.4510002   9.8529997  64.5540009
  40.0349998   8.4619999  64.3679962  47.9910011   1.8850000  58.9290009
  47.5139999   2.1810000  59.7490005  47.8769989   0.8970000  59.0810013
  46.8619995  22.4939995  67.3290024  46.8590012  23.1660004  68.0770035
  47.7529984  22.6089993  66.9520035  48.7410011  17.0860004  73.0699997
  49.3400002  16.6049995  73.6279984  47.8629990  16.8460007  73.4160004
  47.9700012  21.1149998  64.8990021  47.4830017  20.5219994  65.5130005
  47.5009995  20.9659996  64.0709991  46.9770012  20.1009998  53.7849998
  46.6780014  19.4069996  54.3440018  47.9760017  19.9510002  53.8489990
  40.9280014  24.7889996  61.0200005  40.0330009  24.5270004  60.7480011
  40.8429985  25.7749996  61.0900002  63.6440010  27.2430000  67.2549973
  64.5579987  26.9519997  67.4260025  63.2140007  26.6110001  67.8840027
  44.9560013  16.6779995  60.1920013  44.6339989  16.2380009  60.9659996
  44.9150009  15.9320002  59.5410004   2.8710001  44.9500008   9.5830002
   3.0769999  45.2729988   8.7189999   1.9840000  44.5649986   9.4320002
  59.0219994  16.3810005  68.9280014  58.9059982  17.1790009  69.5530014
  58.3740005  15.7860003  69.2860031  50.4539986  21.9419994  73.5380020
  49.5769997  22.4230003  73.5839996  50.6619987  21.9689999  72.5930023
  53.0000000  16.7649994  63.9230003  53.9140015  16.6940002  63.4589996
  53.2179985  17.3899994  64.6650009  53.6389999  21.6760006  60.4379997
  53.3359985  21.3920002  61.3580017  52.8849983  21.4930000  59.9490013
  48.0909996  23.4979992  73.6880035  48.1199989  24.4780006  73.6620026
  47.4410019  23.3409996  72.9329987  38.3660011  25.6490002  62.7809982
  38.5629997  24.7180004  62.4729996  37.4140015  25.4759998  62.9300003
  51.7480011  26.7280006  60.8629990  51.5009995  26.1679993  60.1119995
  52.5950012  27.0960007  60.5369987  39.4760017  18.5860004  55.9830017
  39.9930000  18.7859993  56.8059998  40.2109985  18.6940002  55.3400002
  56.7820015  13.5509996  66.0500031  56.2130013  14.2320004  66.3909988
  57.6609993  13.8280001  66.3420029  54.7980003  61.9690018  10.5469999
  55.6290016  61.6199989  10.2209997  54.2239990  62.0849991   9.8030005
  42.9860001  24.6529999  78.9879990  43.1599998  24.3260002  79.9010010
  43.6030006  25.4440002  78.9690018  47.8019981  34.1559982  66.2529984
  46.9690018  34.2290001  65.7590027  47.5330009  34.4150009  67.1470032
  52.0550003  34.7070007  66.8290024  51.4280014  34.0499992  66.5139999
  52.5789986  34.0750008  67.4619980  38.2949982  21.3549995  66.9000015
  37.9990005  20.5219994  66.3809967  39.2379990  21.3330002  66.6029968
  48.0620003  16.9169998  66.7440033  47.4819984  17.5590000  66.3000031
  47.9459991  16.1480007  66.1539993  41.7700005  18.3349991  63.5330009
  41.6380005  18.7479992  62.6889992  42.4620018  18.9209995  63.9350014
  47.2360001  20.5879993  62.3019981  46.6500015  20.6630001  61.5270004
  46.9920006  19.6690006  62.5900002  44.0279999  21.7140007  57.1699982
  43.2550011  21.2549992  56.7970009  43.6899986  22.1720009  57.9490013
  49.4020004  28.7150002  58.6650009  49.5169983  27.9510002  58.0740013
  48.7739983  29.2369995  58.1310005  40.0760002   8.3000002  56.8730011
  40.7379990   7.5939999  56.5660019  39.2639999   7.6849999  56.7280006
  63.4739990  35.0190010  -1.8590000  64.3550034  35.4550018  -2.0200000
  63.6850014  34.2849998  -2.5530000  53.6920013  18.7259998  65.8610001
  54.1020012  18.8700008  66.6849976  53.1559982  19.4880009  65.7210007
  49.6360016  18.7810001  59.3629990  49.3699989  18.3390007  58.5449982
  49.2659988  18.1650009  60.0169983  48.5690002   6.0549998  63.8069992
  49.4379997   6.4310002  63.9900017  48.3219986   6.5710001  62.9860001
  71.6330032  29.0450001  68.6760025  71.5469971  29.3220005  69.6399994
  70.8079987  28.5650005  68.5070038  53.0670013  28.8430004  63.9609985
  53.0589981  29.3430004  64.7910004  53.8950005  29.1609993  63.5289993
  42.9809990  18.4029999  57.1850014  42.3499985  18.7490005  57.9480019
  42.5999985  17.4930000  57.1259995  40.8759995  16.3439999  52.1279984
  40.2789993  16.2000008  52.9070015  41.7210007  16.6100006  52.6459999
  57.5070000  16.6860008  76.4990005  56.7080002  17.1599998  76.3259964
  57.2140007  15.8039999  76.8010025  35.5859985  24.5039997  75.0709991
  36.0839996  24.6149998  75.9059982  35.6360016  23.5289993  74.9400024
  48.9230003  22.6399994  61.8769989  48.4220009  23.4290009  61.6339989
  48.3100014  21.9220009  61.8300018  51.7570000  28.5629997  68.7770004
  50.9959984  28.4340000  69.4749985  51.9599991  27.5890007  68.6630020
  72.5000000  49.1189995  10.5570002  72.0279999  48.2929993  10.2849998
  72.7919998  48.7910004  11.4399996  41.0489998  20.8829994  52.0970001
  41.9339981  21.1359997  52.4119987  41.2389984  20.4939995  51.2229996
  58.9840012  30.4410000  66.3970032  58.6389999  29.5820007  66.0370026
  59.7070007  30.0480003  66.9619980  38.6839981  21.2870007  77.1449966
  39.0050011  20.8810005  77.9430008  38.7379990  22.2250004  77.3229980
  45.6860008  21.5639992  59.9749985  46.1220016  21.6439991  59.0970001
  45.1199989  20.7679996  59.7949982  59.1860008  26.2999992  64.9349976
  60.0260010  26.7830009  64.6679993  59.4850006  25.3640003  64.7470016
  44.5550003  24.8250008  58.1209984  43.7709999  24.2329998  58.2760010
  44.6059990  25.2929993  58.9580002  34.2099991  12.7650003  46.9080009
  34.6090012  12.6049995  47.7929993  34.2700005  11.9049997  46.5139999
  51.4490013   8.0550003  50.5019989  51.9550018   7.5539999  49.9029999
  51.0159988   8.7469997  49.8940010  33.5330009  20.3190002  63.2879982
  34.1040001  19.5049992  63.3400002  32.7010002  19.8430004  62.9780006
  42.1599998  35.4370003  71.5739975  41.2509995  35.6679993  71.3180008
  42.6250000  36.1440010  71.0599976  45.1119995  27.3719997  64.9700012
  45.1020012  28.2819996  64.7180023  45.9440002  27.0639992  64.5599976
  35.1220016  29.4500008  67.1849976  35.8079987  28.8069992  67.0520020
  34.3600006  29.0540009  66.7279968  49.0800018  17.6410007  70.4199982
  48.9560013  17.3349991  71.3840027  48.9020004  18.5750008  70.5199966
  53.0909996  19.0830002  71.6070023  52.8339996  19.8810005  71.0979996
  52.6320000  18.4200001  71.0459976  27.9930000  24.7339993  65.2659988
  28.8759995  24.3980007  65.4209976  28.0060005  25.4300003  65.9520035
  46.9959984  19.8959999  77.0660019  47.6370010  19.6380005  76.4479980
  46.1619987  19.8290005  76.6389999  48.0540009  13.2720003  69.3420029
  47.7869987  14.2100000  69.2910004  48.4440002  13.2110004  70.3000031
  55.9309998  20.1410007  60.6100006  56.1119995  20.1110001  61.5439987
  55.0589981  20.5499992  60.5660019  56.2500000  17.5090008  65.8919983
  55.7929993  16.7360001  66.2649994  55.5509987  17.9790001  65.4800034
  41.7760010  19.9899998  61.0660019  42.2639999  20.7010002  61.5699997
  40.9090004  20.3640003  61.0110016  45.5610008  20.6900005  72.9830017
  45.6259995  20.0340004  72.2600021  46.3120003  21.2570000  72.7740021
  39.3580017  -1.2460001  62.8839989  39.4809990  -0.4400000  62.4300003
  39.5009995  -0.9650000  63.8269997  54.3950005   5.2420001  61.6170006
  53.9889984   6.0070000  61.0569992  53.6220016   4.8629999  62.0019989
  62.4819984  26.1660004  63.0229988  61.9090004  26.5349998  62.2910004
  62.4799995  25.2520008  62.8429985  33.9399986  25.6159992  71.5100021
  34.4389992  24.8199997  71.6279984  33.9490013  26.0470009  72.3750000
  77.0289993  46.5870018  10.4169998  76.7080002  46.2900009  11.3020000
  77.7969971  46.0070000  10.2819996  61.2039986  41.1040001  73.6190033
  60.7949982  40.7050018  72.7779999  61.4500008  41.9700012  73.2320023
  49.6520004  28.0900002  72.8399963  48.8190002  28.1019993  73.4270020
  50.1559982  27.4150009  73.3010025  54.0779991  39.5589981  72.7470016
  53.6780014  40.4140015  72.4980011  53.4090004  39.2669983  73.4179993
  42.2319984  20.5130005  74.8239975  41.8170013  20.3439999  73.9729996
  42.0079994  21.3570004  75.1110001  44.4199982  24.5979996  65.1559982
  44.5000000  25.5209999  65.4270020  44.0740013  24.6809998  64.2289963
  58.6479988  18.6079998  66.9329987  58.1990013  18.0240002  67.5279999
  57.8919983  18.8889999  66.3349991  57.4980011  25.0660000  69.0510025
  56.5639992  25.2609997  68.8939972  57.5369987  24.2089996  69.4110031
  50.4459991  20.6439991  64.0419998  50.3300018  19.6630001  64.0550003
  49.4860001  20.7619991  64.3550034  59.1479988  14.9580002  66.6900024
  59.2340012  15.3750000  67.5390015  59.1590004  15.7040005  66.0660019
  50.3639984  17.9410000  64.3180008  49.7400017  17.2320004  64.1500015
  51.2010002  17.5130005  64.0770035  42.2690010  15.2240000  61.3510017
  41.8289986  15.9469995  60.8209991  41.6020012  15.0480003  62.0270004
  58.3110008  26.4549999  61.5660019  57.6590004  26.5200005  62.3199997
  58.0330009  25.6439991  61.1500015  44.5489998  22.0869999  65.8799973
  45.4900017  22.1879997  66.0810013  44.2789993  22.9860001  65.7440033
  51.0429993  20.9960003  59.0629997  50.2420006  20.3799992  59.2980003
  50.5309982  21.8349991  58.9949989  57.7830009  30.7530003  63.5359993
  57.5660019  31.4610004  64.1660004  57.7029991  29.9489994  64.1679993
  53.5449982  13.3400002  58.8160019  53.7519989  13.1339998  59.7169991
  54.2360001  12.8990002  58.2999992  70.3799973  59.5460014  15.8210001
  70.0820007  59.2109985  14.9630003  69.6750031  59.2369995  16.3619995
  35.9560013   4.8049998  59.3569984  36.0260010   5.6300001  58.8450012
  35.5190010   5.1420002  60.1629982  48.0439987  12.8240004  63.4329987
  47.1730003  12.8149996  63.8889999  48.6160011  12.3459997  64.0559998
  68.2979965  49.7789993  10.5179996  68.3450012  49.5880013  11.4540005
  68.8690033  50.5699997  10.4980001  44.6559982  19.5720005  52.6160011
  44.2309990  20.5060005  52.6450005  45.5209999  19.8250008  53.0379982
  52.5919991   9.2700005  61.9370003  51.6650009   9.1409998  62.1629982
  52.9640007   9.3160000  62.8440018  46.6780014  22.1340008  57.2579994
  45.8009987  21.8990002  56.8940010  47.1139984  21.2590008  57.2770004
  49.5470009   9.3909998  63.3300018  49.9900017   8.8450003  64.0199966
  50.1080017  10.2100000  63.4399986  53.5180016  18.8710003  55.6389999
  53.9259987  18.0470009  55.9440002  52.5359993  18.5440006  55.6180000
  60.9269981  17.4060001  65.5410004  60.3779984  17.2730007  64.7500000
  60.3139992  17.9340000  66.0960007  53.3429985  10.4230003  64.3229980
  53.9799995  11.1269999  64.5510025  53.6020012   9.7480001  65.0350037
  42.0050011  16.9650002  49.6809998  41.5390015  16.7619991  50.5569992
  42.8390007  16.5450001  49.7750015  52.3250008  15.6459999  58.3149986
  51.8180008  15.5030003  57.4990005  52.7840004  14.7910004  58.4090004
  61.4550018  27.8549995  64.9820023  62.0019989  27.2369995  64.4759979
  61.6139984  28.6580009  64.4720001  30.4710007  28.3400002  68.4599991
  31.0209999  27.9729996  69.1880035  30.1919994  29.1660004  68.9219971
  56.3330002  28.6529999  73.0289993  55.5349998  29.1569996  73.1480026
  56.9799995  29.3530006  72.7490005  44.5480003  19.9549999  49.9029999
  45.2700005  19.3069992  49.8030014  44.4879990  19.9890003  50.8779984
  47.7540016   2.3859999  66.5569992  46.9609985   1.7990000  66.7429962
  47.3089981   3.2730000  66.5540009  60.5299988  53.7239990   8.6059999
  59.8050003  54.4140015   8.7100000  61.1829987  54.1510010   9.2189999
  52.5229988  48.8759995  58.6910019  52.5470009  48.1329994  58.0400009
  51.6360016  48.7050018  59.0820007  60.7729988  32.9269981  65.0260010
  60.4840012  33.0820007  64.0709991  61.1150017  32.0600014  65.0049973
  55.0009995  29.1369991  66.8069992  54.5060005  29.8869991  66.3359985
  55.6969986  28.9510002  66.2220001  50.2379990  43.4220009  70.2990036
  49.4669991  43.2729988  69.6419983  50.9990005  43.5299988  69.6600037
  54.1209984  24.1980000  60.8450012  53.8269997  23.3209991  60.4920006
  53.7089996  24.7670002  60.1769981  64.8440018  32.8279991  54.7669983
  65.4349976  32.0579987  54.9459991  65.2320023  33.4809990  55.3540001
  61.3310013  36.9819984  57.8269997  60.8870010  36.1380005  57.6650009
  62.2260017  36.8470001  57.4189987  56.0079994  39.5019989  67.4670029
  55.6570015  40.3230019  67.0479965  56.0320015  39.8069992  68.4010010
  51.6150017  44.9360008  60.2010002  50.7109985  45.2770004  60.0089989
  52.1010017  45.3380013  59.4029999  55.3880005  35.1959991  67.2030029
  54.8600006  36.0070000  66.9339981  54.6689987  34.6699982  67.4769974
  69.7170029  33.6360016  53.1710014  69.2170029  33.9840012  52.4669991
  69.1989975  33.9869995  53.9550018  26.7500000  17.4869995  14.6759996
  26.1569996  17.0030003  15.3179998  27.3150005  17.9419994  15.3380003
  55.0610008  29.6100006  69.3600006  55.0909996  29.4060001  68.3929977
  54.2890015  30.2369995  69.3590012  69.1640015  39.0149994  57.8470001
  69.2170029  38.1409988  58.2290001  68.4670029  39.4469986  58.3880005
  54.9770012  42.2929993  66.7080002  55.2410011  43.1199989  67.1210022
  54.8409996  42.5180016  65.7839966  55.4790001  42.1629982  61.6549988
  55.5660019  42.3230019  60.6619987  56.3590012  42.5219994  61.9109993
  63.6110001  31.8110008  77.0260010  62.6640015  31.8369999  77.1289978
  63.7980003  30.8500004  77.0230026  71.2659988  38.7999992  67.9889984
  70.6269989  39.3639984  68.4459991  71.0780029  38.9939995  67.0339966
  62.1240005  34.5779991  71.9029999  62.6150017  34.6119995  71.1050034
  61.2159996  34.4070015  71.5230026  59.8530006  39.1269989  58.2830009
  60.3160019  39.6240005  57.5419998  60.1240005  38.2210007  58.0330009
  54.7239990  35.3829994  63.0130005  55.7019997  35.1860008  63.0349998
  54.7400017  36.0859985  63.7159996  54.4599991  42.3240013  64.0429993
  54.0950012  41.4599991  64.2979965  54.6290016  42.2140007  63.0559998
  68.2929993  37.1539993  59.8479996  68.1600037  36.4529991  60.5120010
  67.4769974  37.1230011  59.3580017  64.9039993  29.8099995  72.1600037
  64.1309967  30.3309994  72.4509964  64.5780029  29.5200005  71.2919998
  48.3149986  36.8470001  76.0650024  48.8019981  37.1559982  76.8960037
  47.4010010  36.9140015  76.3710022  59.8989983  57.9749985  66.5889969
  59.5789986  58.4220009  65.7809982  60.6339989  57.4160004  66.1809998
  54.9000015  49.1150017  68.3629990  55.6310005  48.4529991  68.4329987
  54.6250000  49.0260010  67.4309998  56.9189987  59.1199989  64.7149963
  56.1469994  58.8460007  64.1220016  56.4189987  59.2529984  65.5429993
  60.7739983  38.6170006  74.7779999  61.5849991  38.2120018  74.5410004
  60.8419991  39.5779991  74.4649963  56.2570000  23.3700008  62.9650002
  56.2070007  24.0419998  63.6860008  55.4809990  23.6049995  62.4189987
  63.8870010  33.7140007  65.2229996  64.0849991  34.6180000  65.0859985
  63.5579987  33.4659996  64.3399963  57.1489983  33.0029984  64.8960037
  57.3759995  33.3720016  65.7450027  57.1459999  33.7869987  64.3000031
  63.2130013  43.1959991  52.6010017  63.3899994  43.9560013  52.0839996
  62.2659988  43.0709991  52.5050011  60.2389984  32.4690018  60.2599983
  60.7140007  32.1500015  59.4609985  59.3580017  32.7060013  59.8510017
  58.9780006  35.8149986  61.2760010  58.9440002  35.9189987  60.3059998
  59.3149986  36.6739998  61.5670013  55.7010002  41.6360016  51.7789993
  55.0099983  41.9949989  51.2089996  55.6629982  42.2570000  52.5460014
  56.5429993  52.6930008  65.7740021  57.1829987  52.3520012  65.1620026
  55.7029991  52.3650017  65.5090027  59.1450005  60.2159996  60.8250008
  59.5999985  59.7080002  60.1069984  59.4389992  59.7309990  61.6010017
  63.2760010  37.8730011  55.9739990  62.9119987  38.7459984  56.1189995
  64.2249985  38.0320015  56.0200005  60.5209999  54.8940010  62.4659996
  60.4220009  55.4259987  61.6479988  59.9990005  55.3720016  63.0699997
  61.4010010  30.0930004  60.9650002  62.1809998  30.4640007  60.5149994
  60.8250008  30.8570004  61.0480003  57.7490005  40.8349991  59.3129997
  57.8680000  40.7919998  60.2869987  58.4500008  40.2039986  59.0369987
  64.3929977  33.9070015  60.6259995  64.0800018  34.6959991  61.1889992
  65.3339996  33.9860001  60.8429985  67.6940002  36.2400017  50.0569992
  67.6620026  37.1829987  49.6780014  68.5749969  36.3260002  50.4459991
  58.1990013  43.0830002  62.2879982  57.8689995  43.8950005  62.7789993
  58.7319984  43.5509987  61.6010017  42.0209999  11.0539999   9.1129999
  41.4360008  10.2840004   9.1759996  41.9459991  11.3479996  10.0579996
  55.9169998  50.5309982  63.9519997  55.6489983  51.2229996  63.3330002
  56.2430000  49.8320007  63.3510017  63.4080009  39.5089989  73.5130005
  63.2080002  38.7369995  72.9420013  62.4780006  39.9319992  73.5240021
  66.2080002  39.3750000  73.8460007  65.4069977  39.7019997  73.4150009
  65.8759995  38.5540009  74.2799988  61.7779999  47.7350006  62.1529999
  61.4410019  48.6230011  62.2220001  61.2980003  47.3709984  61.4309998
  54.6409988  56.3289986  59.7709999  54.3260002  57.1949997  59.3120003
  53.7270012  55.9140015  59.8100014  52.2000008  53.7709999  59.7490005
  52.8030014  53.0750008  59.8860016  52.1119995  54.1310005  60.6959991
  55.1160011  52.9710007  51.2770004  54.1949997  53.1500015  51.2130013
  55.1980019  52.3160019  51.9840012  51.5050011  36.0960007  73.9479980
  50.5800018  35.8380013  73.8369980  51.5369987  37.0209999  73.5319977
  37.3450012  15.8780003   6.5819998  37.7169991  16.2679996   5.7719998
  37.1529999  14.9589996   6.2560000  49.5410004  55.4039993  56.8240013
  49.2999992  54.7610016  56.1069984  49.0299988  55.0379982  57.5540009
  33.3950005  14.2399998  13.4610004  33.5390015  14.0100002  14.3909998
  32.3889999  14.1949997  13.4770002  68.5749969  40.9539986  63.0839996
  67.9369965  40.9589996  62.3170013  68.0439987  41.4609985  63.7360001
  51.0919991  24.9710007  58.2490005  50.4570007  25.3239994  57.5820007
  50.6049995  24.1089993  58.4920006  57.1899986  42.7019997  69.7870026
  56.7669983  43.5219994  69.5130005  57.8129997  42.5110016  69.0279999
  54.1580009  31.3630009  65.1600037  54.4550018  30.9330006  64.3529968
  54.6730003  32.1920013  65.0989990  63.7799988  38.7760010  59.1910019
  63.0320015  39.1020012  58.7309990  63.3549995  38.3979988  59.9869995
  43.1279984  52.6300011  70.9189987  43.2190018  51.7849998  70.4130020
  43.8489990  53.1349983  70.4950027  68.8710022  45.6679993  49.2869987
  68.7559967  44.6850014  49.2910004  68.8960037  45.8479996  48.3680000
  51.6609993  22.0939999  62.1440010  51.4020004  21.5100002  62.9129982
  50.7830009  22.4549999  61.8629990  52.4720001  47.7729988  61.7770004
  51.8300018  48.0629997  61.0690002  51.8129997  47.4580002  62.4469986
  50.1240005  52.0970001  51.1660004  51.0909996  52.1500015  51.0950012
  49.9350014  51.7099991  50.2929993  57.2560005  40.1899986  56.4830017
  57.2319984  40.3569984  57.4550018  57.6520004  41.0000000  56.1380005
  58.8870010  43.2150002  71.7210007  58.6580009  44.1170006  71.9029999
  58.1790009  42.9910011  71.0859985  51.9109993  53.7680016  73.8440018
  51.8089981  54.1819992  72.9469986  52.7309990  53.2799988  73.6399994
  59.0470009  49.8989983  60.0229988  59.0909996  50.3009987  59.1529999
  58.0610008  49.8479996  60.1279984  52.5740013  43.7470016  68.6119995
  53.2770004  43.1180000  68.9469986  53.0260010  44.6160011  68.7730026
  61.4399986  51.5439987  64.2659988  61.0410004  50.6730003  64.1039963
  62.1899986  51.1619987  64.8379974  52.5359993  23.7630005  69.0120010
  51.5830002  23.6399994  69.2409973  52.5620003  23.5550003  68.0699997
  58.2420006  49.1570015  55.1940002  58.0559998  49.8889999  54.5699997
  57.5760002  48.4850006  54.8930016  60.5369987  42.6459999  64.0100021
  60.9389992  43.5159988  63.7809982  59.5909996  42.9809990  63.8429985
  61.0079994  29.2040005  67.6869965  60.5900002  28.4589996  68.0619965
  61.6930008  28.7719994  67.1460037  58.0820007  37.3030014  67.6250000
  57.4970016  38.0849991  67.5790024  57.3889999  36.5940018  67.6259995
  56.4729996  27.8519993  59.8610001  57.2130013  28.0629997  60.4080009
  56.6469994  26.8910007  59.6539993  61.7960014  48.6990013  58.9669991
  62.0250015  49.6199989  59.0919991  61.4589996  48.6570015  58.0670013
  58.4900017  16.9500008  64.2919998  57.7319984  17.1350002  64.9079971
  57.9150009  16.5720005  63.5270004  67.7360001  28.5849991  55.4119987
  67.3820038  27.7110004  55.5419998  67.8949966  28.6900005  54.4900017
  58.9239998  47.2750015  63.9640007  58.3979988  46.4669991  63.7260017
  58.9169998  47.2070007  64.9499969  59.9609985  49.7970009  69.9609985
  60.1669998  49.6310005  69.0199966  59.6049995  48.9780006  70.2819977
  32.8849983  17.9190006   9.9329996  32.9920006  17.0240002   9.5489998
  32.8889999  18.4060001   9.0649996  56.8240013  52.6360016  73.7979965
  56.5180016  53.5649986  73.8140030  57.8260002  52.8370018  74.0289993
  29.3540001  17.7409992   9.2819996  28.7390003  18.2240009   9.8240004
  29.6569996  18.3689995   8.6059999  66.8079987  34.5550003  59.1879997
  66.8970032  34.7060013  60.1279984  66.4150009  35.4259987  58.9210014
  64.6210022  54.5340004  58.0320015  63.8330002  54.2890015  57.5349998
  65.2310028  53.8149986  57.9000015  53.4090004  26.3169994  63.0219994
  53.1899986  27.1040001  63.5690002  52.7739983  26.4790001  62.3180008
  68.8389969  38.3429985  74.2360001  68.4000015  37.5709991  74.5899963
  68.7160034  38.9900017  74.9840012  63.4109993  44.1230011  70.0879974
  62.7080002  43.7949982  70.6859970  64.1760025  44.2620010  70.7539978
  61.1609993  37.2029991  70.9280014  60.2949982  37.5820007  71.1399994
  60.9169998  36.5680008  70.2559967  49.2439995  27.4759998  61.8149986
  50.1959991  27.3780003  61.7779999  49.1250000  27.9169998  60.9410019
  63.4440002  31.6509991  59.7980003  63.8750000  32.5690002  59.7879982
  64.2580032  31.1499996  60.1209984  66.5350037  31.1079998  55.9309998
  67.2440033  31.5139999  56.4850006  66.8939972  30.4239998  55.4119987
  69.6360016  29.9769993  64.9270020  69.4960022  29.3040009  64.2500000
  68.9789963  29.7360001  65.5930023  62.2859993  45.8139992  58.1090012
  61.7770004  46.6279984  58.2669983  62.7750015  46.0089989  57.3160019
  71.7610016  39.4739990  51.6370010  72.0309982  39.3919983  52.5979996
  70.8209991  39.7779999  51.7529984  58.9090004  40.4189987  62.0670013
  59.1479988  40.2060013  63.0139999  58.6380005  41.3120003  62.1669998
  75.0970001  37.3849983  71.6309967  74.3820038  37.9690018  71.3310013
  74.5410004  36.8089981  72.2450027  66.0029984  31.5849991  64.2630005
  65.4250031  31.9790001  63.5250015  66.6910019  31.2420006  63.6380005
  65.8130035  37.1380005  58.7700005  65.8470001  37.4539986  57.8489990
  65.0220032  37.6250000  59.0960007  55.9809990  44.8769989  68.5139999
  55.2099991  45.0519981  69.1119995  56.3800011  45.7949982  68.5899963
  51.4819984  37.2109985  67.0100021  51.1879997  37.1559982  67.9319992
  51.7210007  36.2099991  66.9219971  49.4760017  37.0900002  85.7220001
  49.6920013  36.1300011  85.6770020  49.7690010  37.3759995  86.5970001
  58.3909988  33.9589996  58.6980019  57.4189987  33.8040009  58.8330002
  58.5519981  33.1850014  58.0820007  63.4749985  46.4410019  73.4919968
  63.9819984  46.0540009  72.7979965  63.3610001  45.7340012  74.1429977
  49.5000000  30.1429996  76.8750000  50.0839996  30.6749992  76.2990036
  50.1100006  29.3570004  76.9550018  55.0130005  47.3680000  72.2399979
  54.2989998  46.8549995  72.6439972  54.5919991  48.1189995  71.8529968
  61.1069984  34.4539986  56.9389992  61.2210007  33.6870003  57.4840012
  61.3580017  34.1570015  56.0519981  65.7910004  40.1360016  61.7200012
  65.5080032  41.0200005  61.4830017  65.0419998  39.8600006  62.2639999
  50.2709999  46.4650002  63.4539986  50.2019997  45.4809990  63.3779984
  50.9469986  46.5400009  64.1809998  72.6940002  43.3219986  64.6890030
  73.5100021  43.4790001  64.1910019  72.1940002  42.8380013  64.0139999
  63.1920013  36.2789993  53.9179993  62.6230011  35.6150017  54.2919998
  63.1389999  36.9930000  54.5909996  50.1329994  55.8019981  68.6780014
  49.6119995  54.9850006  68.8219986  49.5740013  56.3300018  68.1039963
  57.3339996  44.8260002  64.0770035  57.5320015  44.9570007  65.0199966
  56.3510017  45.1279984  64.1269989  43.2680016  28.1410007  71.3320007
  42.4690018  28.0359993  71.8889999  43.5839996  27.2840004  71.1320038
  63.7169991  34.3359985  69.7149963  63.9059982  33.5400009  69.2429962
  64.6439972  34.6450005  69.9459991  57.3300018  54.3089981  62.8040009
  57.8689995  55.0169983  63.3240013  57.8580017  53.5299988  63.0369987
  44.9840012  65.4660034  69.6729965  45.7330017  65.8649979  70.1350021
  45.2700005  64.5230026  69.7409973  34.3409996   9.9919996  15.3629999
  34.0419998   9.1499996  15.8179998  33.7410011   9.9589996  14.6070004
  40.9129982  15.1809998   7.9200001  40.8740005  16.1569996   7.6640000
  40.1080017  15.0880003   8.4610004  47.6599998  60.6850014  70.1119995
  47.8610001  59.7840004  70.4479980  48.2169991  60.6920013  69.2860031
  67.5550003  46.9449997  51.1860008  68.0059967  46.4679985  50.4529991
  68.3470001  46.9109993  51.8079987  71.1090012  59.9609985  60.8069992
  71.0770035  59.7480011  59.8429985  70.1569977  59.7570000  61.0190010
  54.1119995  58.7229996  44.5789986  53.2630005  58.3709984  45.0159988
  53.7809982  59.5649986  44.2169991  51.9070015  56.5400009  58.7150002
  51.5419998  55.6559982  58.6580009  52.2999992  56.6559982  57.8289986
  49.1619987  51.3919983  53.6520004  49.7330017  51.4469986  52.9109993
  49.8320007  51.4970016  54.4179993  53.4959984  11.5489998   5.6570001
  52.8839989  11.1510000   6.4120002  53.0110016  11.1459999   4.9349999
  70.0439987  64.6230011  55.7319984  70.4250031  63.9749985  56.3680000
  70.7850037  64.6439972  55.0419998  76.7509995  43.0439987  59.5730019
  77.3539963  42.9589996  60.3419991  77.4449997  43.0730019  58.8629990
  66.0449982  41.0989990  51.4189987  66.9169998  41.2070007  50.9519997
  65.4720001  41.5289993  50.7589989  56.7579994  48.9420013  57.9799995
  56.5499992  49.8849983  57.9900017  57.3089981  48.8569984  57.2130013
  61.4329987  45.1850014  63.6599998  61.1310005  45.9480019  63.1619987
  62.2649994  44.9780006  63.1370010  74.9400024  56.5149994  55.1860008
  74.4759979  57.2490005  55.6080017  75.7639999  56.9210014  54.9319992
  52.8750000  48.2799988  69.7860031  53.1059990  48.9690018  70.4459991
  53.5419998  48.4930000  69.1060028  69.5930023  50.6419983  68.9229965
  70.2379990  50.6440010  68.1370010  70.2030029  50.3429985  69.6269989
  77.2850037  49.2150002  52.2770004  77.9980011  49.4990005  52.8479996
  76.7089996  48.7400017  52.9500008  54.7290001  55.0690002  62.8610001
  55.6650009  54.7060013  62.9169998  54.9440002  56.0169983  62.6629982
  34.1250000  26.2709999   3.1280000  33.3289986  26.1060009   2.5420001
  34.5699997  26.9470005   2.5550001  77.4079971  57.0229988  62.0639992
  76.9250031  57.7879982  62.4199982  78.1770020  56.9150009  62.6570015
  12.1680002  39.5099983  58.5810013  11.5220003  39.9360008  59.1850014
  12.3330002  40.1699982  57.9300003  65.2450027  67.4229965  61.9339981
  65.3020020  66.4899979  61.6189995  65.5019989  67.2829971  62.9059982
   1.4020000  50.5579987  57.1290016   1.1200000  50.0649986  57.9169998
   2.3510001  50.6399994  57.3279991  41.1570015  18.1159992   7.1079998
  40.6459999  18.8260002   7.5060000  41.6959991  18.6410007   6.4380002
  60.1529999  55.9039993  52.3989983  59.5979996  56.4809990  52.9770012
  59.4700012  55.3489990  52.0250015  64.1289978  47.2029991  46.5190010
  64.8180008  47.8370018  46.8069992  64.2460022  46.5340004  47.2309990
  58.9230003  51.1660004  57.2010002  59.7239990  51.5820007  56.8089981
  58.4010010  51.0219994  56.4029999  51.4620018  51.3540001  69.5640030
  50.7200012  51.5070000  70.0869980  51.1669998  50.7939987  68.8840027
  67.5650024  48.8139992  44.6640015  67.5370026  47.8619995  44.3779984
  66.7760010  49.1839981  44.3170013  54.5550003  26.3250008   6.8579998
  54.0429993  26.8929996   7.5560002  53.7589989  25.9139996   6.4580002
  50.8660011  59.5620003  53.5629997  49.9910011  59.3899994  53.2229996
  51.3839989  59.8889999  52.8120003  57.9799995  61.0159988  44.9109993
  58.3950005  61.2849998  45.7750015  57.1870003  61.5789986  44.9220009
  43.2820015  25.5580006  -1.9590000  44.1629982  25.7390003  -2.3260000
  42.7179985  25.4290009  -2.7620001  52.7029991  64.5189972  65.6460037
  52.4500008  64.9680023  66.4670029  52.7330017  63.5999985  66.0189972
  70.9039993  50.7360001  66.6669998  71.8379974  50.9609985  66.7789993
  70.8710022  50.6119995  65.7030029  56.8460007  61.0159988  57.1380005
  57.6990013  61.1949997  56.8940010  56.8160019  60.1300011  57.4480019
  63.2369995  57.6959991  58.4029999  63.8120003  57.1710014  58.9990005
  62.4230003  57.8310013  58.9480019  54.7690010  44.6759987  58.4119987
  53.9469986  45.2350006  58.4659996  54.4930000  44.0499992  57.7659988
  47.7770004   9.1770000  11.9689999  48.4379997   9.5670004  11.3780003
  47.3479996   9.9510002  12.3059998  77.4280014  44.7700005  56.3040009
  78.3679962  45.0709991  56.3209991  77.5510025  44.0009995  56.9109993
  77.9570007  49.8959999  62.2050018  78.8339996  50.0810013  62.6209984
  78.1900024  50.0470009  61.2760010  63.0950012  43.2239990  67.4670029
  63.2420006  43.5260010  68.4309998  62.4630013  43.8959999  67.1859970
  60.3540001  53.1049995  59.1689987  59.7319984  52.8769989  59.9090004
  60.5089989  54.0600014  59.3969994  46.2080002  26.3799992   1.1330000
  46.7750015  25.7530003   1.6190000  45.6809998  25.6849995   0.6650000
  60.0830002  57.4949989  57.8059998  60.0270004  58.4840012  57.8250008
  60.7760010  57.3899994  57.0699997  53.1349983  22.2010002   0.6870000
  53.1559982  21.2000008   0.6500000  52.8829994  22.3759995  -0.2180000
  58.3610001  46.4389992  57.7809982  59.0019989  46.3779984  58.4920006
  57.7190018  47.0670013  58.1240005  61.3149986  42.5139999  60.0909996
  61.1650009  43.4440002  60.2659988  61.0499992  42.4179993  59.1689987
  62.1629982  52.5390015  61.9350014  61.5690002  52.1920013  62.7019997
  61.7459984  53.4290009  61.8409996  79.5410004  53.0610008  61.3499985
  79.3310013  53.5890007  62.1860008  78.5270004  52.9790001  61.1139984
  61.2309990  61.5159988  64.9509964  61.3569984  60.5760002  64.5889969
  60.2410011  61.5079994  64.9720001  64.0960007  48.2550011  60.2500000
  64.6429977  48.5540009  59.4910011  63.2080002  48.3800011  59.8230019
  62.4319992  61.2809982  59.3829994  62.4760017  61.5999985  58.4399986
  63.4150009  61.2809982  59.5960007   7.6760001  51.6399994  54.5330009
   7.2179999  51.1529999  55.2770004   8.4980001  51.1250000  54.4920006
  60.8380013  48.0169983  55.8940010  61.0620003  47.8479996  54.9620018
  60.0509987  48.5579987  55.7249985  51.0260010  23.4540005  -3.3880000
  50.5509987  24.3439999  -3.4590001  50.7369995  23.1149998  -4.2770000
  67.4029999  54.1010017  62.9220009  67.7160034  53.2820015  63.3650017
  67.7350006  54.7890015  63.4930000  55.5209999  55.5810013  57.1860008
  55.8380013  56.1339989  57.9480019  54.7700005  55.1409988  57.5639992
  66.8820038  42.6590004  64.4860001  66.5299988  42.7229996  65.4150009
  66.2259979  43.1529999  64.0350037  68.3359985  47.9580002  64.3460007
  68.1340027  47.2229996  64.9609985  69.1080017  48.3120003  64.8130035
  62.9379997  49.1230011  73.6360016  63.2849998  48.2159996  73.8160019
  61.9959984  48.8650017  73.4100037  62.1090012  56.8409996  65.3830032
  61.9389992  55.8470001  65.1510010  63.0639992  56.8460007  65.0350037
  70.9430008  48.2169991  64.6510010  71.6490021  48.0139999  65.3580017
  71.4800034  48.2729988  63.8699989  60.0830002  48.6669998  73.8600006
  60.0270004  49.4519997  74.4649963  59.0950012  48.3629990  74.0039978
  67.2300034  52.6220016  56.9650002  66.4970016  52.7480011  56.3040009
  66.7360001  52.1389999  57.6640015  58.6720009  42.2179985  55.2859993
  58.8279991  43.2229996  55.4160004  59.4160004  41.8909988  55.7929993
  60.2080002  65.3649979  53.3269997  60.1940002  64.4530029  53.0279999
  59.9939995  65.3450012  54.2700005  63.8139992  47.7120018  65.5960007
  64.5950012  47.1459999  65.8389969  64.0940018  47.8040009  64.6179962
  69.7919998  50.6969986  61.9360008  70.5699997  50.4780006  62.4589996
  69.4530029  49.8310013  61.7080002  67.8919983  57.2680016  64.5650024
  67.3700027  58.0940018  64.4440002  67.4359970  56.7729988  65.2409973
  64.0210037  68.2320023  59.7680016  64.6549988  67.7850037  60.3740005
  64.2880020  67.8040009  58.9059982  30.4440002  19.1760006  15.1079998
  30.7380009  18.7749996  14.2489996  30.2430000  20.0720005  14.8699999
  66.9069977  59.7280006  58.3629990  67.0790024  60.6090012  58.0079994
  67.6389999  59.2070007  58.0670013  58.6469994  52.1040001  63.9729996
  59.3479996  52.3489990  64.6240005  58.9840012  51.2470016  63.6500015
  50.7089996  57.0989990  73.0749969  49.8089981  57.2299995  72.7630005
  51.1230011  57.9580002  72.7529984  61.9379997  51.0499992  41.1710014
  61.9560013  50.2430000  41.7879982  61.1959991  50.7869987  40.5760002
  44.8510017  52.7719994  59.1710014  44.8209991  53.1769981  60.0390015
  44.6399994  51.8530006  59.3709984  59.7070007  49.7579994  62.7210007
  59.3040009  48.9129982  62.9700012  59.3870010  49.7760010  61.7500000
  72.3270035  62.5009995  60.9949989  71.8079987  61.6139984  61.0349998
  72.9469986  62.4080009  61.7309990  73.0110016  58.4679985  55.9500008
  72.2959976  58.0709991  55.4220009  72.5100021  58.7029991  56.7410011
  49.2579994  20.4930000   1.8559999  49.7599983  20.7730007   1.0940000
  48.4529991  20.1180000   1.4840000  68.7249985  65.4940033  59.9930000
  67.6949997  65.5419998  60.1230011  68.7330017  65.9810028  59.1160011
  60.2229996  54.2309990  67.3249969  60.6180000  54.1889992  66.4219971
  59.3100014  54.4589996  67.0859985  73.0719986  52.8390007  47.5369987
  73.0370026  53.5449982  46.8230019  72.6660004  53.3240013  48.2890015
  68.2720032  51.8199997  60.0180016  68.8109970  51.6520004  60.8289986
  67.7789993  50.9970016  59.9430008  66.8570023  29.3120003  65.8140030
  65.9420013  29.4599991  66.1930008  66.8649979  30.0599995  65.1640015
  58.7719994  73.1760025  52.5400009  57.9650002  72.7320023  52.2260017
  58.3260002  74.0889969  52.6180000  61.4819984  65.9039993  61.0250015
  61.8520012  66.1510010  60.1549988  61.4580002  64.9440002  61.0439987
  49.7560005  65.7330017  62.7159996  50.0890007  66.4940033  63.2929993
  48.9239998  66.1269989  62.4480019  49.9640007  58.4230003  59.4119987
  50.6329994  57.7700005  59.0139999  50.5970001  58.7869987  60.0849991
  67.9120026  56.6409988  61.3899994  67.4619980  55.9659996  60.7999992
  68.8109970  56.1759987  61.4339981  67.8759995  39.1170006  71.7959976
  67.6549988  39.1790009  72.7310028  68.8700027  38.9099998  71.9100037
  40.6940002   5.2100000  17.1079998  41.1510010   4.3480000  17.0930004
  40.0149994   5.1700001  16.4640007  52.9930000  53.5589981  53.1010017
  52.1409988  53.9420013  52.8050003  52.6570015  52.8339996  53.6790009
  55.6529999  37.9389992  65.1460037  56.5880013  37.7200012  65.0920029
  55.6769981  38.5009995  66.0120010  41.2099991   1.9809999  16.6889992
  41.0919991   1.0540000  17.0370007  41.9930000   2.3080001  17.0030003
  62.0559998  50.0670013  52.9819984  61.6370010  49.1440010  53.0349998
  62.6720009  49.8569984  52.2270012  67.4520035  51.5200005  67.5699997
  68.1240005  51.0760002  68.0960007  67.7839966  52.4760017  67.6900024
  61.5019989  51.4329987  55.4930000  61.5330009  51.0629997  54.5629997
  62.0270004  50.6839981  55.9469986  67.1070023  55.6279984  57.7999992
  66.2549973  55.3660011  57.3590012  66.9120026  55.1250000  58.6959991
  61.6949997  56.8300018  55.8800011  62.0139999  56.0779991  56.3919983
  61.8849983  56.5870018  54.9480019  71.3830032  46.6150017  58.2929993
  71.5540009  45.6459999  58.2140007  71.0169983  46.6049995  59.1889992
  66.1259995  46.5419998  59.5820007  65.3059998  46.7190018  60.0960007
  65.9440002  45.6349983  59.3230019  64.6259995  41.5060005  59.1100006
  64.2949982  41.6269989  60.0040016  64.6159973  40.4809990  59.1059990
  63.8720016  38.2459984  69.3140030  63.2690010  39.0040016  69.4660034
  63.4199982  37.5200005  69.7679977  69.1640015  47.8219986  69.0640030
  68.3899994  47.8359985  69.6819992  69.2870026  48.8320007  69.0370026
  58.7159996  68.5000000  64.2600021  58.5719986  68.8610001  63.3909988
  59.6489983  68.1900024  64.1989975  37.7360001  22.0370007   2.8420000
  38.0960007  22.4400005   3.6500001  36.8370018  22.2619991   2.8169999
  61.1609993  46.8650017  50.5110016  61.3660011  47.4010010  49.7159996
  60.7659988  46.1069984  49.9690018  56.2420006  49.0489998  60.9140015
  55.6469994  48.4220009  61.3790016  55.9749985  48.8889999  59.9749985
  46.6710014  22.4720001  -0.0830000  45.9249992  23.1070004  -0.0170000
  46.6609993  22.2800007  -1.0420001  50.9000015  27.9440002   1.4600000
  50.5559998  28.5170002   2.2230000  51.8339996  28.0200005   1.6820000
  47.7430000  46.2700005  66.0979996  47.6949997  45.2999992  65.8690033
  48.5550003  46.4799995  65.5839996  75.1409988  68.6480026  51.9510002
  75.1539993  68.5120010  50.9539986  74.3679962  68.0640030  52.1590004
  53.1040001  67.6449966  51.7379990  53.5830002  67.7570038  50.9370003
  52.3300018  68.2429962  51.5880013  40.4280014  12.7889996   6.5749998
  39.7929993  12.5330000   7.3030000  40.7070007  13.6730003   7.0040002
  55.5849991  55.9449997  67.0589981  55.1459999  56.8199997  67.3280029
  55.0400009  55.3639984  67.5920029  60.2789993  60.2410011  57.9650002
  60.0429993  61.0890007  57.5740013  61.0439987  60.5009995  58.5449982
  56.1150017  60.3619995  60.7890015  56.2330017  61.3450012  60.7439995
  57.0379982  60.1279984  60.9580002  69.6630020  42.7070007  69.5189972
  70.2149963  43.5579987  69.4800034  70.2040024  42.1609993  68.9150009
  60.0760002  44.6320000  60.8629990  59.9580002  45.6090012  60.7610016
  59.2830009  44.3530006  60.2970009  71.4440002  36.0890007  67.7009964
  71.3359985  36.5849991  66.8470001  71.3330002  36.8800011  68.2880020
  66.1259995  54.3880005  52.4140015  65.9929962  54.9720001  53.2140007
  66.4990005  55.0779991  51.7879982  67.2460022  47.6100006  71.2200012
  67.2330017  48.4599991  71.7350006  67.6279984  46.9970016  71.8820038
  70.0439987  41.2540016  60.3610001  69.7350006  42.0929985  59.9939995
  69.2279968  40.6749992  60.2500000  72.3750000  49.6590004  57.5900002
  71.4489975  49.9090004  57.3530006  72.7620010  49.5530014  56.6739998
  43.1489983  31.9020004  -0.7780000  43.5989990  30.9930000  -0.9840000
  42.5040016  31.5240002  -0.1360000  71.0159988  46.5040016  55.1310005
  71.7839966  46.7529984  54.5649986  71.0859985  47.1290016  55.8930016
  73.5059967  49.6930008  55.1450005  72.8430023  49.7820015  54.3880005
  73.9660034  50.5890007  55.0610008  65.5029984  57.4449997  62.2599983
  64.9469986  57.0569992  61.5369987  66.3229980  56.9959984  62.0480003
  53.3289986  72.8570023  36.5880013  53.2910004  72.4250031  35.7029991
  53.4199982  73.8010025  36.2500000  47.5260010  53.7709999  62.6090012
  48.3390007  54.2010002  62.2770004  47.8860016  53.3479996  63.4370003
  74.4219971  43.1040001  57.9840012  74.4039993  42.1090012  57.8889999
  75.2730026  43.3180008  58.3499985  68.1220016  43.4570007  71.9440002
  68.1640015  42.6040001  72.4609985  68.5589981  43.1920013  71.1110001
  72.7870026  45.1069984  49.4879990  72.1520004  44.3209991  49.4490013
  73.2360001  44.8740005  50.3479996  51.0919991  68.1230011  47.9830017
  50.3860016  68.4869995  48.5839996  50.5769997  67.3909988  47.5439987
  59.3580017  47.2620010  60.2879982  59.5050011  48.1520004  59.8989983
  58.4910011  47.3979988  60.7420006  62.3930016  54.1139984  56.2799988
  62.0620003  53.3600006  55.7690010  61.5859985  54.4109993  56.7169991
  54.1829987  48.9900017  65.7799988  54.8909988  49.3479996  65.1770020
  53.5559998  49.7379990  65.6070023  51.0009995  76.8420029  51.1290016
  50.6250000  76.6480026  50.2859993  50.3120003  77.2630005  51.6790009
  67.3980026  59.4790001  51.2610016  68.0650024  59.4160004  50.5589981
  67.1039963  58.5299988  51.2630005  74.6009979  60.9529991  56.3870010
  75.3290024  60.5209999  56.8489990  73.8560028  60.3849983  56.6559982
  67.1809998  49.2330017  60.6370010  67.9639969  48.9290009  61.0919991
  66.9789963  48.4539986  60.0620003  28.0400009  25.7220001   6.2830000
  28.8990002  25.3320007   5.9759998  27.8939991  25.2880001   7.1459999
  75.5869980  55.0320015  61.6209984  76.4240036  55.5670013  61.8089981
  75.1880035  55.0359993  62.5320015  62.1220016  52.2019997  67.9980011
  62.0750008  52.1780014  68.9570007  61.4389992  52.7900009  67.7919998
  73.9680023  44.5029984  60.6759987  74.6230011  44.4980011  61.4580002
  74.6289978  44.5419998  59.9420013   2.0580001  44.8349991  57.8160019
   2.0079999  43.9900017  57.2830009   2.6970000  44.6129990  58.4840012
  63.0589981  53.9080009  53.7130013  63.7589989  53.4109993  53.2190018
  63.4389992  53.9510002  54.5789986  71.5940018  46.4160004  62.3129997
  72.5350037  46.2099991  62.4760017  71.1709976  45.5999985  62.7309990
  50.7330017  44.0569992  66.5479965  51.4510002  44.0449982  67.2750015
  49.9539986  43.8079987  67.0419998  71.1940002  45.9669991  45.4039993
  71.4100037  45.6669998  44.4869995  71.8160019  45.3810005  45.9280014
  67.7910004  54.6790009  47.3610001  68.5569992  54.0279999  47.3689995
  67.2099991  54.1199989  46.7719994  12.0059996  71.1309967  56.9080009
  11.2840004  71.6309967  57.3400002  11.6870003  71.1080017  55.9970016
   3.4749999  54.6440010  58.9129982   2.6710000  54.8180008  59.4280014
   3.2909999  55.0149994  58.0410004  67.9479980  72.1669998  42.1269989
  67.1259995  72.6149979  41.7760010  68.5879974  72.9110031  41.8530006
  44.7859993  14.7270002  15.1359997  43.9589996  15.1190004  15.4569998
  45.2649994  15.4569998  14.6969995   0.7840000  65.2610016  45.2420006
   0.2620000  65.8610001  44.6590004   0.3570000  64.4240036  45.1170006
  74.9300003  70.3209991  44.0429993  75.2979965  70.1419983  44.9819984
  75.1399994  71.2969971  44.0449982  73.2890015  55.6090012  59.0519981
  72.9889984  54.7820015  59.5390015  73.5319977  55.1809998  58.1510010
  56.3400002  65.7630005  57.1300011  56.0340004  64.8420029  57.0340004
  57.0019989  65.6549988  57.8510017  18.4379997   4.7389998  51.1080017
  17.9880009   3.8810000  51.3120003  18.2520008   5.2579999  51.9129982
   2.1520000  55.4029999  56.2779999   1.9940000  54.8829994  55.4819984
   1.2020000  55.6860008  56.5569992  74.3099976  57.5099983  60.4360008
  73.7610016  57.0320015  59.7470016  74.8290024  56.7280006  60.7019997
   0.5250000  63.6290016  56.0239983  -0.2970000  64.1669998  56.0999985
   0.4720000  63.1360016  56.8250008   8.2299995  65.8010025  49.3240013
   7.8379998  66.0630035  50.2229996   7.5460000  65.2760010  48.9599991
  48.5670013  31.0060005  -5.2360001  48.8009987  30.5769997  -6.1020002
  49.4809990  31.2180004  -4.9289999  76.4469986  58.7459984  57.2570000
  77.0000000  58.1329994  57.8170013  77.0780029  58.9840012  56.5750008
  72.5240021  59.9239998  46.1990013  73.2620010  59.4760017  45.7010002
  72.0800018  60.3479996  45.4199982  60.9959984  52.7999992  49.5489998
  61.6969986  53.1749992  50.0779991  61.4350014  52.3870010  48.7840004
  73.7369995  50.1300011  46.7089996  73.6360016  50.9189987  47.3139992
  73.0920029  49.5050011  47.0270004  12.3879995  70.5830002  30.8199997
  12.8369999  71.3880005  30.4069996  12.8439999  70.6419983  31.7070007
  75.9729996  60.7459984  48.5449982  76.3130035  61.5979996  48.3129997
  76.5650024  60.4280014  49.2639999  77.8580017  68.1989975  52.4650002
  76.9479980  68.1760025  52.0699997  78.0019989  67.2720032  52.7169991
   6.3620000  61.3510017  49.3849983   6.5819998  62.2550011  49.0029984
   7.2639999  60.9280014  49.3260002  27.3059998  -2.6919999  52.5909996
  27.1410007  -2.8810000  51.6189995  27.1690006  -1.7190000  52.5649986
  30.4139996   2.2609999  40.2270012  30.0650005   2.1389999  41.1139984
  31.3199997   1.9000000  40.3730011  33.9379997  -4.0310001  50.5190010
  34.6910019  -4.3420000  49.9770012  33.4379997  -3.6410000  49.6959991
   4.4429998  64.9860001  51.7299995   4.4480000  65.1620026  50.7719994
   5.3880000  64.9919968  51.9239998  36.6529999  11.6750002  55.7369995
  36.2239990  11.7259998  56.6040001  36.1879997  10.9110003  55.3769989
   9.2580004  66.3909988  58.3950005   9.2349997  65.6090012  57.8820000
   8.6199999  66.1679993  59.1409988  36.6020012  -2.1480000  57.6949997
  36.4469986  -1.9320000  56.7360001  35.7540016  -2.5530000  57.8880005
  72.7610016  60.5279999  41.2389984  73.0749969  60.2420006  40.4059982
  72.7839966  61.4809990  41.1720009  24.9549999  -0.5680000  50.8240013
  25.5669994  -0.1930000  51.5439987  24.3250008  -1.0340000  51.4049988
  38.3769989   3.4870000  60.0279999  38.7820015   4.1300001  59.3590012
  37.4729996   3.5560000  59.6329994  43.5649986   9.9139996  61.0600014
  43.1839981   9.4740000  60.2649994  42.9700012   9.6680002  61.7120018
  28.3589993  -0.7030000  35.6940002  28.4689999  -0.4630000  36.6450005
  27.4759998  -0.4120000  35.5789986   1.7440000  54.9080009  53.2169991
   2.4840000  55.5499992  53.0769997   1.0470001  55.3190002  52.6370010
  67.7860031  64.7610016  46.3559990  66.8430023  65.0339966  46.5219994
  68.2509995  65.5309982  46.8089981  20.9769993   3.4260001  49.0089989
  20.8139992   3.0890000  49.9059982  21.7210007   4.0180001  49.1430016
  29.9230003  12.3520002  53.5330009  28.9920006  12.3310003  53.8730011
  30.0709991  11.3970003  53.4580002  26.7040005  -0.0790000  52.7789993
  26.4249992  -0.0570000  53.6930008  27.5270004   0.4840000  52.8339996
  23.9279995  67.9209976  56.9949989  24.8969994  67.9869995  56.7029991
  24.1320000  67.1679993  57.6399994  34.6040001   1.9600000  34.6650009
  34.1520004   1.6750000  33.8779984  34.2770004   2.9080000  34.6739998
  37.3470001  13.8999996  44.6899986  38.2089996  13.9359999  44.2070007
  36.9659996  14.7720003  44.5070000  44.9679985   2.1530001  48.7649994
  44.2999992   1.9820000  49.3969994  45.3050003   3.0350001  49.0789986
  21.7380009  18.0270004  49.5820007  21.8789997  17.4740009  48.8170013
  21.0869999  18.6889992  49.1370010  55.3919983  13.4919996  46.8829994
  56.0699997  14.1770000  47.0200005  55.8930016  12.6829996  46.7420006
  40.2210007   8.3380003  43.5740013  39.9039993   7.4150000  43.6409988
  39.3330002   8.8339996  43.6399994  39.0890007  12.8339996  56.0519981
  39.5139999  12.0159998  55.7019997  38.1500015  12.4890003  55.9869995
  44.9990005  14.6789999  58.5449982  44.8530006  14.3950005  57.6129990
  45.1549988  13.7639999  58.9570007  39.8639984   5.6560001  50.1619987
  39.9490013   5.7979999  51.1380005  40.8380013   5.5320001  49.9930000
  46.9259987   9.9230003  49.8800011  46.6710014  10.5939999  49.1870003
  47.0769997   9.1630001  49.2509995  34.7200012  10.4209995  49.8380013
  35.6119995  10.2889996  49.4249992  35.0629997  10.9429998  50.6010017
  42.1080017   1.5560000  39.4589996  42.2789993   0.5500000  39.4570007
  41.8670006   1.6770000  38.5330009  51.8320007   5.3639998  38.5740013
  52.3030014   5.0999999  39.3930016  51.2589989   4.5890002  38.4650002
  47.1510010   9.7959995  52.5530014  48.0569992   9.4820004  52.5859985
  47.0950012   9.9130001  51.5400009  33.3170013  -0.5030000  57.1780014
  32.9059982  -0.8540000  56.3969994  34.0419998   0.0300000  56.8569984
  27.1849995  75.3629990  49.1059990  27.4440002  75.8440018  49.9480019
  28.0750008  75.0670013  48.7960014  45.2099991   5.0390000  53.6409988
  45.5600014   4.2040000  53.9669991  45.9129982   5.5970001  53.8810005
  23.9459991  69.0960007  54.2739983  23.2010002  68.7139969  53.7750015
  23.8770008  68.5699997  55.0940018  53.1389999  10.6169996  39.9259987
  53.7369995  10.0129995  40.5079994  53.9000015  11.2329998  39.7109985
  30.2989998   7.7420001  60.5449982  30.7250004   7.9480000  59.7529984
  29.3740005   7.5739999  60.2879982  42.2200012   1.8090000  54.5859985
  41.3670006   2.1810000  54.9980011  42.6279984   1.4290000  55.3740005
  47.6940002   6.0070000  45.6230011  46.7379990   6.1160002  45.4370003
  47.6520004   5.6259999  46.5299988  19.3150005  74.0110016  58.1870003
  19.3279991  74.8759995  57.7070007  20.2940006  73.8539963  58.3040009
  60.0089989   8.8940001  38.5859985  59.8050003   9.0830002  37.6609993
  60.5200005   9.7209997  38.7949982  51.3069992   7.8030000  58.4210014
  50.6069984   8.1129999  57.7649994  51.4930000   6.9359999  58.0089989
  42.0509987  11.4460001  53.2859993  41.4039993  11.0209999  53.8390007
  41.4599991  12.1650000  52.9010010  33.8969994   1.4000000  48.3530006
  33.8709984   2.0439999  47.6230011  32.8590012   1.4910001  48.5209999
  61.4860001  11.0240002  46.0200005  60.8549995  10.9729996  46.7089996
  61.4970016  10.0920000  45.6990013  14.5559998  72.7829971  53.1380005
  14.5629997  73.2649994  53.9749985  13.7019997  72.9789963  52.7659988
   6.2110000  69.9260025  52.6809998   7.0890002  70.0530014  53.1549988
   6.5510001  70.1640015  51.7669983  46.9760017   7.0419998  54.3260002
  47.1699982   7.7040000  55.0340004  47.7980003   6.5520000  54.2799988
  40.1399994  13.2950001  52.2789993  39.9910011  14.0400000  51.6380005
  39.9230003  12.5310001  51.7680016  44.8849983   8.7180004  53.4920006
  45.6520004   9.1719999  52.9690018  45.4280014   8.0660000  53.9640007
  40.4760017  14.0959997  63.3870010  41.1769981  13.8579998  64.0260010
  40.0159988  13.2919998  63.2729988  41.8429985  11.9130001  57.8680000
  41.8699989  12.3809996  58.7649994  41.2410011  11.1580000  58.1049995
  30.4979992  14.6899996  41.3740005  30.8180008  15.5939999  41.3769989
  30.1399994  14.7290001  40.4239998  36.2439995  11.8210001  51.6720009
  37.0419998  11.9139996  51.1969986  36.3129997  12.5039997  52.3709984
  31.1900005  -0.9650000  60.5079994  31.5000000  -0.3670000  59.8250008
  31.8379993  -1.6350000  60.5999985  44.3540001  11.1379995  54.5730019
  43.5439987  11.3710003  54.0709991  44.5610008  10.2580004  54.1899986
  31.6310005  16.5919991  45.7610016  32.4070015  16.2029991  45.2360001
  32.0870018  17.4570007  45.9889984  54.6090012  12.9689999  64.7330017
  54.9169998  12.9440002  63.8050003  55.4609985  13.0229998  65.2170029
  44.4910011   9.4010000  56.7770004  44.1669998   9.6920004  55.8759995
  45.1629982  10.0979996  56.8769989  45.0439987  12.3179998  51.0530014
  45.5359993  11.5220003  51.1539993  45.0460014  12.6650000  51.9939995
  53.2840004   8.2629995  43.4860001  52.3199997   8.4530001  43.3610001
  53.3590012   8.0030003  44.4309998  31.3729992  72.1620026  43.4399986
  31.2840004  71.3820038  44.0000000  31.1879997  71.8470001  42.5439987
  50.9910011  12.7340002  46.1590004  50.3839989  11.9899998  46.1419983
  50.6110001  13.2910004  45.4360008  28.6630001  72.9120026  60.0499992
  29.2450008  73.2679977  60.7529984  29.3360004  72.5220032  59.4529991
  19.2889996  74.1080017  50.9379997  19.6949997  73.7979965  51.7840004
  18.5489998  74.6579971  51.3120003  36.4080009   5.8039999  47.2270012
  36.2369995   5.0599999  46.7299995  36.8520012   5.5289998  48.0690002
  53.0279999  10.8959999  46.9920006  53.0070000  10.9949999  47.9790001
  52.3170013  11.5740004  46.7929993  31.6380005  -5.0089998  56.8810005
  31.3840008  -5.6230001  57.5709991  31.6849995  -5.5700002  56.1129990
  50.1409988   3.6280000  56.3860016  50.3230019   2.6940000  56.3820000
  49.1430016   3.6140001  56.4249992  37.5349998  11.2589998  38.4309998
  37.6910019  11.2889996  37.4179993  36.5509987  11.2200003  38.3860016
  25.5079994  75.5569992  34.3619995  25.7339993  74.9110031  33.6920013
  26.4069996  75.9660034  34.4910011  49.3800011  17.9069996  47.0159988
  48.8969994  17.2189999  46.5219994  49.5419998  18.5070000  46.2859993
  33.9020004  -3.9460001  45.8019981  34.5289993  -3.2639999  45.4879990
  33.1809998  -3.9600000  45.1559982  45.4080009   2.4349999  54.8199997
  44.9070015   1.7150000  55.2540016  46.2659988   2.3520000  55.2200012
  22.0240002  74.1809998  53.8160019  22.6900005  73.4509964  53.8889999
  21.2229996  73.6169968  53.7779999  78.1900024  58.0110016  45.9410019
  77.2529984  58.1689987  46.0769997  78.5449982  58.9070015  46.1959991
  49.2669983  10.3929996  46.7159996  49.2570000   9.4849997  46.3699989
  48.3460007  10.6700001  46.4269981  47.2700005   7.5489998  57.7190018
  46.8629990   7.9679999  58.5130005  47.7610016   8.3290005  57.3510017
  52.9570007   4.0159998  54.2560005  52.6459999   4.1380000  53.3050003
  52.0890007   3.9110000  54.6790009  48.6949997  11.3629999  59.5130005
  48.1930008  12.1169996  59.8390007  49.5940018  11.7840004  59.5330009
  37.4290009  10.3420000  49.0740013  37.9360008   9.6910000  49.6259995
  38.1910019  10.9680004  48.8619995  48.7120018  26.5119991  57.3160019
  48.0779991  26.8239994  57.9799995  48.1230011  25.9969997  56.7430000
  38.9809990   3.8650000  38.6920013  38.3839989   3.4849999  39.3320007
  39.1360016   3.2340000  38.0169983  25.5000000  75.4700012  46.8139992
  24.7040005  75.0739975  47.0610008  26.0909996  75.2149963  47.5760002
   7.7880001  68.8840027  61.3670006   7.4650002  69.5510025  61.9729996
   7.9619999  68.1790009  61.9959984  27.0429993  69.5609970  49.5410004
  27.8859997  69.9359970  49.9290009  27.0039997  70.0319977  48.6839981
  25.4680004  75.3470001  62.4230003  24.7089996  75.5210037  63.0439987
  25.9680004  74.6620026  62.9210014  46.6800003   4.2989998  50.4990005
  46.1879997   5.0390000  50.8460007  47.3209991   4.1399999  51.2630005
  50.0239983  12.3590002  55.1300011  50.1669998  11.9259996  54.2519989
  50.6619987  11.8120003  55.6370010  43.5970001   6.1250000  47.6730003
  42.8810005   6.6780000  47.2360001  44.3100014   6.8070002  47.5400009
  43.3720016   6.2470002  41.3370018  42.9599991   5.3350000  41.3460007
  43.3219986   6.3559999  40.3470001  37.6850014  -0.2380000  28.9930000
  36.7620010  -0.0810000  29.3220005  38.0550003  -0.7050000  29.7749996
  17.2280006  72.9420013  45.5219994  17.2619991  72.5800018  44.6170006
  16.3530006  73.4609985  45.4739990  60.5989990   7.1849999  61.7729988
  59.9860001   6.5479999  61.3359985  61.4609985   6.7969999  61.3919983
  31.3579998   8.9569998  46.0439987  31.7150002   9.1020002  46.9339981
  31.8969994   9.5710001  45.5130005  31.3969994  17.4029999  41.2319984
  31.7210007  17.5599995  40.3069992  32.2120018  17.6450005  41.7649994
  38.6580009  -0.3580000  46.9119987  38.4480019  -1.1830000  47.4039993
  37.7519989  -0.0690000  46.6329994  62.1959991   7.2919998  40.9519997
  61.9189987   6.3449998  41.0950012  62.2389984   7.2420001  39.9529991
  33.1609993   1.6010000  40.2830009  34.0130005   1.4680001  39.6899986
  33.6220016   2.1300001  40.9879990  16.2539997  66.1529999  51.9739990
  15.7950001  66.9260025  52.3909988  16.9069996  65.9649963  52.7169991
  40.1059990  16.3570004  47.6969986  40.8209991  16.6019993  48.3219986
  40.6949997  16.2000008  46.9440002  42.2369995   8.4130001  52.7039986
  42.1640015   9.3680000  52.4860001  43.0589981   8.4370003  53.2500000
  75.4049988  39.6949997   5.8699999  74.8440018  39.6899986   6.7040000
  75.9729996  40.4550018   6.0730000  13.6770000  69.3209991  34.9379997
  13.0579996  68.6090012  34.6710014  13.5000000  69.3560028  35.8849983
  39.2369995   7.6100001  60.1879997  38.4430008   7.2919998  60.6380005
  39.4729996   6.7550001  59.6910019  54.5639992   4.5019999  46.7379990
  54.5639992   3.5409999  46.8489990  55.5250015   4.7010002  46.5419998
  27.9349995  72.2429962  51.8380013  28.8139992  72.7239990  51.8320007
  28.1119995  71.5670013  52.4889984  53.1980019  14.5679998  45.9329987
  54.0989990  14.2119999  46.2420006  52.7519989  13.7410002  45.8740005
  51.0989990  16.4379997  44.8380013  50.3230019  15.8820000  45.1679993
  51.7470016  16.0410004  45.4519997  41.3600006  -0.2630000  51.2120018
  41.9269981  -0.9470000  51.5419998  40.4770012  -0.7350000  51.1710014
  37.1629982   9.2489996  46.6040001  37.2089996   9.4440002  47.5789986
  36.2610016   9.5150003  46.4099998  37.4129982  17.1849995  59.4809990
  37.3720016  17.2320004  58.4539986  36.8989983  17.9939995  59.5999985
  32.4239998   1.3010000  59.0999985  32.3460007   0.7390000  58.2809982
  32.9010010   2.0929999  58.7350006  39.1119995  14.7299995  49.9259987
  39.2299995  15.5559998  50.5130005  39.4449997  15.0979996  49.0880013
  19.0730000  65.8730011  57.7900009  19.8490009  66.2850037  57.3590012
  19.4379997  65.9720001  58.7330017  42.3040009  -1.2970001  56.6850014
  42.3689995  -2.0239999  57.3160019  41.3149986  -1.3570000  56.4230003
  18.9500008  70.7890015  50.4230003  18.3869991  71.5319977  50.2190018
  18.4820004  70.0530014  49.9640007  41.7430000  10.6120005  49.0820007
  42.0579987  10.3970003  48.1889992  42.4129982  11.3549995  49.2529984
  49.7690010   1.3180000  52.7939987  49.4640007   0.6070000  53.4099998
  50.7280006   1.0360000  52.6650009  41.7550011  15.9449997  56.9410019
  41.5839996  15.3319998  56.1889992  41.1389999  15.5869999  57.5690002
   8.3640003  65.3929977  40.1759987   7.9559999  64.5920029  40.5859985
   7.8800001  66.0770035  40.6870003  46.7130013  16.0209999  51.7299995
  46.2060013  15.3699999  52.2610016  47.6259995  15.5730000  51.8289986
  38.0690002  -0.6290000  38.2649994  38.4640007  -0.5310000  39.1489983
  38.2610016   0.2350000  37.8590012  65.7190018  17.3390007  39.7830009
  65.1439972  18.1389999  39.7000008  66.1589966  17.3820000  38.9010010
  50.2019997   3.1780000  46.2910004  50.9599991   2.7620001  45.8950005
  50.5130005   3.4030001  47.1699982  48.0200005   7.6919999  38.6860008
  47.4210014   7.8239999  39.4609985  48.9160004   7.7399998  39.1090012
  32.2410011  11.2019997  44.2989998  32.5279999  11.1590004  43.3810005
  31.4610004  11.7860003  44.3470001  31.5559998  69.1190033  54.4879990
  31.1730003  68.2450027  54.0960007  31.4470005  68.8990021  55.4420013
  57.3779984  12.4090004  36.6479988  57.8839989  13.2159996  36.8919983
  56.4889984  12.7100000  36.8059998  37.0190010  -0.4630000  55.6170006
  37.6839981   0.2330000  55.3889999  36.1930008   0.1000000  55.5690002
  58.2939987  11.9829998  44.6069984  58.9379997  11.8529997  43.8979988
  57.6100006  11.3809996  44.3089981  56.5979996  35.4690018  -0.2710000
  56.9179993  36.4189987  -0.2210000  57.2809982  35.1180000   0.2830000
  39.1409988   3.2890000  52.4049988  39.0349998   3.0569999  51.4819984
  39.9220009   3.8390000  52.4199982  37.7560005   9.2580004  43.9720001
  37.3510017  10.0439997  43.5999985  37.4329987   9.2720003  44.8909988
  39.0639992   1.6820000  49.2350006  39.1769981   1.2359999  48.3899994
  39.9790001   1.9760000  49.3979988   7.2210002  36.1790009  11.7189999
   7.8639998  35.5629997  12.1140003   6.3730001  35.6580009  11.9799995
  42.1119995   7.7610002  45.9410019  42.4910011   7.0920000  45.3440018
  41.4010010   8.1180000  45.2970009  39.0029984   8.3420000  50.3419991
  39.5250015   7.7270002  49.8149986  38.2509995   7.6520000  50.5730019
  17.5249996  69.6650009  53.6409988  17.4780006  70.6019974  53.9239998
  18.3139992  69.3679962  54.1189995  56.7970009   4.2900000  43.3880005
  56.1119995   4.9940000  43.2220001  56.1430016   3.5070000  43.2309990
  27.0510006  76.7340012  60.4830017  27.4729996  75.9629974  60.1010017
  26.3449993  76.3140030  61.0089989  31.9570007  -0.4580000  41.4900017
  32.5600014   0.0750000  40.9179993  31.1669998  -0.4960000  40.9449997
  45.2050018   1.1750000  46.0550003  45.9659996   1.8080000  46.0880013
  44.6969986   1.5640000  46.8639984  39.9430008   4.4530001  41.8219986
  40.1930008   4.9499998  42.6069984  40.7750015   4.5469999  41.2470016
  56.9770012   7.7900000  36.4199982  56.6119995   8.3760004  35.7159996
  57.8740005   8.1840000  36.4580002  51.5699997  10.7360001  56.4160004
  52.4840012  10.9090004  56.1150017  51.7210007  10.6770000  57.3950005
  57.7089996  17.7880001  48.4529991  57.9729996  17.2010002  47.7140007
  58.2369995  18.6180000  48.2299995  21.7259998  69.9309998  45.7529984
  20.8740005  70.3580017  45.7260017  22.3199997  70.6110001  45.3050003
  38.5810013  12.3409996  59.5499992  39.1739998  11.5389996  59.3470001
  38.4700012  12.0489998  60.5110016  45.8709984  10.9069996  47.5079994
  45.1069984  11.3330002  47.9609985  45.8950005  11.4510002  46.7190018
  78.1480026  65.2269974  52.0180016  78.0319977  65.5350037  51.0680008
  79.0989990  64.9739990  51.9129982  49.0699997  17.1079998  57.0169983
  49.4160004  16.2679996  57.4179993  48.4679985  16.7019997  56.3009987
  30.8869991  69.2480011  67.2099991  31.8150005  69.0530014  67.5429993
  30.8290005  70.1979980  67.5800018  25.9780006  22.0709991  68.2649994
  26.8040009  22.6049995  68.1039963  25.8330002  21.6480007  67.4049988
  48.2430000  15.6490002  64.1159973  47.2729988  15.6090002  64.2310028
  48.4249992  14.7460003  63.7869987  44.4879990  15.7180004  55.6090012
  44.1710014  14.8660002  55.9850006  44.5629997  16.2689991  56.3740005
  37.7140007   4.6929998  49.1910019  38.4959984   5.1120000  49.6430016
  38.0239983   3.8150001  49.0320015  39.4220009  10.2980003  70.7450027
  39.1959991   9.9700003  71.6080017  38.5660019  10.5990000  70.4240036
  36.6360016   9.6850004  40.9440002  37.2379990   8.8959999  40.8019981
  35.8680000   9.4029999  40.3689995  49.7080002   6.0479999  48.8919983
  50.6570015   5.7550001  48.6629982  49.8959999   6.3249998  49.7879982
  54.0470009  15.9219999  48.0830002  53.2610016  15.5380001  47.5629997
  54.3600006  16.4829998  47.2890015  41.2280006  14.1239996  54.9099998
  40.6160011  13.6300001  55.4669991  40.9430008  13.8710003  54.0130005
  50.2830009   3.8169999  42.4410019  49.7779999   4.2240000  41.7010002
  51.1640015   3.7019999  42.0130005  54.8730011   6.2960000  42.7980003
  54.2080002   6.9899998  42.9420013  54.2470016   5.6300001  42.4000015
  58.0130005  40.4449997  -1.0810000  58.8540001  40.8800011  -0.8220000
  58.3489990  39.9550018  -1.8950000  45.4869995   9.2609997  63.3759995
  45.0040016   9.3160000  62.5610008  46.4059982   9.1429996  63.0719986
  46.6529999  18.0170002  49.6660004  46.3110008  17.6940002  48.7709999
  46.3530006  17.3080006  50.2340012  37.4099998  14.9740000  41.6370010
  38.0530014  14.5430002  42.2389984  36.8979988  14.1890001  41.3409996
  55.7280006  22.3320007  57.5260010  55.5470009  22.8050003  56.7029991
  54.9860001  21.9890003  57.9150009  56.5800018  25.5750008  47.6910019
  56.4109993  25.1529999  46.8190002  57.4990005  25.8600006  47.5209999
  54.6090012  22.3530006  52.2789993  54.2309990  21.5170002  52.6590004
  54.6469994  22.0559998  51.3209991  59.2299995  19.8880005  47.4459991
  59.8549995  19.3649998  46.8959999  59.8030014  20.5919991  47.7820015
  56.1110001  21.8379993  47.2449989  56.4780006  21.1250000  46.6590004
  56.8289986  22.5160007  47.2060013  49.0169983  14.9069996  51.9659996
  49.1349983  13.9670000  51.9070015  49.9220009  15.2100000  51.7669983
  57.5649986  16.6049995  37.0820007  58.2690010  16.4699993  37.7739983
  56.7999992  16.3090000  37.6440010  44.1360016  80.3889999  41.2229996
  44.7869987  80.9560013  40.7900009  44.5060005  80.2939987  42.1430016
  54.4589996   9.9429998  55.7109985  54.1459999   9.0500002  55.5359993
  54.9239998  10.0880003  54.8650017  48.4259987  15.7290001  45.5079994
  48.7330017  14.9259996  45.0250015  47.8470001  16.0890007  44.7980003
  59.9510002   9.5520000  55.8260002  60.7750015   9.2620001  55.3839989
  59.5460014   8.6580000  55.9930000  61.3610001  14.6840000  44.4329987
  60.4300003  14.9130001  44.2869987  61.3989983  13.7880001  44.0600014
  56.9189987  19.7339993  45.8860016  57.3289986  19.2800007  45.1020012
  57.7929993  19.7870007  46.4169998  50.8810005  18.6189995  55.6240005
  49.9700012  18.8419991  55.2340012  50.6119995  17.9990005  56.3549995
  69.3970032   8.8459997  54.6969986  69.6490021   7.8660002  54.8250008
  68.5410004   8.8079996  55.1870003  57.5740013  22.1240005  59.4199982
  57.1059990  21.3670006  59.9410019  57.1399994  22.1189995  58.6059990
  55.5929985  16.3010006  62.9760017  56.1040001  15.4329996  62.9150009
  55.7989998  16.7180004  62.1529999  66.9369965  19.3560009  62.8740005
  67.4789963  19.6340008  63.6679993  66.5970001  20.2029991  62.5670013
  48.5690002  16.9489994  61.3219986  48.5979996  16.3020000  60.5999985
  48.6279984  16.3869991  62.0810013  60.7770004  13.2250004  52.2220001
  61.6110001  12.9540005  51.7849998  60.3190002  13.6580000  51.4720001
  49.7680016   8.9049997  52.4379997  50.1510010   8.5190001  51.6110001
  50.5079994   8.6789999  53.0649986  52.4090004  15.5019999  42.6619987
  52.0070000  15.8230000  43.4900017  53.1759987  14.9569998  43.0359993
  46.2529984  18.3990002  65.2119980  45.3680000  18.7970009  65.1979980
  46.3899994  18.1639996  64.2529984  48.5070000  19.7679996  49.2029991
  47.8680000  19.0540009  49.4220009  48.9539986  19.3439999  48.4339981
  53.6440010  13.7430000  55.3880005  54.0470009  13.4219999  54.5600014
  52.8619995  14.2290001  55.0750008  22.6919994  48.4710007  -5.7249999
  22.3290005  47.6349983  -5.4200001  23.1009998  48.8610001  -4.9210000
  49.2389984  18.4920006  53.1409988  50.0079994  17.9640007  52.9879990
  48.5559998  17.8540001  52.8129997  33.6539993  78.4720001  60.1710014
  33.3260002  78.0439987  60.9830017  33.4379997  79.4229965  60.3750000
  44.0589981  13.0690002  56.4879990  44.0180016  12.4519997  55.7169991
  43.1399994  12.9280005  56.8260002  31.2029991  79.0370026  58.0200005
  31.8929996  78.7450027  57.4129982  31.6840000  79.0640030  58.8520012
  62.6269989  15.4969997  55.4449997  62.5250015  15.3249998  54.5029984
  63.5890007  15.2349997  55.5830002  64.1399994  15.1890001  40.8149986
  64.7610016  15.9729996  40.6959991  64.5339966  14.8380003  41.6529999
  47.3820000  10.7950001  44.8590012  48.1809998  11.2159996  44.4790001
  47.2290001  10.1140003  44.1980019  57.7210007  16.7490005  41.0349998
  58.4760017  16.9379997  40.4290009  57.2869987  16.0450001  40.5449982
  53.5970001  17.2000008  50.4269981  53.8160019  16.5450001  49.7809982
  54.4220009  17.7719994  50.3540001  59.4599991   7.0190001  42.9819984
  58.5810013   6.7900000  43.3409996  59.1720009   7.0479999  41.9949989
  59.3120003  14.7709999  54.1189995  58.5089989  14.3680000  54.4259987
  59.6580009  14.1379995  53.5180016  59.3759995  13.0000000  48.2379990
  60.3129997  12.7600002  48.3759995  59.3110008  13.7180004  48.8800011
  51.3520012  13.9270000  48.7010002  50.4440002  13.8699999  48.8530006
  51.4570007  13.5850000  47.7799988  64.4169998  17.1070004  46.6790009
  63.8190002  17.6019993  47.2989998  64.0859985  16.2269993  46.8419991
  57.8160019  22.8269997  49.4790001  57.4329987  23.6830006  49.2669983
  58.3870010  22.7119999  48.7369995  38.0970001  77.2040024  54.4539986
  37.5629997  77.4899979  53.6769981  38.0499992  76.2419968  54.4239998
  60.2260017  19.8090000  51.1990013  60.1419983  20.6070004  50.6889992
  59.9700012  20.2329998  52.1389999  51.3429985  14.9940004  68.2399979
  51.9459991  15.8100004  68.3980026  50.8680000  15.1110001  69.1210022
  62.9179993  19.7549992  50.6710014  62.0029984  19.7970009  50.8629990
  63.0130005  18.7940006  50.5900002  56.9080009  15.4779997  49.2949982
  57.1380005  16.3740005  48.9440002  55.9990005  15.4270000  48.9669991
  75.7639999  16.7679996  44.7190018  76.4909973  16.5939999  44.0760002
  76.0599976  16.2019997  45.4729996  55.5750008  15.7279997  44.7890015
  55.4280014  14.7950001  44.6640015  56.3089981  15.9020004  44.1819992
  47.2680016  12.9750004  55.2799988  48.1629982  13.0620003  55.0349998
  47.2519989  12.3360004  55.9749985  69.1480026  18.0919991  54.2299995
  68.7870026  17.6739998  53.4319992  69.2829971  19.0000000  53.8569984
  53.5159988   3.3399999  67.5599976  53.0379982   2.8910000  66.7519989
  53.3300018   2.5420001  68.1409988  55.5989990  21.2770004  49.8919983
  56.4500008  21.7409992  50.0859985  55.5470009  21.3139992  48.9510002
  57.6129990  20.3390007  55.4249992  57.3149986  19.7140007  54.7480011
  57.0999985  19.9260006  56.1769981  49.8860016  16.6879997  49.5209999
  49.0320015  16.3040009  49.5610008  49.9020004  17.0610008  48.6059990
  47.2270012   9.5260000  55.3450012  46.9990005  10.0640001  54.5489998
  47.1020012  10.1759996  56.0260010  51.0209999   4.8540001  62.1759987
  50.3079987   4.2329998  61.8320007  50.6940002   5.6589999  61.7529984
  59.3069992  14.5780001  50.4329987  59.7270012  15.4099998  50.0379982
  58.4059982  14.7489996  50.1940002  69.1859970  11.9180002  57.0400009
  68.4160004  12.0640001  57.6430016  69.3089981  12.8579998  56.6910019
  47.2159996  19.6539993  57.2270012  46.5379982  19.3400002  57.8089981
  47.9029999  19.0079994  57.2000008  70.7549973  15.6219997  54.1839981
  69.7949982  15.6370001  53.9080009  71.0839996  16.0790005  53.3460007
  52.3199997   2.6420000  48.5950012  51.6980019   1.8470000  48.4259987
  53.1739998   2.0840001  48.5309982  59.9000015  20.7220001  53.7299995
  59.9459991  21.7150002  53.8559990  59.0289993  20.5289993  54.1339989
  58.1010017  18.7959995  58.5950012  57.1679993  18.9300003  58.4049988
  58.3470001  18.0219994  58.0460014  34.8650017  15.9659996  48.3639984
  35.6370010  15.9139996  47.7879982  34.3199997  16.6289997  47.8590012
  54.1609993  17.4360008  53.0260010  53.6339989  17.3400002  52.2210007
  54.8009987  16.7280006  52.8190002  49.5849991   6.2059999  54.4609985
  50.2879982   6.8559999  54.1839981  49.9189987   5.8790002  55.2799988
  61.6949997  16.2919998  41.3040009  62.1469994  16.6509991  42.0800018
  62.3479996  15.6990004  40.9129982  53.8510017   7.4020000  56.3720016
  53.2410011   7.0730000  57.0410004  54.4049988   6.6190000  56.2459984
  56.7280006   8.9610004  53.6220016  57.3540001   8.5620003  53.0079994
  55.9560013   8.3800001  53.4490013  23.3169994  62.3400002  48.9150009
  22.6529999  63.0740013  49.1189995  24.0930004  62.8009987  49.1790009
  56.9679985  12.8330002  51.1259995  56.9420013  13.1049995  50.1980019
  57.7820015  12.2919998  51.1920013  52.0909996  15.6309996  54.0839996
  51.8909988  16.2320004  53.3050003  52.9480019  16.0090008  54.3549995
  62.7420006  12.7849998  39.7560005  63.5760002  12.2919998  39.9809990
  63.1180000  13.6789999  39.5519981  49.5419998  12.1910000  51.7690010
  50.0530014  11.7670002  51.1100006  49.1389999  11.4630003  52.2540016
  53.4949989  20.1180000  53.4300003  53.3279991  20.0809994  54.3460007
  54.0180016  19.2889996  53.3190002  55.8390007  18.7259998  50.5559998
  56.6189995  18.4260006  50.0979996  55.6459999  19.5669994  50.1409988
  37.4140015  73.1009979  55.4309998  38.2659988  73.5439987  55.3600006
  37.1030006  73.4850006  56.2779999  74.4889984  16.2299995  53.5960007
  75.0680008  16.9799995  53.5419998  73.6839981  16.5809994  53.0950012
  45.4690018  13.9130001  53.3940010  44.8450012  14.4280005  53.9420013
  45.9710007  13.4209995  54.1119995  56.2659988  15.3149996  52.7639999
  56.0680008  14.4390001  53.0880013  56.8450012  15.1260004  52.0209999
  74.6309967  13.2700005  56.8339996  75.4619980  13.8590002  56.7319984
  73.9759979  13.8970003  56.5190010  54.6769981  16.4689999  56.1910019
  54.2330017  15.5819998  56.2729988  55.5740013  16.2399998  55.7919998
  55.2560005  12.1809998  57.1080017  55.0480003  11.2880001  56.8120003
  54.7330017  12.7580004  56.5460014  67.5510025  26.0240002  56.8199997
  68.3539963  25.8509998  57.2770004  67.3529968  25.2070007  56.3409996
  65.3570023  21.3929996  49.5709991  65.1399994  20.8740005  48.7120018
  64.7350006  20.8740005  50.1279984  28.6329994  77.6279984  57.0839996
  29.5149994  77.9339981  57.2789993  28.0599995  77.9449997  57.7360001
  47.5139999  16.0799999  54.9739990  46.6010017  15.8669996  55.0960007
  47.8279991  15.1459999  54.6329994  29.9139996  78.0889969  67.4649963
  29.6790009  77.1090012  67.6610031  29.0459995  78.4319992  67.3089981
  53.9949989  22.8209991  55.4560013  53.5550003  22.3059998  56.1209984
  53.5530014  22.5919991  54.6209984  55.4449997   5.2049999  54.5639992
  55.2369995   5.9190001  53.8870010  54.5610008   4.8270001  54.6139984
  59.3639984   7.7969999  59.1170006  59.3750000   7.8080001  58.1660004
  60.1150017   8.4289999  59.2760010  44.5680008  73.3440018  56.8720016
  45.4539986  73.5459976  56.6170006  44.4850006  72.4179993  56.5730019
  73.3130035  10.0839996  39.1500015  72.6210022  10.0050001  38.4430008
  73.4540024  11.0480003  39.2010002  63.4309998  13.9729996  63.6679993
  63.0250015  14.3009996  62.8199997  64.3359985  13.8070002  63.3580017
  62.8250008   8.4549999  57.5740013  63.5890007   8.7370005  58.1500015
  62.1549988   9.0380001  57.9199982  64.4840012  12.2259998  44.6850014
  64.2330017  11.4610004  44.1479988  63.7799988  12.1759996  45.3979988
  32.4070015  75.1240005  51.4510002  32.9269981  75.6510010  52.1189995
  32.8019981  74.2440033  51.5309982  63.3040009  12.3350000  59.3089981
  62.4529991  11.8769999  59.2019997  63.9300003  11.6210003  59.1710014
  59.3810005  10.3470001  48.2150002  59.2200012  10.8990002  49.0470009
  58.7680016   9.5900002  48.3899994  51.0709991  23.6669998  51.1949997
  50.8689995  24.0139999  50.3059998  51.6800003  24.3719997  51.5289993
  40.3250008  78.3059998  37.7669983  39.9379997  77.4319992  37.9739990
  39.4410019  78.8089981  37.9010010  36.9150009  71.1949997  51.8909988
  37.7249985  70.5930023  51.9889984  36.4889984  70.9990005  52.7270012
  57.2420006  13.3230000  55.1290016  57.6069984  12.4580002  54.7739983
  56.7099991  12.8950005  55.8440018  52.5800018  21.0909996  56.9519997
  52.0639992  21.0270004  57.7949982  52.3820000  20.2099991  56.5600014
  61.3269997  16.4680004  33.1510010  62.3040009  16.1690006  32.9830017
  61.1780014  15.9799995  33.9669991  64.8359985  12.8170004  53.0820007
  65.5380020  13.5389996  53.0239983  65.3690033  12.0959997  53.4990005
  61.6430016  18.7509995  54.4379997  61.1520004  19.6009998  54.2249985
  61.2789993  18.1770000  53.7210007  61.4710007  21.1599998  47.7789993
  61.6339989  21.1739998  46.7799988  61.8569984  22.0149994  48.0299988
  57.3320007  19.0300007  53.1549988  57.7960014  18.4349995  52.5260010
  56.5209999  19.1940002  52.6069984  61.6500015   9.4069996  52.2760010
  62.0000000   9.4230003  53.1889992  60.8120003   8.8579998  52.4469986
  43.6349983  12.6549997  48.8530006  43.9550018  12.5129995  49.8199997
  43.4860001  13.6389999  48.9630013  30.7719994  75.6309967  31.5529995
  31.1569996  75.2020035  32.3470001  30.2539997  74.8580017  31.2119999
  57.0839996   7.5720000  44.0550003  56.7430000   8.4750004  44.2369995
  56.3849983   7.2340002  43.4659996  56.1809998   7.7880001  59.3559990
  56.1409988   7.3559999  58.4679985  55.3230019   7.6079998  59.7649994
  71.2559967  31.3549995  55.6669998  71.7109985  30.4720001  55.6749992
  70.7450027  31.3549995  56.4679985  77.9779968  29.6350002  56.3629990
  77.3960037  30.4099998  56.4249992  78.5589981  29.8460007  55.6170006
  72.5469971  31.4720001  49.6940002  72.1080017  32.3689995  49.9850006
  72.9690018  31.9150009  48.8820000  69.3420029  27.9249992  49.9300003
  69.1660004  28.3729992  50.8139992  69.9800034  27.2390003  50.2449989
  67.7360001  21.3689995  56.4029999  67.2860031  20.8080006  55.7070007
  66.9410019  21.4969997  57.0330009   0.4660000  24.4319992  63.5320015
  -0.2940000  24.3610001  62.9350014   0.5100000  25.4060001  63.6839981
  72.7880020  30.6800003  58.2200012  72.5059967  31.5249996  58.5649986
  73.2190018  30.2819996  59.0359993  72.2300034  42.7220001  71.5240021
  71.4720001  42.5569992  70.9280014  71.7949982  42.5120010  72.3619995
  72.1940002  35.1739998  52.8160019  72.9039993  34.5239983  53.0120010
  71.4449997  34.5649986  52.8720016  67.4729996  38.3660011  48.4609985
  67.6060028  39.2589989  48.8289986  67.1829987  38.6090012  47.5830002
  57.3680000  35.0719986  63.3919983  57.7680016  35.2610016  62.5180016
  57.8660011  35.7620010  63.9350014  71.7249985  39.6730003  56.9580002
  71.8280029  38.7029991  57.2190018  70.8330002  39.7779999  57.3680000
   1.6619999  37.3510017  53.3779984   0.9370000  37.8009987  53.8820000
   2.3060000  38.1329994  53.3769989  53.7459984  28.1210003  59.2869987
  54.6269989  28.1310005  59.7210007  53.7010002  27.2730007  58.7970009
  71.6610031  23.7779999  65.2740021  72.4580002  23.4370003  65.6669998
  71.5729980  23.1660004  64.4629974   0.1550000  46.3979988  56.3479996
  -0.2370000  47.0690002  57.0159988   0.6800000  45.9059982  57.0289993
  66.9779968  35.0110016  52.5559998  66.3440018  34.3590012  52.2859993
  67.0889969  35.5439987  51.7350006  66.7689972  18.8360004  59.8930016
  67.4020004  19.5200005  59.7420006  66.6869965  18.7800007  60.8479996
  70.9810028  11.0920000  55.2070007  70.3659973  11.4530001  55.8240013
  70.6340027  10.1910000  55.0649986  68.5670013  37.1440010  43.7179985
  67.7460022  37.5769997  43.7840004  69.2170029  37.8279991  43.3790016
  78.4329987  42.6679993  57.6699982  79.0279999  42.0060005  58.1189995
  78.2630005  42.0750008  56.8769989  70.4169998  17.9869995  43.1150017
  69.8550034  18.1879997  42.3499985  69.9309998  18.5550003  43.8030014
  65.9020004  43.5579987  46.5690002  65.1849976  43.0320015  47.0060005
  66.3750000  42.8699989  46.1269989  72.1480026  35.4269981  61.9249992
  71.2979965  35.2970009  62.3569984  72.4710007  36.1899986  62.3989983
  72.2340012  20.7290001  46.3149986  71.3600006  20.4659996  46.1189995
  72.7379990  20.0919991  45.7690010  73.5599976  30.1860008  43.3479996
  72.9649963  29.5930004  43.7630005  73.5059967  31.0410004  43.7739983
  78.7529984  13.6020002  50.1889992  78.0329971  13.2659998  49.6300011
  79.3880005  13.9130001  49.5149994  73.6510010  30.1289997  40.5690002
  73.2539978  30.2310009  41.4669991  74.5729980  29.8700008  40.8580017
  73.6589966  27.1350002  51.4869995  73.1630020  26.4850006  52.0719986
  73.1869965  27.9669991  51.8069992  69.0800018  42.4440002  56.6780014
  68.8679962  43.3740005  56.3470001  69.0879974  42.6139984  57.6710014
  76.3629990  31.8700008  56.9760017  75.5999985  31.4580002  56.5480003
  75.9560013  32.2190018  57.7859993  71.7659988  34.4459991  55.7989998
  72.6839981  34.3269997  55.4669991  71.4820023  33.4609985  55.8940010
  71.6709976  39.5369987  47.2299995  70.9000015  39.8310013  46.6329994
  72.3460007  40.0509987  46.6839981  75.1869965  40.6100006  60.4039993
  74.7910004  40.4430008  59.4930000  75.7450027  41.3790016  60.1800003
  79.1460037  42.3370018  52.2610016  78.2990036  42.2719994  52.8359985
  79.5510025  43.0919991  52.6730003  74.0690002  28.6980000  54.6040001
  74.5410004  27.8959999  54.9420013  74.6129990  29.0760002  53.9620018
  71.3050003  41.0419998  49.4449997  71.4280014  40.4739990  48.6440010
  71.7440033  40.4900017  50.1189995  72.6650009  39.0340004  54.1930008
  73.6139984  38.9169998  54.3390007  72.4150009  39.5789986  54.9430008
  75.2720032  28.0279999  43.3489990  74.6429977  28.7670002  43.4389992
  75.0380020  27.7399998  42.4469986  75.4319992  18.9780006  48.1619987
  74.8050003  18.2310009  48.2369995  74.9869995  19.7019997  48.6510010
  73.1190033  29.4939995  47.5379982  72.8160019  29.9559994  48.3390007
  73.0800018  28.5919991  47.7459984  70.0910034  53.1730003  47.3580017
  70.5820007  52.9920006  48.1489983  70.3509979  52.4119987  46.7980003
  70.0849991  30.8700008  61.2859993  69.3840027  30.6310005  60.6949997
  70.4069977  31.7210007  60.8219986  69.1139984  39.9220009  52.0180016
  68.2419968  39.4599991  52.1199989  68.9079971  40.6920013  52.6279984
  78.1419983  30.1079998  62.0629997  78.5049973  30.7560005  62.6300011
  77.9729996  30.5480003  61.2140007  74.0780029  44.0000000  55.2960014
  73.2139969  43.6440010  55.0480003  74.2770004  43.4920006  56.1100006
  52.9990005   4.3800001  11.6490002  52.0810013   4.7030001  11.5209999
  53.5050011   5.1430001  11.2670002  62.6580009  45.1559982  45.4000015
  62.0379982  44.5859985  45.8349991  62.8600006  45.7949982  46.0670013
  73.5019989  43.2739983  51.6669998  73.8050003  42.4539986  52.1279984
  72.5790024  43.2929993  52.0509987  68.0849991  32.9980011  57.5110016
  67.5439987  33.4900017  58.2140007  68.1340027  33.7179985  56.8650017
   1.4670000  32.0130005  44.0499992   1.9470000  31.2579994  43.7070007
   0.6680000  31.6000004  44.4389992  65.1039963  42.1129990  36.7239990
  65.3610001  42.4000015  35.8120003  65.9820023  42.1180000  37.1599998
  74.0070038  31.1669998  55.9729996  73.5370026  30.9109993  56.8450012
  73.8199997  30.3180008  55.5040016  62.6559982  44.0050011  48.7389984
  62.4399986  43.0660019  48.5340004  61.7239990  44.3520012  48.5050011
  54.4269981  48.2229996  50.5489998  55.2260017  48.6619987  50.7169991
  54.3279991  47.6290016  51.3289986  66.1890030  20.1739998  54.6969986
  65.5869980  19.4740009  54.8899994  65.5920029  20.9179993  54.5849991
  71.9810028  39.2770004  60.8510017  71.2170029  38.7140007  61.1489983
  71.4550018  40.0410004  60.5289993  11.6920004  31.4039993  63.8460007
  11.3490000  30.7210007  63.3409996  12.5869999  31.0750008  64.1470032
  76.5690002  34.2840004  49.5900002  77.4729996  34.2540016  49.1609993
  76.4530029  33.3100014  49.6769981  74.4290009  38.0960007  61.2869987
  73.5690002  38.6339989  61.1609993  75.0179977  38.6430016  60.7420006
  70.1080017  37.3019981  48.2540016  69.2590027  37.7739983  48.4749985
  70.6520004  38.0000000  47.9239998  67.9629974  34.7949982  55.1739998
  67.6169968  34.6780014  54.2680016  67.8310013  35.7019997  55.3209991
  51.1389999  12.2430000  59.3300018  51.6310005  11.7910004  60.0289993
  51.7960014  12.7390003  58.8320007  66.5759964  23.9459991  55.1500015
  66.2279968  24.6060009  54.5219994  65.8909988  23.2910004  55.2459984
  70.9069977  51.1980019  45.8289986  71.8079987  51.4550018  45.6010017
  71.0130005  50.2779999  46.1860008  73.8030014  35.0979996  49.6129990
  74.7880020  35.1300011  49.6879997  73.6299973  36.0089989  50.0419998
  76.3450012  16.9580002  51.6349983  75.7149963  16.3659992  52.0239983
  76.7369995  16.4759998  50.8919983  79.5370026  23.8180008  56.0870018
  79.2210007  23.2840004  55.3619995  78.6890030  24.0230007  56.5600014
  72.7419968  16.9480000  51.9029999  72.5149994  17.8490009  51.7130013
  72.3850021  16.4669991  51.2060013  75.8889999  37.0709991  34.2220001
  75.9919968  37.4690018  35.0909996  76.4219971  36.2690010  34.3190002
  65.7939987  30.5590000  60.5820007  66.6399994  30.7819996  60.0760002
  66.1940002  30.4029999  61.4300003  73.8860016  27.5049992  66.8160019
  73.0569992  28.0380001  66.9869995  74.1740036  27.4850006  67.7890015
  73.4020004  15.9510002  58.4280014  73.7870026  16.7989998  58.1580009
  73.0510025  15.6129999  57.5989990  69.7740021  38.6090012  64.1279984
  69.0550003  38.3050003  64.6729965  69.4960022  39.5439987  63.9529991
  69.7470016  19.8409996  45.2439995  69.5469971  20.4839993  44.5099983
  69.3109970  20.3349991  45.9910011  75.1039963  26.5020008  61.3009987
  75.6460037  27.3260002  61.3689995  74.3700027  26.7439995  61.9459991
  76.9079971  22.3439999  42.5009995  77.1959991  22.4629993  43.4249992
  77.1500015  21.3980007  42.4269981  70.3059998  41.7659988  35.4930000
  71.0989990  41.3820000  35.9630013  69.6350021  41.5919991  36.1689987
  77.1159973  35.5400009  39.8219986  76.9759979  34.5610008  39.8059998
  77.4639969  35.7200012  38.9389992  75.6520004  38.0699997  57.8839989
  76.5739975  38.3499985  58.0960007  75.7040024  37.1240005  58.1059990
  71.6829987  30.6609993  26.7549992  71.5830002  30.9599991  27.6700001
  71.0599976  31.2619991  26.3099995  69.1449966  28.3269997  52.7179985
  69.5149994  29.1490002  53.0499992  69.7890015  27.6830006  53.1479988
  60.8100014  43.5499992  57.3670006  60.2179985  44.0320015  56.7070007
  61.2290001  44.3339996  57.8419991  69.2109985  24.5590000  42.3549995
  69.6709976  25.3939991  42.6559982  69.5439987  24.6350002  41.3959999
  73.5159988  24.2250004  49.4399986  73.4869995  23.5990009  48.6899986
  73.9179993  23.6030006  50.1520004  75.7990036  52.8089981  43.3919983
  76.5630035  53.0589981  43.9599991  76.2839966  52.3769989  42.6669998
  74.7450027  50.1619987  51.3930016  74.8899994  50.8959999  50.6790009
  75.6809998  50.0849991  51.6489983  69.9980011  52.1640015  50.8940010
  70.3730011  53.0569992  50.9840012  70.8249969  51.6590004  50.6459999
  69.4660034  43.0139999  48.7659988  70.0479965  42.3059998  48.9420013
  69.6470032  43.1749992  47.7900009  78.6419983  55.8460007  47.6920013
  78.2910004  56.6640015  47.2330017  78.4169998  55.2019997  47.0320015
   2.6459999  50.1549988  40.3479996   1.8900000  49.6479988  40.8409996
   2.9230001  50.7130013  41.1759987  70.3420029  52.9739990  43.3120003
  71.2659988  52.6450005  43.2360001  69.8389969  52.0999985  43.3089981
  63.5419998  59.4039993  61.8310013  63.8940010  59.9059982  61.0149994
  64.3909988  59.1259995  62.2340012  76.6650009  53.7019997  53.9039993
  77.1740036  53.5629997  53.0800018  77.1520004  54.4630013  54.3199997
  77.8750000  44.1809998  50.4119987  77.1529999  43.4700012  50.2519989
  78.3789978  43.7599983  51.0950012  72.0220032  43.9420013  58.8520012
  72.9240036  43.8279991  58.4430008  72.3219986  44.1889992  59.7789993
   7.0320001  37.7290001  39.1209984   6.4099998  38.4510002  39.2719994
   7.8600001  38.0859985  39.4500008  74.9079971  47.4640007  50.3559990
  74.7799988  48.3079987  50.8650017  74.9489975  46.8019981  51.0680008
  74.1750031  46.8870010  58.1129990  73.2089996  46.9720001  57.9360008
  74.5199966  46.6419983  57.2350006   0.3020000  45.9690018  39.4819984
   0.4120000  45.7029991  40.4420013   1.2120000  46.3390007  39.3359985
  71.5790024  41.9809990  55.2859993  71.6220016  41.1609993  55.8390007
  70.7030029  42.3680000  55.6240005   1.0110000  42.9290009  48.7490005
   0.4890000  43.7929993  48.6619987   1.4480000  42.9370003  47.8849983
   2.2900000  41.3320007  30.6879997   2.7400000  42.0960007  31.2059994
   2.2119999  40.7519989  31.4559994  69.8079987  50.9729996  57.1809998
  69.1490021  50.3750000  56.7869987  69.3320007  51.8040009  57.1870003
  75.5879974  58.6539993  46.8199997  74.7710037  58.4589996  47.2770004
  75.8300018  59.4729996  47.3359985  10.4230003  42.8820000  64.0319977
  10.7379999  42.4290009  63.2270012  10.7469997  43.8110008  63.8310013
   1.0800000  45.7610016  66.9089966   0.2190000  45.2579994  66.8249969
   1.0290000  45.7620010  67.9380035   5.9089999  53.5110016  51.1699982
   5.9980001  53.6069984  50.2280006   6.3140001  54.3870010  51.4930000
  71.0419998  47.7420006  38.9939995  71.8710022  47.1899986  38.9099998
  70.3750000  47.1450005  38.5480003  15.0550003  51.1549988  68.8180008
  15.5070000  50.5110016  69.3099976  14.3249998  51.5040016  69.3359985
  75.5970001  45.4129982  62.6769981  74.9449997  46.0239983  63.0670013
  76.4069977  45.8559990  62.9160004  76.3440018  30.6420002  41.1629982
  76.3430023  31.3680000  41.8100014  77.2529984  30.3029995  41.2529984
  75.5899963  43.4210014  45.3940010  76.5319977  43.0530014  45.5359993
  75.7939987  44.3889999  45.4550018   0.4430000  45.0120010  42.1699982
   0.5000000  44.0680008  42.4539986  -0.0270000  45.3349991  43.0040016
  66.5930023  52.7690010  45.7599983  67.2369995  52.1479988  45.3429985
  66.1729965  53.1689987  44.9729996  69.1890030  47.8540001  61.8629990
  68.9309998  47.5299988  62.7949982  70.1429977  47.5079994  61.8699989
  69.4189987  43.5820007  59.0460014  70.3820038  43.7299995  58.8699989
  69.1429977  44.4249992  59.3940010  69.4219971  46.2900009  52.9669991
  68.7860031  45.8240013  53.5209999  70.1100006  46.5540009  53.6080017
   0.2160000  40.7050018  58.7099991   0.8510000  41.0540009  59.3639984
   0.7550000  40.3829994  58.0139999  73.2900009  44.6409988  46.3699989
  73.3820038  44.7509995  47.3569984  74.2320023  44.4659996  46.1759987
   0.6350000  37.2449989  47.3549995   0.8660000  37.7669983  46.5670013
  -0.0370000  36.6549988  46.9819984  64.5650024  47.9020004  63.0900002
  63.7029991  47.8300018  62.6920013  65.0979996  48.1040001  62.2919998
  68.8320007  57.3909988  44.6889992  69.3720016  56.6110001  44.8569984
  68.4489975  57.5079994  45.6160011  72.0000000  50.5589981  50.0589981
  72.8539963  50.3600006  50.4990005  71.6839981  49.7159996  49.8390007
  79.3529968  48.3240013  64.5419998  80.0139999  49.0379982  64.1890030
  79.7360001  47.5369987  64.1159973  63.7919998  45.3100014  50.9449997
  64.2809982  46.0709991  50.5079994  63.3440018  44.9329987  50.1990013
  48.8779984  13.3330002   4.3060002  49.7980003  13.4720001   4.1310000
  48.4129982  14.0819998   3.9500000  73.2180023  59.4269981  62.1959991
  73.5540009  58.7360001  61.6150017  72.3659973  59.6100006  61.7309990
  78.2170029  54.0530014  63.4830017  78.7699966  54.6300011  64.0179977
  77.6220016  53.6269989  64.0640030   2.9949999  38.4669991  42.8950005
   3.9319999  38.4420013  43.1269989   2.8120000  37.5620003  42.5849991
  69.5059967  50.4230003  43.1450005  69.0439987  49.8479996  43.8680000
  69.8899994  49.6609993  42.6500015  73.6149979  33.2280006  47.5680008
  72.7190018  33.3670006  47.2330017  73.6309967  34.0009995  48.1609993
  67.7549973  43.2270012  42.7599983  67.2750015  42.5419998  42.2700005
  67.4479980  44.0139999  42.2599983  74.2440033  31.6879997  38.4630013
  73.3339996  32.0719986  38.3629990  74.0009995  31.0830002  39.2610016
  74.4789963  29.4349995  59.7550011  74.4929962  29.3430004  60.7910004
  75.4380035  29.6429996  59.6800003  75.1880035  36.9830017  40.8660011
  74.8539963  37.3619995  40.0190010  75.7929993  36.3079987  40.5480003
  73.3310013  47.8709984  42.4049988  72.3740005  47.9389992  42.2010002
  73.5609970  47.0320015  41.9189987  77.9690018  39.6080017  65.3590012
  77.7539978  39.3479996  64.4380035  78.9639969  39.5340004  65.3509979
  65.6370010  48.8680000  40.6580009  65.1399994  49.1889992  39.8349991
  66.4980011  48.7869987  40.1839981  77.8239975  48.1699982  40.3800011
  77.4339981  48.3240013  41.2570000  77.4339981  47.2840004  40.1879997
  72.8020020  40.7630005  42.1489983  72.6179962  41.1339989  43.0320015
  72.4020004  39.8279991  42.2659988  79.4739990  60.1150017  33.8510017
  79.8860016  59.3559990  33.3730011  80.1719971  60.4440002  34.3569984
   8.6750002  50.0620003  45.4440002   9.5509996  49.8429985  45.3120003
   8.6689997  50.7179985  46.1669998  14.0900002  36.9679985  50.0730019
  14.6280003  37.1189995  50.8860016  13.2659998  37.4220009  50.3580017
  77.7880020  41.9780006  46.6559982  77.5009995  41.4690018  47.4430008
  78.2610016  41.2669983  46.1380005  68.0080032  46.9539986  57.6529999
  68.0059967  47.8440018  57.1980019  67.0820007  46.9669991  58.0019989
  75.1050034  52.0760002  49.6180000  76.0019989  52.2239990  49.3339996
  74.5889969  52.2019997  48.8289986  76.6179962  49.8230019  28.3630009
  77.3130035  50.4059982  28.8010006  76.2220001  49.3849983  29.1480007
  66.8860016  38.5880013  52.0519981  66.3939972  39.4020004  51.8429985
  66.1279984  37.9029999  52.1059990  53.0449982  22.5130005  -2.0230000
  52.3740005  22.9099998  -2.6350000  53.3489990  21.8050003  -2.6029999
   3.6930001  42.8769989  54.1380005   4.4029999  42.3660011  53.6570015
   3.3520000  43.4480019  53.4910011  76.0830002  40.3629990  48.6500015
  75.3980026  39.6469994  48.4070015  76.7519989  39.6879997  48.9760017
  69.9369965  57.4519997  37.2960014  70.2990036  57.0499992  38.1170006
  69.8000031  58.3849983  37.6320000  78.2340012  53.3230019  51.7669983
  79.0319977  52.7099991  51.7169991  77.8369980  53.0660019  50.8909988
  68.4899979  42.1250000  53.3019981  67.6320038  42.5909996  53.3520012
  68.2990036  41.5649986  54.0870018  70.8850021  36.7680016  54.1850014
  71.3720016  37.3959999  54.7649994  71.6090012  36.1300011  53.9580002
  78.7549973  35.3009987  46.0009995  78.8339996  35.8590012  45.1459999
  78.1910019  35.9379997  46.5180016   2.1570001  34.3860016  58.1479988
   1.1870000  34.2400017  58.0950012   2.3320000  34.0919991  59.0610008
   3.6199999  46.3720016  63.7589989   3.7370000  45.7010002  63.0810013
   2.7309999  46.7350006  63.5820007  77.8659973  47.2669983  61.9420013
  77.8300018  48.2290001  62.0839996  77.2610016  47.2649994  61.1290016
   0.7830000  61.2190018  37.3129997   0.4090000  60.4370003  37.7280006
   1.5440000  60.7849998  36.8429985  70.1210022  55.1170006  45.1570015
  70.1630020  54.4710007  44.3979988  70.2580032  54.4840012  45.9129982
  73.4449997  49.0559998  60.1539993  72.9960022  49.3689995  59.3559990
  74.0250015  48.3759995  59.7809982  62.5519981  51.2779999  59.5839996
  62.6660004  51.7179985  60.5040016  62.0099983  52.0149994  59.1720009
  74.7770004  45.4990005  52.1850014  75.2539978  45.3470001  53.1069984
  74.4229965  44.5989990  52.1180000  21.1140003  -0.8730000  46.2589989
  21.4009991  -0.5150000  47.1209984  20.3169994  -1.3870000  46.5999985
  74.9100037  36.4889984  46.0540009  74.9430008  36.2879982  45.0639992
  74.2180023  35.8590012  46.3380013  68.5059967  46.7420006  46.6010017
  68.7480011  46.5880013  45.6860008  67.8600006  47.4550018  46.5079994
  76.5879974  35.9860001  52.2000008  77.4449997  36.0190010  51.7169991
  76.2080002  36.8050003  51.9269981   0.3720000  55.5870018  50.9620018
  -0.3170000  54.9099998  50.8230019   1.0570000  55.3160019  50.3129997
   2.6470001  59.7540016  35.4249992   3.1630001  60.5589981  35.1590004
   3.3680000  59.0839996  35.4090004  77.8010025  52.4939995  48.8750000
  77.6500015  52.6389999  47.9249992  78.8040009  52.6119995  48.8740005
  70.0899963  56.2729988  49.7060013  70.4400024  57.1879997  49.6549988
  69.9909973  56.1080017  48.7579994  78.3089981  56.7680016  42.2400017
  77.5660019  56.5169983  41.6650009  78.3990021  57.7459984  42.0480003
   1.5280000  47.0559998  50.7770004   0.6120000  46.7239990  50.8120003
   1.3450000  48.0040016  50.8139992  72.7789993  53.8930016  61.1660004
  72.6750031  52.9809990  60.7190018  73.7699966  53.7840004  61.3089981
  77.0609970  64.4359970  47.0999985  77.9000015  64.7860031  46.9659996
  77.0859985  64.0690002  48.0180016   3.3889999  47.5089989  43.5070000
   4.0180001  48.2379990  43.1520004   3.7100000  46.7999992  42.9160004
  75.9560013  43.1259995  64.3349991  75.8160019  43.7630005  63.6170006
  75.4850006  42.3650017  63.9140015   4.0029998  61.6290016  38.2849998
   3.3350000  61.4580002  38.9959984   4.4169998  62.4480019  38.6720009
  71.3519974  47.6349983  49.6599998  72.1829987  47.1710014  49.6570015
  70.7040024  46.8810005  49.8419991  63.9399986  54.3149986  50.6790009
  64.1800003  53.5960007  51.2900009  64.8420029  54.7190018  50.5699997
  27.9340000  -5.2870002  40.5099983  27.8309994  -5.3759999  41.4990005
  28.7980003  -5.6970000  40.3260002  75.1849976  39.4000015  55.0909996
  75.6490021  38.6209984  55.4760017  74.8499985  39.8160019  55.9090004
  67.6770020  39.9339981  59.8580017  67.0100021  39.9669991  60.6389999
  67.8180008  38.9529991  59.9020004  69.5289993  43.3790016  45.7579994
  68.7070007  43.3860016  45.2340012  69.8349991  44.2760010  45.7840004
  76.3590012  50.4580002  45.8250008  75.4380035  50.1539993  46.1170006
  76.3320007  51.4169998  45.9900017  74.0009995  35.9339981  59.4910011
  73.1320038  36.0309982  59.1450005  73.9860001  36.3730011  60.3419991
  65.3649979  43.1139984  61.7270012  66.0149994  43.3549995  61.1129990
  64.8330002  43.9449997  61.7820015  68.4810028  46.6510010  38.0419998
  68.5429993  45.7879982  38.5029984  67.6350021  46.5190010  37.5299988
  75.7109985  48.1269989  54.0079994  74.8679962  48.5000000  54.2080002
  75.6299973  47.2480011  54.4690018  78.4150009  46.6129990  50.9949989
  78.1630020  46.6419983  51.9980011  78.0289993  45.6990013  50.7910004
   9.9870005  43.6310005  49.8240013  10.4499998  43.1040001  50.5139999
  10.7209997  43.9319992  49.2579994   2.0100000  31.3579998  51.6889992
   2.0920000  30.5070000  51.2239990   2.1750000  31.9640007  50.8940010
   0.2030000  29.6270008  45.1689987  -0.4080000  29.1919994  44.5239983
   1.0520000  29.1569996  44.9420013  70.1849976  36.7089996  51.2270012
  70.4899979  36.5859985  52.1510010  70.4029999  37.6440010  51.0989990
   1.1450000  50.1020012  63.0139999   1.6990000  49.4199982  62.6010017
   1.7770000  50.8580017  63.0859985  65.9830017  38.0589981  56.1609993
  66.5910034  38.0120010  55.3800011  65.7659988  38.9889984  56.1170006
   8.4820004  38.6170006  56.4930000   8.9820004  39.3370018  55.9770012
   8.5419998  37.9510002  55.7659988  68.0719986  37.5120010  54.3759995
  69.0159988  37.4350014  54.1059990  67.6859970  37.5979996  53.4770012
   0.7720000  31.5760002  48.8779984   0.0890000  31.5000000  49.5849991
   0.5970000  30.7360001  48.4150009  10.9969997  39.1679993  63.8800011
  11.6770000  39.8199997  64.2740021  10.5380001  38.9599991  64.7200012
  64.0029984  49.8160019  54.9570007  63.3499985  49.7550011  54.1949997
  64.8440018  49.6250000  54.4679985  67.3939972  51.6329994  51.8069992
  67.2529984  52.6080017  51.9720001  68.3590012  51.7019997  51.5149994
  63.5600014  59.9830017  47.3170013  64.2740021  59.5110016  46.8409996
  63.5600014  60.7869987  46.7200012  65.3109970  51.7879982  58.6389999
  65.5739975  51.6349983  59.5789986  64.3960037  51.4580002  58.6819992
  72.2460022  54.1380005  49.6440010  71.9649963  55.0750008  49.8180008
  72.7389984  53.9210014  50.4410019  67.2870026  56.6160011  40.9099998
  67.1380005  55.6889992  41.1829987  68.1129990  56.7900009  41.3989983
   2.2210000  48.0349998  59.2449989   2.0829999  47.0970001  59.3300018
   3.1010001  48.0320015  58.7570000  68.3880005  54.2379990  37.8629990
  68.9769974  54.8639984  38.2369995  68.9059982  53.7060013  37.2270012
  78.1019974  34.5820007  64.2259979  77.6819992  34.9690018  63.4809990
  78.6829987  35.2849998  64.5619965  74.0690002  54.3460007  56.5499992
  74.3700027  55.0219994  55.9519997  74.3109970  53.5460014  56.0940018
  78.3850021  48.1529999  57.9630013  77.7490005  48.7480011  57.4669991
  78.8820038  48.8479996  58.4370003  66.7020035  50.6150017  54.3940010
  66.9789963  51.2070007  53.6980019  66.7089996  49.7610016  54.0180016
   7.1310000  27.7290001  66.3040009   6.4600000  27.3470001  65.6880035
   7.9410000  27.5020008  65.9079971  12.4610004  58.4640007  48.0620003
  11.5360003  58.1969986  47.9510002  12.5190001  58.9589996  47.1529999
  66.9390030  58.0719986  27.5109997  66.7590027  58.9510002  27.9750004
  67.9100037  58.0000000  27.6800003   9.1650000  41.0099983  38.1220016
   8.9870005  40.1069984  37.7809982   9.8870001  40.7639999  38.7879982
  69.9509964  52.5349998  39.9410019  70.4029999  51.7560005  40.2270012
  70.6969986  53.1580009  39.8180008  65.3399963  47.5610008  49.9609985
  65.3040009  46.7989998  49.3390007  66.2460022  47.3820000  50.3330002
  77.9449997  40.7579994  55.7379990  78.0889969  39.8059998  55.7879982
  77.2669983  40.8969994  55.0239983   6.0190001  40.4210014  48.0410004
   5.3520002  41.1059990  48.2700005   6.7960000  40.6500015  48.5810013
  64.6699982  41.3349991  48.7459984  64.8320007  40.4259987  48.4539986
  63.7799988  41.5229988  48.4160004   0.8260000  41.2099991  67.8809967
   0.6410000  40.2019997  67.8820038   1.7670000  41.0680008  67.5299988
  75.4580002  40.6590004  41.0429993  75.7839966  40.1739998  41.8470001
  74.4950027  40.6489983  41.2470016  66.0350037  44.1450005  55.8870010
  65.9970016  43.4910011  55.2169991  66.8990021  44.5050011  55.8190002
  64.8300018  44.6969986  43.8190002  63.9609985  44.9440002  44.1380005
  65.3639984  44.6269989  44.6380005  58.7099991  44.8199997  51.1450005
  59.2579994  44.8860016  50.2639999  57.8279991  44.8810005  50.6850014
  76.3779984  43.2239990  54.2410011  75.4729996  43.5229988  54.3300018
  76.7990036  43.8370018  54.9290009  72.5410004  51.2029991  52.9729996
  72.0979996  50.4230003  52.6110001  73.4100037  51.1269989  52.5159988
  74.3909988  64.3310013  45.9910011  74.1900024  65.2839966  46.1279984
  75.2630005  64.2939987  46.4529991  66.7030029  57.6870003  38.4449997
  66.8529968  58.5649986  38.9099998  66.7860031  57.0800018  39.2200012
  73.6250000  37.3839989  51.2910004  73.3730011  36.7770004  52.0130005
  73.0500031  38.1259995  51.3829994  71.3020020  41.5519981  73.9000015
  70.3939972  41.4700012  74.2509995  71.7979965  41.9599991  74.6689987
  79.5299988  44.9690018  37.0830002  79.7409973  45.4249992  37.9570007
  79.1859970  45.7809982  36.6059990  72.6370010  52.1300011  58.9910011
  71.8479996  52.6080017  58.5830002  72.5599976  51.3139992  58.4749985
  79.2399979  58.7280006  39.0180016  78.9410019  59.1100006  39.8880005
  78.5110016  58.1529999  38.8180008   2.1190000  38.6049995  49.2830009
   1.5340000  39.3120003  49.6500015   1.4620000  38.1510010  48.7089996
  63.7060013  45.2449989  61.2430000  63.5190010  44.8549995  60.4370003
  63.4070015  46.1230011  61.2150002  78.8489990  59.5349998  41.6629982
  78.2190018  60.3180008  41.6119995  79.4280014  59.7980003  42.4280014
   5.4790001  58.4339981  37.3279991   4.6389999  58.1739998  37.7400017
   5.3979998  57.9099998  36.4790001  73.9179993  62.0439987  52.9799995
  74.7190018  62.0540009  52.4959984  73.2460022  62.3499985  52.3709984
  32.0200005   5.2839999  56.9220009  31.2549992   4.7270002  56.7309990
  31.5709991   6.1420002  57.1479988  67.4150009  64.8550034  35.9339981
  67.8369980  65.6719971  36.3919983  66.5279999  65.0049973  36.3260002
  66.0999985  52.4729996  42.9930000  66.7389984  52.6619987  42.2789993
  65.2779999  52.7109985  42.5040016  12.1149998  58.9239998  52.2500000
  12.6840000  59.1520004  51.4739990  12.8529997  58.8030014  52.9140015
  53.6370010  27.9930000   2.1980000  53.6959991  27.0109997   2.0079999
  54.1809998  28.3390007   1.4060000  71.6869965  65.1470032  39.5979996
  72.2740021  65.8570023  39.3209991  70.8150024  65.5869980  39.6720009
  11.8400002  49.0690002  36.8359985  10.9870005  48.5690002  36.6969986
  11.5439997  49.5449982  37.7010002   2.5910001  50.2879982  53.6640015
   2.9790001  50.0439987  54.5680008   3.4159999  50.2080002  53.1290016
  74.9710007  50.0950012  42.1640015  75.7789993  49.9220009  42.6300011
  74.4830017  49.2919998  42.3650017   0.1110000  49.2610016  50.6720009
  -0.2580000  48.9729996  49.7750015  -0.6900000  49.1199989  51.2029991
  73.3199997  57.0950012  49.0540009  73.9479980  56.4720001  48.7089996
  73.7360001  57.2669983  49.9360008  45.4650002  31.6760006  -6.1840000
  44.6660004  31.5540009  -5.6030002  45.5289993  30.6970005  -6.4159999
   2.0750000  59.7589989  40.3709984   1.8970000  60.7360001  40.4339981
   1.1610000  59.4300003  40.1119995  75.6080017  45.1850014  48.2379990
  75.1370010  45.8959999  48.6409988  75.6100006  44.4729996  48.8810005
  79.0299988  60.5029984  50.0890007  78.6269989  59.9449997  50.7389984
  79.9800034  60.1559982  50.1660004  65.2750015  51.0690002  66.0159988
  65.9430008  51.3419991  66.6129990  65.8170013  50.6839981  65.2610016
  45.2080002   1.2200000  24.5739994  44.2649994   0.8160000  24.6210003
  45.1679993   1.6000000  23.7080002  23.5259991  75.6989975  36.0309982
  23.7730007  74.9800034  36.6370010  24.2730007  75.6630020  35.3870010
  24.3969994  62.2760010  44.8759995  23.6329994  62.8699989  44.8300018
  24.6679993  62.3310013  43.9080009  39.5169983  79.8679962  30.0049992
  39.9280014  79.4100037  30.7329998  39.2690010  79.0780029  29.4780006
  56.7239990   5.6009998  19.3490009  56.7799988   4.9660001  18.5340004
  56.9129982   6.4689999  18.9039993  45.5830002   3.9380000  39.3100014
  45.5449982   3.5130000  40.2039986  46.2700005   3.4189999  38.8790016
  32.5169983  79.0260010  44.6539993  32.9500008  78.4940033  43.9819984
  31.5809994  79.0830002  44.2830009  42.5390015   8.5620003  42.3320007
  42.8199997   7.6259999  42.0180016  41.6699982   8.3490000  42.6730003
  48.0270004   1.1230000  50.4469986  47.5180016   1.8350000  50.8979988
  48.4920006   0.7370000  51.2229996  42.5940018   6.2979999  38.8899994
  41.6689987   6.6939998  38.7830009  42.5390015   5.5469999  38.2449989
  54.1949997   4.3260002  37.0270004  53.2430000   4.5240002  37.0530014
  54.4640007   4.8620000  36.2500000  31.0359993  71.1389999  40.9440002
  31.0189991  70.8560028  39.9749985  30.6630001  70.3050003  41.3139992
  25.2910004  75.0719986  51.4379997  24.9430008  75.2070007  50.5089989
  25.0750008  74.1169968  51.4700012  59.4410019  10.0520000  29.0799999
  58.6819992   9.5930004  28.6779995  58.9140015  10.9069996  29.3439999
  30.5100002  68.9219971  44.8040009  30.1919994  69.3030014  45.6730003
  31.1590004  68.2549973  45.1879997  29.4829998  76.0609970  39.2480011
  29.0230007  76.0970001  38.3940010  29.4370003  77.0189972  39.5320015
  47.0190010   8.7309999  33.8460007  47.5849991   8.4460001  34.6129990
  47.6150017   9.3990002  33.4440002  21.7619991  73.0260010  40.9199982
  21.9839993  73.7139969  41.5670013  21.0739994  72.5279999  41.3870010
  30.5219994  78.6340027  53.1119995  31.3460007  78.8020020  53.6529999
  29.9430008  79.2929993  53.4609985  23.7240009  75.3590012  49.0880013
  22.8490009  75.8050003  49.3359985  23.3899994  74.4810028  48.8300018
  22.8029995  73.1620026  47.2680016  22.7530003  72.8170013  46.3660011
  21.9039993  72.9810028  47.6069984  47.4449997   2.7390001  46.0120010
  48.4080009   2.9089999  46.0289993  47.1920013   3.1970000  46.8320007
  63.4259987   7.5159998  44.5839996  62.8470001   7.2830000  45.3199997
  63.3499985   6.6510000  44.0730019  62.6160011  15.1969995  47.3100014
  62.3849983  14.8109999  46.4490013  62.3170013  14.4829998  47.9020004
  67.0839996  16.2600002  29.2840004  66.9779968  17.2059994  29.2390003
  67.6279984  16.0060005  28.5370007  56.1459999  10.0039997  44.5040016
  56.2890015  10.2589998  45.4640007  55.2080002  10.3479996  44.3629990
  59.6769981  14.2810001  41.5200005  60.4850006  13.8479996  41.8059998
  59.9799995  15.1929998  41.4210014  58.6609993  19.4869995  18.1189995
  59.6220016  19.6980000  17.9780006  58.5760002  18.6989994  17.5529995
  52.0639992   7.7579999  36.9609985  52.6669998   7.8099999  37.7120018
  51.6800003   6.8750000  37.1469994  63.9869995  17.0419998  50.1409988
  63.6479988  17.1849995  49.2260017  64.8420029  17.6429996  50.0600014
  57.3470001  12.6960001  40.9179993  57.7729988  13.3900003  41.3619995
  57.7910004  11.8889999  41.0970001  73.3669968  14.8990002  33.8450012
  73.0199966  15.5170002  34.4949989  73.1149979  15.3000002  33.0019989
  61.9620018   7.0390000  38.1660004  61.3339996   7.7800002  38.2989998
  62.0579987   7.0879998  37.2150002  62.4830017   6.9289999  35.5929985
  62.2820015   7.3000002  34.6910019  61.6720009   6.4169998  35.6660004
  43.5880013  81.8330002  34.9319992  42.8100014  82.4199982  34.8460007
  44.0559998  82.0510025  34.1199989  38.1940002  80.2890015  26.2140007
  38.6230011  80.9800034  26.6200008  38.6059990  80.1549988  25.3619995
  65.8909988   8.5869999  51.3610001  65.0419998   8.5629997  50.9029999
  65.8649979   9.5299997  51.7010002  57.6250000   9.6580000  33.8629990
  56.8330002  10.1389999  33.4410019  57.9500008   9.2390003  33.0369987
  59.5209999   7.4060001  27.4230003  59.2709999   6.4200001  27.3409996
  58.6430016   7.7979999  27.4759998  28.2679996  77.0279999  34.4990005
  28.9179993  77.7450027  34.2890015  28.4139996  76.3639984  33.8380013
  62.9350014   6.8730001  48.9599991  62.4459991   6.6700001  48.1059990
  63.4399986   7.6380000  48.7659988  58.4090004  12.2130003  30.3069992
  57.8019981  12.5220003  31.0300007  58.7700005  13.0860004  30.0520000
  66.8339996  18.6469994  52.4399986  66.4459991  17.8810005  52.8989983
  66.7839966  19.3449993  53.1199989  66.9850006  12.5100002  41.5449982
  67.5640030  13.2229996  41.2500000  67.4820023  11.7580004  41.0810013
  36.6329994  79.7910004  44.0410004  37.5800018  79.5569992  43.9430008
  36.2900009  79.1989975  44.7050018  74.0520020  10.2209997  36.2750015
  74.9789963   9.9709997  36.2570000  74.0559998  11.0340004  35.6230011
   4.1599998   9.4160004  28.9790001   3.6389999   9.0039997  29.6860008
   3.6410000  10.2089996  28.7329998  69.3909988  10.3909998  35.9249992
  69.8990021  11.2119999  35.9949989  69.4010010  10.2580004  34.9469986
  75.6729965  13.2040005  37.3580017  75.0729980  12.8570004  38.1020012
  76.3690033  12.4910002  37.5079994  31.3239994  78.8939972  36.8740005
  30.9729996  78.2020035  37.4210014  30.8929996  78.6660004  35.9889984
  33.6360016  73.4459991  23.2819996  34.4749985  73.0670013  22.8069992
  33.4980011  74.1940002  22.7409992  39.2379990  79.3909988  42.6689987
  39.7519989  79.1529999  43.4529991  39.2190018  78.5709991  42.2019997
  40.4440002  74.6009979  37.3279991  39.9650002  74.6350021  36.4669991
  40.6780014  73.6250000  37.3279991  66.7850037   8.3160000  38.1660004
  66.1100006   8.0080004  37.4580002  67.3389969   7.5219998  38.1640015
  33.3839989  73.1070023  35.3129997  33.3400002  73.2969971  36.2910004
  34.3950005  72.9700012  35.2239990  64.9219971  11.0790005  39.7840004
  65.2320023  10.2060003  40.1479988  65.5319977  11.6879997  40.2960014
  40.9059982  78.3349991  52.7379990  40.5219994  78.4629974  51.8069992
  40.1040001  78.0380020  53.1329994  65.4300003  14.9619999  30.9549999
  66.0139999  15.5419998  30.4139996  65.3040009  14.1969995  30.3740005
  53.7299995  14.7220001  40.4819984  53.5279999  15.6250000  40.0639992
  53.2700005  14.8479996  41.3440018  55.2869987  10.6190004  50.8569984
  55.9290009  10.2659998  50.2729988  55.5330009  11.5539999  50.9710007
  67.0179977  16.2199993  48.6100006  66.9339981  17.0919991  49.0740013
  67.9039993  15.9480000  49.0099983  59.0120010  10.6499996  41.7519989
  59.9290009  10.6230001  41.5429993  58.6450005   9.8219995  41.3520012
  61.3590012  12.2189999  43.4189987  61.2319984  11.7609997  44.2960014
  61.4900017  11.4790001  42.8129997  44.9599991   5.0910001  35.6559982
  45.2830009   5.7210002  36.3720016  44.0600014   4.8959999  35.9519997
  65.2399979  11.3260002  35.1809998  65.3600006  10.8850002  36.0419998
  64.2699966  11.1079998  35.0040016  71.8430023  23.4200001  20.5450001
  72.1849976  22.7689991  19.8990002  71.9110031  22.7929993  21.3600006
  59.1339989  14.1450005  38.1110001  59.8619995  14.7309999  38.0410004
  59.1189995  13.9840002  39.0709991  38.0320015  79.5289993  35.5410004
  38.2439995  79.6529999  36.5070000  37.0900002  79.2750015  35.6450005
  69.4960022  16.1590004  49.8460007  69.7330017  17.0930004  50.0390015
  70.3030014  15.6890001  50.1549988  32.9119987  67.4349976  39.1250000
  32.6590004  66.7300034  39.7400017  32.6650009  66.9759979  38.2960014
  38.2280006  77.2799988  33.5449982  38.8549995  77.8410034  33.0610008
  37.4809990  77.2160034  32.9150009  63.7949982  18.7870007  28.0020008
  64.5970001  18.9169998  28.5559998  64.2009964  18.3810005  27.2339993
  27.3689995  75.2239990  32.2750015  26.5130005  75.5139999  31.7840004
  27.4860001  74.3300018  31.9009991  64.3799973   9.7030001  49.1860008
  64.5070038  10.6529999  48.9360008  63.3969994   9.6980000  49.2610016
  60.4290009  10.5819998  32.7480011  59.7669983  11.0950003  33.2179985
  59.7760010  10.2729998  32.0390015   1.8240000  17.1329994  36.7099991
   1.9760000  18.0440006  36.8409996   2.3220000  16.9130001  35.8899994
  74.9349976  17.3929996  38.5299988  75.5699997  18.1560001  38.6640015
  75.5979996  16.7029991  38.6279984  59.9910011  15.1289997  35.1269989
  59.1310005  15.2659998  35.5620003  59.7630005  14.2729998  34.6080017
  62.4249992  13.1230001  33.6269989  62.9729996  13.9440002  33.5499992
  61.9500008  13.1639996  32.7649994  35.0169983  78.8550034  28.1739998
  35.9640007  79.0350037  28.2900009  34.7169991  79.7519989  27.9839993
  30.5979996  70.3130035  38.3790016  30.8099995  70.6510010  37.4840012
  30.2019997  69.4390030  38.1110001  35.3190002  76.4250031  40.4070015
  35.1720009  75.5930023  40.8759995  35.3860016  76.0100021  39.5019989
  69.7809982  19.7110004  31.1690006  69.0000000  19.9930000  30.6140003
  69.3600006  19.8619995  32.0509987  51.9830017  79.4049988  36.3899994
  51.1450005  79.8420029  36.2649994  51.7210007  78.4710007  36.7579994
  48.8250008  12.8009996  30.2749996  48.7620010  12.7159996  31.2619991
  49.6720009  12.3549995  30.1100006  61.2360001  11.1070004  38.3870010
  61.1930008  11.6549997  37.5369987  61.7109985  11.8009996  38.9000015
  62.7760010  10.5649996  34.5260010  62.0060005  10.0930004  34.0999985
  62.7060013  11.4410000  34.0859985  58.9490013  10.9540005  51.2900009
  58.9150009  10.0170002  51.5859985  59.6199989  11.3369999  51.8769989
  71.8590012  14.5839996  50.2200012  71.1589966  14.1910000  50.7939987
  72.6399994  14.1429996  50.6160011  70.6100006  16.6130009  46.8569984
  71.3720016  16.9410000  46.3470001  70.5049973  17.3400002  47.4990005
  71.1240005  12.3889999  35.8969994  71.2129974  13.0509996  36.6020012
  72.0810013  12.3129997  35.6069984  55.0480003  12.5109997  39.6990013
  55.9169998  12.5019999  40.2089996  54.6940002  13.3719997  40.1199989
  65.3949966  14.1389999  43.0489998  64.9660034  13.5229998  43.6819992
  65.8099976  13.4770002  42.4329987  65.2040024  14.2629995  26.1130009
  64.4720001  13.6540003  26.2929993  65.5230026  14.4139996  27.0429993
  73.9929962  20.5240002  42.0130005  73.8580017  20.7250004  41.0550003
  74.9489975  20.2919998  42.0320015  66.3619995  18.5830002  45.2089996
  67.2450027  18.1590004  45.4529991  65.7630005  17.9230003  45.5740013
  57.0040016   5.5790000  46.2540016  56.5209999   6.1100001  45.5690002
  57.7779999   5.3160000  45.7029991  40.1139984  79.0759964  32.6940002
  41.1030006  78.8840027  32.7820015  40.0089989  79.8170013  33.2789993
  69.6969986  21.9969997  43.1959991  70.3809967  22.5289993  43.7719994
  69.1969986  22.8250008  42.9160004  53.4860001  11.0200005  44.4010010
  53.3540001  10.9049997  45.3310013  52.7729988  10.5389996  43.9799995
  61.7130013   6.9660001  46.5979996  61.2430000   6.0749998  46.5470009
  61.0330009   7.5489998  46.2000008  37.8250008  77.5839996  40.2970009
  36.9480019  77.2919998  40.3120003  38.2859993  76.8369980  39.8820000
  54.1899986  10.2609997  37.0839996  54.3950005   9.8870001  37.9589996
  54.6360016  11.1870003  37.2050018  70.6139984  17.2220001  35.4269981
  70.5370026  17.3610001  36.3880005  71.6070023  17.3460007  35.2579994
  66.6989975  13.2539997  46.1650009  66.6110001  12.3559999  45.9070015
  66.1809998  13.7869997  45.5330009  75.5780029  14.7659998  40.9169998
  76.1729965  15.0019999  40.1479988  75.4240036  15.6850004  41.2480011
  74.9749985  16.9839993  42.0890007  75.0080032  16.9419994  43.0909996
  73.9990005  17.0170002  41.9589996  77.0599976  12.6789999  48.5000000
  76.3489990  12.0179996  48.5849991  77.0169983  12.8420000  47.5070000
  55.1380005   6.7839999  52.2190018  55.0940018   5.9850001  51.6839981
  54.3149986   7.2319999  52.0719986  41.1730003  72.0059967  55.2690010
  41.7509995  71.4369965  54.7000008  40.5699997  71.3470001  55.6180000
  62.4290009  18.4120007  48.0680008  62.2709999  19.2570000  48.5239983
  61.8709984  18.5370007  47.3170013  35.5880013  78.7470016  36.1220016
  34.7709999  79.3190002  35.9869995  35.2500000  77.9089966  35.8009987
  53.8520012   3.5569999  29.0569992  53.7849998   3.1889999  29.9440002
  54.5270004   4.2459998  29.1660004  67.0169983  17.7140007  35.5600014
  67.6340027  17.3869991  34.8959999  66.1699982  17.7360001  35.0929985
  28.7919998  68.5189972  35.2700005  29.6599998  68.1380005  34.8860016
  28.2250004  68.5390015  34.4469986  45.8279991  74.9860001  34.7150002
  45.9930000  75.1620026  35.6520004  45.3930016  74.0899963  34.7299995
  68.8489990  17.7469997  33.5600014  69.6660004  17.6280003  34.0810013
  69.0500031  17.2150002  32.7659988  54.0699997   7.5660000  38.9039993
  53.9399986   6.8360000  39.5730019  55.0320015   7.7319999  39.0499992
  73.3619995  16.8090000  35.8320007  74.3310013  16.6329994  35.5680008
  73.5619965  17.1229992  36.7449989  54.7319984  17.8740005  46.0960007
  55.4889984  18.5400009  46.2080002  55.1889992  17.0699997  45.7519989
  79.0770035  22.3129997  29.2759991  78.6429977  22.0860004  28.4400005
  78.9970016  23.2980003  29.2399998  64.7509995  18.2770004  25.5000000
  64.4660034  18.8980007  24.7929993  65.6380005  18.5410004  25.6700001
  61.5810013  12.9259996  36.4010010  61.8600006  12.7130003  35.4679985
  60.9399986  13.6140003  36.1489983   3.0829999  25.4230003  32.2620010
   2.7880001  26.1560001  31.6299992   2.2820001  24.9610004  32.3839989
  58.5349998   7.6110001  40.4980011  59.1430016   8.0959997  39.9029999
  57.8860016   7.3119998  39.7980003  42.7360001  79.4049988  33.2589989
  42.8499985  78.6179962  33.8660011  42.6800003  80.1309967  33.9280014
  77.7490005  11.4180002  55.8059998  78.3710022  11.0330000  55.1609993
  78.2429962  11.2349997  56.6469994  70.1149979  27.5090008  35.2430000
  70.9209976  27.5779991  35.8240013  69.6940002  26.7369995  35.6539993
  54.9169998  13.2510004  34.3969994  54.8250008  14.2530003  34.4720001
  54.8129997  13.0380001  35.3689995   0.0240000  12.1309996  40.8019981
  -0.4830000  11.6800003  41.4930000   0.5240000  11.3470001  40.4379997
  65.7870026  14.8269997  55.9230003  65.3889999  14.1180000  56.4389992
  65.7050018  15.5559998  56.5340004  77.1060028  17.4559994  56.4329987
  76.3570023  17.7369995  56.9879990  76.8700027  16.5249996  56.2509995
  73.3550034  11.1260004  43.0800018  73.1279984  10.2690001  42.7089996
  73.4380035  10.9270000  44.0110016  54.6959991  13.0340004  37.1010017
  54.6100006  12.7390003  38.0419998  54.5190010  13.9879999  37.1969986
  60.5429993   5.4569998  32.6879997  61.5320015   5.2839999  32.6899986
  60.6329994   6.4749999  32.8310013  61.5530014  16.8530006  24.8899994
  62.4010010  16.5540009  24.6469994  61.6479988  17.0230007  25.8600006
  69.3349991  20.5079994  27.8710003  68.6559982  20.4519997  28.6019993
  68.8180008  20.1970005  27.1289997  65.0979996  13.1780005  29.0739994
  65.7839966  12.6070004  28.6620007  64.3190002  12.9639997  28.4990005
  64.2509995  15.8290005  24.1200008  64.6119995  15.3129997  24.9209995
  64.2730026  16.7560005  24.3649998  64.3880005  17.0650005  57.0849991
  63.9420013  17.5149994  56.3160019  63.7599983  17.2639999  57.8059998
  71.2860031  15.1789999  27.5480003  71.8460007  14.3909998  27.8670006
  71.1259995  14.9099998  26.6329994  56.9609985  15.3020000  34.6549988
  55.9990005  15.5939999  34.4920006  57.1059990  15.9069996  35.4350014
  58.7089996  18.6270008  35.6650009  59.6010017  18.2849998  35.4309998
  58.3300018  17.9720001  36.2270012  44.0460014  83.1790009  49.4609985
  43.6720009  83.8809967  48.9830017  43.8450012  83.3119965  50.3839989
  55.7519989  15.5860004  38.9920006  55.2900009  15.5509996  38.1110001
  55.0270004  15.2030001  39.5530014  35.6619987  76.2389984  49.8680000
  34.6619987  76.2890015  50.0279999  35.8590012  77.1070023  50.2939987
  51.1419983   5.3080001  44.6580009  50.9720001   5.0720000  43.7099991
  50.5110016   4.6939998  45.0670013  58.4949989   4.4889998  40.2109985
  57.6920013   3.9700000  40.0289993  58.1829987   5.3820000  40.1459999
  60.6599998  18.5860004  23.1669998  59.7169991  18.5590000  23.4300003
  61.0489998  17.9939995  23.8689995  24.5100002  72.5690002  28.4090004
  23.7290001  73.2350006  28.5060005  25.0100002  73.0670013  27.7730007
  69.9449997  11.7040005  21.4710007  69.8150024  10.6730003  21.4459991
  70.4250031  11.7150002  22.3619995  59.8660011   5.4710002  35.5390015
  59.0209999   5.3740001  36.0050011  59.5740013   5.3740001  34.6220016
  52.9020004  11.0730000  49.5610008  52.6780014  11.9639997  49.9020004
  53.7109985  10.8339996  50.0499992  68.9359970  17.1490002  56.7709999
  68.9010010  17.3759995  55.8059998  68.9950027  18.0680008  57.1489983
  10.2700005  18.2350006  43.3349991   9.9200001  18.2980003  44.1899986
  10.6190004  19.1189995  43.1650009   0.2930000  33.7929993  41.7900009
   0.0190000  33.3030014  40.9860001   0.3270000  33.1189995  42.4729996
  72.8710022  23.5620003  34.9230003  72.0370026  23.0949993  34.6479988
  73.4140015  22.7520008  35.1360016  74.9840012  35.5699997  43.2970009
  75.0500031  36.2080002  42.5250015  75.1969986  34.7360001  42.8800011
  79.5839996  14.6320000  34.2999992  79.3050003  15.4630003  34.7120018
  80.2919998  14.3299999  34.8650017  74.3870010  36.9280014  38.0460014
  75.3359985  37.0859985  37.8829994  74.2440033  36.1759987  37.4550018
   1.5440000  27.5450001  43.3580017   2.1070001  26.7360001  43.3100014
   0.6860000  27.1930008  43.1720009  66.7600021  24.7910004  38.6769981
  66.4840012  23.8859997  38.8639984  65.9039993  25.2310009  38.8619995
  71.7030029  27.8920002  40.9500008  71.3440018  28.7819996  40.9329987
  72.6660004  28.0569992  40.7760010  77.5950012  29.8360004  21.4799995
  78.4509964  30.0849991  21.0330009  77.8249969  30.1329994  22.3920002
   7.7740002  37.7649994  50.2560005   7.6380000  36.9910011  50.8330002
   6.9020000  38.1959991  50.2869987  78.3769989  19.6219997  33.9150009
  77.8030014  19.3859997  33.1599998  79.3109970  19.4220009  33.5810013
   1.3530000  19.5599995  32.7389984   2.2340000  19.1720009  33.0480003
   1.3300000  19.2080002  31.8530006  74.7190018  21.3740005  39.2410011
  75.6480026  21.4239998  39.6440010  74.7190018  22.1599998  38.6469994
  74.0660019  24.2859993  24.4729996  74.8109970  23.8139992  24.0310001
  74.4469986  24.5720005  25.2819996  74.7770004  30.0359993  52.4039993
  75.0830002  29.9389992  51.4869995  73.8199997  30.2649994  52.2360001
  66.8740005  21.1830006  40.2770004  67.6650009  21.6509991  40.6310005
  66.4440002  20.8929996  41.0909996   1.5590000  16.1560001  43.7410011
   0.9060000  15.4320002  43.8219986   1.4330000  16.4880009  42.8629990
  66.4240036  23.6329994  41.7480011  66.2549973  23.5219994  42.7029991
  67.3030014  24.0209999  41.8079987  73.7919998  30.6289997  34.5460014
  73.4100037  29.8180008  34.2109985  74.2799988  30.3059998  35.3520012
   1.5599999  35.2570000  55.6139984   2.0500000  36.0760002  55.4939995
   1.9340000  34.9059982  56.4410019  78.5360031  22.3139992  44.8149986
  79.3349991  22.5629997  44.2859993  78.8750000  21.5790005  45.3429985
   9.5500002  26.6200008  41.9860001   9.4119997  27.3589993  42.5499992
   8.7259998  26.0779991  42.1339989  71.5790024  31.9370003  37.4809990
  70.7779999  32.2599983  37.0470009  72.2419968  32.0849991  36.7630005
   6.3340001  29.0419998  27.3299999   6.8660002  29.7609997  27.7089996
   6.4499998  29.1650009  26.3969994  76.8199997  26.6959991  49.6329994
  76.0650024  26.2269993  49.2939987  77.3140030  26.9009991  48.8230019
  76.4690018  32.5620003  43.0429993  75.7610016  32.4090004  43.6800003
  77.1910019  32.6809998  43.7179985  78.7890015  37.4539986  44.0239983
  77.8679962  37.8170013  43.8689995  79.0199966  37.3629990  43.0519981
  69.6829987  22.6340008  38.1189995  69.8769989  22.1919994  38.9749985
  70.0830002  22.0610008  37.4710007   0.4550000  22.6529999  42.5330009
   0.4820000  22.0820007  41.7070007   1.2750000  22.3759995  42.9539986
  73.0090027  15.2110004  55.5800018  72.1520004  15.4080000  55.1940002
  73.6169968  15.5240002  54.8610001  67.3619995  12.1320000  33.4160004
  66.7850037  11.6809998  34.0589981  66.8789978  11.8680000  32.6450005
  74.0780029  12.3660002  31.1280003  73.1399994  12.5930004  31.0590000
  73.9919968  11.4169998  31.4799995   2.9159999  35.7220001  28.4540005
   2.0420001  35.3600006  28.5489998   2.7230000  36.6059990  28.0340004
  64.0449982  19.4379997  39.4799995  64.4580002  20.2490005  39.8699989
  63.4360008  19.2590008  40.2789993  69.9319992  25.0170002  36.2929993
  69.7969971  24.2959995  36.9329987  69.8050003  24.4459991  35.4710007
  68.4039993  15.8859997  52.7470016  68.2470016  15.9399996  51.7760010
  67.4840012  15.8760004  53.0670013  76.3659973  29.0680008  32.4259987
  76.0230026  29.6320000  33.1329994  75.5690002  29.0380001  31.8670006
  65.7689972  23.3619995  34.1570015  66.3389969  23.9710007  34.7169991
  64.8929977  23.7900009  34.3279991  73.1780014  20.2339993  49.5089989
  72.8389969  19.3349991  49.3660011  72.3809967  20.7570000  49.2849998
  67.3379974  28.1650009  36.6160011  67.9499969  28.1480007  37.4679985
  67.9240036  28.7040005  36.0709991  73.8470001  34.7480011  36.4449997
  73.2979965  34.4129982  35.7080002  74.7310028  34.3650017  36.0940018
  70.9400024  25.6180000  49.9710007  70.4469986  25.4039993  49.1969986
  71.6780014  24.9969997  49.9430008  71.6959991  38.3750000  42.0050011
  70.9039993  38.1100006  41.5089989  71.8320007  37.5289993  42.5680008
   7.2519999  13.2279997  44.4710007   7.2859998  12.2910004  44.1069984
   7.3000002  13.7170000  43.6599998  67.6859970  18.5869999  26.5450001
  67.9929962  17.6940002  26.6900005  67.1709976  18.6149998  27.4179993
  76.9000015  25.0090008  41.8230019  76.2139969  25.0219994  41.0900002
  76.8450012  24.0310001  42.0159988  76.4889984  24.2989998  53.0750008
  76.0810013  25.1369991  52.8969994  77.3730011  24.6119995  53.4529991
  69.2080002  28.5049992  38.7849998  70.1650009  28.3899994  38.5340004
  69.3259964  29.0849991  39.5550003  68.1039963  20.3230000  35.0460014
  68.2910004  19.4220009  34.8639984  67.6949997  20.3169994  35.8930016
  72.4560013  28.8649998  29.8010006  72.0289993  29.6389999  29.3610001
  73.3450012  29.2600002  30.0189991   4.5869999  26.7719994  34.4850006
   4.8340001  26.8519993  35.4119987   3.6949999  26.3859997  34.4720001
  76.8270035  24.9570007  14.2910004  76.0530014  24.4050007  14.1890001
  76.5839996  25.6210003  14.9340000  65.0159988   7.6259999  36.2649994
  64.4520035   8.3570004  36.6139984  64.2229996   6.9790001  35.9799995
  73.8750000  26.6049995  31.0900002  73.2679977  27.4039993  30.9370003
  73.2089996  25.8750000  30.7889996   3.9590001  33.9970016  26.5079994
   3.0730000  33.7150002  26.2089996   3.6180000  34.5009995  27.3419991
   2.3020000  21.4169998  23.2250004   2.1949999  22.1819992  23.7980003
   3.3310001  21.2950001  23.2430000  73.7880020  34.9129982  31.1380005
  72.8870010  34.6920013  30.8279991  73.6389999  34.9519997  32.1010017
  75.7409973  23.2469997  28.0189991  75.5120010  24.0100002  28.6599998
  74.8860016  23.1849995  27.5779991  70.4390030  18.2940006  37.9949989
  70.2139969  19.1860008  37.7840004  71.3710022  18.4260006  38.2639999
  78.1429977  11.3070002  43.0330009  77.4950027  12.0139999  43.2669983
  77.5139999  10.5410004  43.0639992  79.1050034  28.9680004  33.9160004
  79.8809967  29.1410007  33.3330002  79.5309982  29.3020000  34.7480011
   3.2219999  15.5249996  40.4319992   3.6410000  16.0580006  39.7220001
   2.3680000  15.2799997  40.0229988  68.7939987  22.7019997  30.3649998
  68.4580002  21.9930000  29.8090000  68.2279968  22.5209999  31.1399994
  72.0419998  24.5510006  58.2150002  72.6760025  23.8680000  57.8619995
  72.7139969  25.2649994  58.3009987  69.3850021  25.7639999  39.6469994
  69.1449966  26.6879997  39.7029991  68.6760025  25.4139996  39.0970001
  77.2870026  34.2229996  55.7630005  76.9069977  33.3250008  56.0209999
  78.2060013  33.9070015  55.5439987  71.4440002  34.9010010  38.3250008
  72.1640015  34.3619995  37.8759995  70.6460037  34.4790001  37.8709984
  68.7949982  26.4669991  24.1889992  68.4329987  25.5860004  24.3869991
  69.7340012  26.2819996  24.1660004  76.8830032  22.3349991  35.3199997
  76.5459976  23.2520008  35.0760002  77.7880020  22.4759998  35.2449989
  72.9869995  19.0330009  44.0789986  73.5070038  19.5650005  43.4220009
  72.1380005  18.8680000  43.6380005  75.9339981  24.3719997  47.8919983
  75.3109970  24.9360008  47.3199997  76.0270004  23.6110001  47.2439995
   4.6840000  23.1569996  38.7249985   4.1199999  23.3129997  39.5180016
   4.3099999  22.2970009  38.4309998  70.6890030  31.0109997  32.0289993
  70.2369995  30.7390003  32.7760010  70.9690018  31.8990002  32.2900009
  75.5970001  24.5340004  34.5149994  74.6350021  24.4430008  34.4920006
  75.7829971  25.1870003  33.8170013   9.1540003  24.6599998  50.0359993
   8.8299999  25.1340008  49.2420006   8.3649998  24.3950005  50.4879990
  69.0449982  11.2159996  40.0579987  69.9619980  11.2900000  40.3870010
  69.0670013  10.3940001  39.5519981  67.8180008  17.5960007  38.0750008
  68.8010025  17.5400009  37.9140015  67.5559998  17.9480000  37.2299995
  68.8949966  16.1520004  31.3239994  68.9250031  15.2119999  31.6900005
  68.1869965  16.0660000  30.6639996  68.8209991  34.3810005  44.2140007
  68.8020020  35.3580017  44.1160011  69.2929993  34.2659988  45.0789986
  68.1429977  20.2329998  17.2479992  68.4720001  20.5270004  16.4290009
  68.9250031  20.3029995  17.8220005  64.6139984   9.7679996  43.8129997
  64.8600006   9.2530003  43.0559998  64.0950012   9.1520004  44.3559990
  68.8460007  35.1230011  47.0509987  69.1389999  35.8849983  47.5999985
  68.1330032  35.5330009  46.5849991  71.1729965  34.4580002  30.6410007
  71.0090027  35.3530006  30.4160004  70.5599976  34.2929993  31.3829994
  70.2890015  14.1459999  42.9809990  70.0100021  13.6940002  43.7570000
  70.7419968  14.9080000  43.2729988  78.7710037  28.1930008  51.1339989
  78.1269989  27.7159996  50.5620003  79.5699997  27.6329994  50.9430008
   0.6050000  29.8630009  38.7010002   1.5250000  29.8519993  39.0019989
   0.1910000  29.1849995  39.3190002  68.9560013  18.5310001  40.6739998
  68.0859985  18.9780006  40.7750015  68.8420029  18.0039997  39.8909988
  71.3069992  34.1580009  49.8370018  70.7819977  34.6679993  50.4410019
  72.1399994  34.6699982  49.8380013  79.4000015  23.6669998  35.0089989
  79.6269989  23.9610004  34.1339989  80.2740021  23.3160000  35.3419991
  70.2789993  23.6980000  33.6080017  69.3629990  23.2789993  33.4020004
  70.7610016  23.2369995  32.8860016  78.1809998  16.3379993  43.4360008
  78.5049973  15.3760004  43.4239998  78.8399963  16.6350002  42.7039986
  70.0210037  32.6310005  42.1699982  70.7279968  33.2859993  42.3120003
  69.3379974  33.0149994  42.7570000  65.5429993  39.9659996  43.1160011
  65.6470032  39.0149994  43.4529991  64.6080017  40.0149994  42.9129982
  62.1310005  12.7650003  48.8250008  62.9000015  12.2760000  48.4410019
  62.2599983  12.4200001  49.7719994  58.7229996  16.9109993  46.1380005
  58.1489983  16.8129997  45.3450012  59.0589981  15.9600000  46.1910019
  78.3529968  32.5089989  45.1619987  78.4899979  33.4290009  45.5610008
  77.9329987  32.1240005  45.9300003  69.4980011  14.1590004  35.0250015
  69.9609985  13.3479996  35.2620010  69.8420029  14.7770004  35.6450005
  79.4400024  24.1620007  50.5379982  78.5619965  24.0550003  50.3059998
  79.4079971  24.3740005  51.4809990  74.8769989  24.7759991  39.9420013
  73.9260025  24.7740002  40.0060005  75.0039978  24.3439999  39.0559998
  72.0400009  34.5099983  41.2109985  71.7679977  34.7050018  40.2750015
  72.9589996  34.1809998  41.1139984  68.3130035  27.9839993  26.6250000
  69.1979980  27.8910007  26.1840000  67.7639999  27.9689999  25.8509998
  72.6029968  20.0660000  53.6129990  73.5179977  19.8250008  53.4329987
  72.7239990  21.0550003  53.5719986  73.9800034  26.6860008  58.8269997
  74.5100021  26.2779999  59.5489998  74.1819992  27.6609993  58.9269981
  71.3830032  36.0060005  26.0400009  70.7070007  36.3820000  26.6459999
  71.0149994  36.2910004  25.1620007  75.0179977  21.4389992  33.3860016
  75.3909988  21.9939995  34.1459999  75.2070007  22.0189991  32.6180000
  70.8669968  26.3780003  43.2869987  71.7200012  25.9130001  43.5499992
  71.2180023  26.7329998  42.3959999  73.3600006  23.0259991  46.7700005
  72.8320007  22.1620007  46.7350006  74.1360016  22.8050003  46.2420006
  68.3789978  21.3740005  46.9879990  68.4960022  21.1790009  47.9239998
  67.4749985  21.1049995  46.8730011  41.8160019  81.1279984  26.9489994
  41.4640007  80.8440018  26.0720005  41.8940010  82.0490036  26.8279991
  72.8600006  25.8789997  46.5769997  73.1809998  24.9619999  46.7109985
  73.4609985  26.4099998  47.1440010  66.5149994  25.5480003  35.9010010
  66.9280014  25.4379997  36.8009987  66.6669998  26.4810009  35.7459984
  74.8109970  32.0470009  45.1300011  75.3759995  31.4449997  45.5960007
  74.4300003  32.6059990  45.8689995  70.8470001  42.9720001  38.9119987
  70.8700027  42.0999985  39.3079987  71.7639999  43.1559982  38.6189995
   0.0480000  40.6370010  49.9360008   0.1450000  41.0519981  50.7879982
   0.2740000  41.3639984  49.3269997  66.2470016  19.2759991  42.4620018
  66.2379990  19.1889992  43.4630013  66.2320023  18.3239994  42.2360001
  79.1399994  28.4160004  29.8260002  79.6699982  28.9589996  29.2029991
  79.8479996  28.2159996  30.5259991  77.6859970  25.2159996  36.5989990
  77.3349991  25.7880001  35.9039993  78.3280029  24.7000008  36.0699997
  72.8550034  27.9459991  33.6240005  72.0429993  27.5890007  33.1599998
  73.1119995  27.2719994  34.2229996  69.7330017  21.2670002  40.5709991
  69.9479980  21.4780006  41.4889984  69.8529968  20.2549992  40.6020012
  72.6679993  26.0939999  35.9169998  71.9219971  25.8050003  36.5219994
  72.7720032  25.2290001  35.4309998  74.9830017  21.0639992  58.4589996
  75.9879990  21.0400009  58.6189995  74.7689972  20.3220005  59.0890007
  77.8369980  31.4200001  31.8080006  76.9589996  31.8129997  31.8010006
  77.5680008  30.4559994  32.0390015  79.5289993  27.5979996  26.5550003
  79.3669968  26.9529991  25.8589993  80.3600006  27.2450008  27.0070000
  67.2779999  44.8839989  35.4720001  66.6110001  45.5260010  35.2849998
  66.7880020  44.0709991  35.2200012  68.2190018  25.4360008  27.0820007
  68.2089996  26.3859997  26.7630005  68.0650024  24.9650002  26.2770004
  71.5970001  28.9799995  37.5890007  72.5130005  28.7220001  37.8460007
  71.5459976  29.9039993  37.8310013  72.4520035  16.4720001  39.0519981
  72.2509995  16.4050007  40.0460014  73.3919983  16.6630001  39.0480003
   1.4710000  26.1429996  28.2399998   1.7650000  26.4470005  29.1310005
   0.6520000  25.5779991  28.5879993   1.9510000  31.3339996  56.3230019
   2.4370000  31.5849991  55.5239983   2.6180000  30.7730007  56.8100014
  75.6409988  27.3110008  26.4009991  74.7119980  27.1660004  26.6499996
  75.9499969  27.8740005  27.1229992  70.1849976  27.1180000  46.3089981
  69.8059998  26.3379993  45.8019981  71.0139999  26.6959991  46.5870018
  70.5270004  26.2259998  32.8610001  70.2360001  26.6709995  33.6699982
  70.4069977  25.2889996  33.0480003  75.7760010  19.6040001  45.6720009
  75.6689987  19.3519993  46.6459999  75.6979980  18.7369995  45.2309990
  69.3300018  35.7610016  35.6629982  69.4580002  34.8720016  36.1030006
  68.6600037  35.5040016  35.0260010  63.2659988  17.3820000  43.9140015
  63.9819984  16.8939991  44.4039993  62.4720001  16.8859997  44.3489990
   2.8130000  42.4210014  50.7840004   3.3060000  42.3959999  49.9319992
   1.9420000  42.7630005  50.4599991   6.4720001  12.6280003  37.0940018
   6.6739998  13.3800001  37.6629982   6.9470000  11.9060001  37.5719986
  67.3590012  38.4510002  38.8250008  67.2979965  37.5419998  39.1310005
  66.4820023  38.6520004  38.4850006   0.6620000  30.1870003  26.0079994
   0.6400000  30.6310005  26.9330006   0.1340000  29.3279991  26.2749996
  70.0439987  18.6800003  50.4160004  69.3519974  19.3729992  50.1479988
  70.0950012  18.8610001  51.3740005  66.8580017  16.4449997  43.0820007
  66.3759995  15.7119999  42.7130013  66.8720016  16.2259998  44.0219994
  75.6589966  46.5769997  37.1100006  74.7580032  46.5760002  37.6129990
  76.2040024  46.3889999  37.8619995   1.8220000  38.7890015  45.4290009
   2.2309999  38.5279999  44.5690002   2.6689999  39.1010017  45.8660011
   8.5590000  26.0900002  47.5919991   7.7610002  26.4669991  47.2029991
   9.0270004  25.7430000  46.8190002   0.3400000  42.8569984  26.4570007
   0.8510000  42.7389984  25.6280003  -0.4590000  43.2840004  26.1569996
  69.7689972  33.7210007  32.9669991  69.6470032  33.2910004  33.8580017
  68.8980026  34.1660004  32.9070015  74.7829971  40.4819984  36.5050011
  74.1849976  39.8289986  36.9220009  74.4079971  40.5099983  35.5589981
   3.9749999  37.0079994  35.5239983   4.3379998  37.7369995  34.9500008
   3.4089999  36.5559998  34.8330002  76.5970001  38.5480003  42.2439995
  75.9879990  37.9659996  41.7519989  77.4589996  38.3610001  41.7980003
   1.2530000  42.5660019  40.0270004   0.4800000  42.5460014  39.4710007
   1.5100000  41.5999985  40.1170006   5.2610002  39.2270012  32.3320007
   4.3990002  39.6759987  32.4620018   5.7040000  39.9410019  31.8029995
  76.9629974  32.1220016  19.4960003  76.5810013  31.2399998  19.6189995
  77.1809998  32.3959999  20.4270000  77.6880035  38.6710014  49.7389984
  78.3099976  39.4459991  49.9189987  78.1600037  37.9749985  50.2290001
  70.7450027  30.7240009  40.4889984  70.4660034  31.3540001  41.2330017
  71.3000031  31.3180008  39.9519997  77.0110016  44.0050011  34.2010002
  76.9700012  43.9109993  33.2290001  76.4550018  44.7599983  34.3269997
   5.3590002  40.0489998  38.8950005   4.4650002  39.6730003  39.0369987
   5.2290001  40.9879990  39.1640015   0.2550000  32.5690002  30.3969994
   0.9470000  32.8670006  31.0070000  -0.4640000  32.2340012  30.9549999
  74.4150009  33.2470016  41.3250008  74.3369980  32.2840004  41.1759987
  75.3870010  33.4000015  41.1529999  74.4089966  38.5950012  47.8909988
  73.4499969  38.6360016  47.8180008  74.6449966  37.8190002  47.3460007
   9.9390001  46.0830002  41.4440002  10.7399998  45.6139984  41.8320007
   9.4189997  45.2949982  41.2089996   3.8729999  30.4130001  29.5809994
   4.5819998  30.1989994  29.0319996   4.2820001  31.0359993  30.2700005
  75.8659973  13.9680004  32.2430000  75.0680008  13.3929996  32.1629982
  75.4749985  14.8430004  32.1339989  65.6569977   7.3880000  31.5510006
  65.4960022   6.6180000  31.0429993  64.7399979   7.5180001  31.9389992
  40.3559990  80.5009995  16.6270008  39.7540016  79.8369980  17.0750008
  40.6920013  80.8909988  17.4880009  44.7430000  80.4879990  25.7950001
  44.5180016  79.8649979  25.0429993  45.5530014  80.9219971  25.4069996
  75.3600006  27.2099991  20.3729992  74.8040009  26.4340000  20.5739994
  75.5299988  27.5510006  21.2679996  26.3869991  50.3460007  79.6259995
  26.6749992  49.8790016  80.4319992  26.7880001  49.7540016  78.9609985
  23.4540005  51.0219994  74.6230011  23.1429996  50.2200012  75.1250000
  24.4710007  50.8530006  74.6699982  38.8670006  77.3700027  23.0499992
  39.5279999  77.1429977  22.3920002  39.0120010  76.6650009  23.7059994
   2.3360000  13.1160002  30.6189995   2.9610000  12.5979996  31.1889992
   2.6150000  12.8420000  29.7329998  76.1419983  10.6219997  33.1860008
  76.3580017  10.5260000  34.1139984  76.2480011   9.7849998  32.8289986
  61.1829987  13.7830000  31.3430004  61.3959999  14.6190004  30.9839993
  61.3580017  13.1379995  30.6560001  41.1329994  80.8919983  41.0139999
  40.7700005  80.2009964  41.5480003  41.9669991  81.0979996  41.4160004
  75.6169968  16.4249992  27.5699997  76.4649963  16.8549995  27.8670006
  75.5930023  15.7550001  28.2929993  48.0970001  77.2509995  18.6509991
  47.7620010  78.0979996  18.4459991  48.9350014  77.1770020  18.1399994
   3.2230000  11.8299999  28.1730003   3.5680001  11.8100004  27.2779999
   2.2730000  11.5799999  28.0330009  63.5929985  17.8770008  18.1639996
  63.7099991  18.1110001  19.0860004  64.2900009  18.3959999  17.7040005
  56.5180016   6.7890000  31.1639996  56.2280006   7.2750001  30.3869991
  55.6529999   6.8800001  31.6830006  59.6800003  14.9390001  26.2870007
  59.3409996  14.7130003  25.3969994  59.9049988  15.8450003  26.1149998
  76.6370010  20.4580002  29.4680004  76.3259964  20.1040001  28.6170006
  76.9240036  21.3560009  29.2059994  70.6129990  20.6709995  36.5970001
  71.5589981  20.5590000  36.5680008  70.2890015  20.4599991  35.7280006
  72.6660004  17.2959995  25.0809994  71.8909988  17.8339996  25.0730000
  72.2470016  16.3999996  25.0300007  63.5229988  15.3219995  20.1840000
  63.2789993  15.4150000  19.2819996  64.3349991  14.7980003  20.1590004
   4.5760002  13.3590002  35.1450005   5.0860000  13.1250000  35.9020004
   5.0869999  13.0559998  34.3810005  74.9339981  30.4500008  22.2439995
  75.7490005  29.9099998  22.0240002  74.2979965  29.9360008  21.7689991
  79.4950027  20.2779999  25.6940002  79.0410004  19.5939999  25.2779999
  78.8840027  20.7779999  26.2689991  13.4150000   8.3310003  35.3790016
  12.4729996   8.0249996  35.4990005  13.2869997   8.7679996  34.4720001
  69.3550034  18.4239998  22.3969994  70.1620026  18.2140007  21.9009991
  68.7600021  17.6450005  22.2280006  71.4899979  12.4740000  30.6280003
  70.9769974  11.6510000  30.6350002  70.8170013  13.0389996  31.1860008
  74.7289963  30.1889992  30.1599998  74.4100037  30.9559994  30.7099991
  74.9530029  30.7000008  29.3449993  73.4300003  21.2010002  26.6299992
  73.5540009  20.3929996  27.1119995  74.2639999  21.3020000  26.1259995
  17.8299999  46.3909988  83.1620026  17.9729996  47.1800003  82.6039963
  18.5909996  45.8180008  82.8960037   0.5260000  29.8759995  15.3149996
   1.1240000  29.1590004  15.0100002  -0.0410000  30.0249996  14.5649996
  71.8539963  17.6380005  28.8460007  71.1449966  18.3239994  28.7689991
  71.5989990  17.0079994  28.1669998   4.9200001  27.6560001  38.5110016
   5.3850002  27.4419994  39.3199997   4.9229999  28.6410007  38.5190010
  26.5949993  53.8720016  84.4840012  25.9659996  54.6459999  84.6859970
  26.1730003  53.5509987  83.6829987   6.7800002  10.1780005  26.2500000
   7.0170002   9.6650000  27.0300007   7.4559999  10.8629999  26.1410007
  70.3379974  23.3840008  23.9740009  70.8059998  22.5779991  24.3110008
  69.5410004  23.0149994  23.6280003  76.0889969  15.3219995  18.8519993
  76.9449997  15.1269999  18.4449997  75.6620026  15.9910002  18.2649994
  77.3949966  21.6110001  26.9540005  77.1500015  21.6359997  26.0289993
  76.7620010  22.2859993  27.3379993  52.5349998  79.3330002  20.1299992
  52.3860016  80.0429993  20.8910007  53.5159988  79.3369980  20.1779995
  18.8080006  45.7099991  68.0289993  19.7310009  45.6819992  68.3280029
  18.3710003  45.1650009  68.7620010  36.5209999  59.4269981  13.4110003
  36.8639984  60.3370018  13.7229996  37.0270004  58.8660011  13.9940004
   6.8680000  33.1399994  69.8219986   6.7280002  32.8590012  70.7519989
   6.9780002  32.2719994  69.3539963   0.3090000  17.5470009  57.1769981
  -0.6230000  17.7010002  56.9029999   0.1320000  16.8120003  57.8320007
  10.7200003  42.1650009  66.5169983  11.3990002  41.4659996  66.2050018
  10.5089998  42.4360008  65.5490036  69.6490021  33.7620010  74.2409973
  69.0309982  33.0540009  74.0579987  70.4150009  33.2599983  74.5839996
  10.8900003  35.8260002  67.6770020  10.3940001  35.8409996  66.8300018
  10.1730003  35.5219994  68.2720032   9.3620005  27.8829994  56.3300018
   9.1660004  27.2859993  55.5320015  10.0419998  28.4669991  55.9140015
   1.8720000  33.0830002  68.6289978   1.5549999  32.8880005  67.7590027
   2.7630000  32.6769981  68.6360016  54.5419998   6.1069999   9.8039999
  55.2929993   5.5390000   9.5520000  54.3440018   6.5159998   8.8950005
   6.0440001  40.9949989  72.4550018   6.1859999  40.0009995  72.5999985
   5.2370000  41.1430016  72.9909973  71.8639984  41.5800018  68.2760010
  72.2440033  40.7919998  67.8300018  72.5530014  42.2840004  68.0270004
  21.8010006  35.0740013  70.1620026  21.2980003  34.8870010  69.3239975
  22.2140007  35.9309998  69.9140015   0.2330000  36.8409996  59.6360016
   0.1920000  35.8479996  59.5999985   0.0330000  36.9850006  60.5779991
  15.6680002  32.2649994  67.6699982  14.7810001  31.8090000  67.5680008
  15.5220003  32.6809998  68.5279999  18.7940006  48.2529984  55.7130013
  18.4710007  47.3289986  55.5489998  17.9969997  48.7500000  55.4959984
  31.3560009  77.4029999   9.7580004  31.9939995  76.7050018   9.5360003
  30.5709991  77.0800018   9.3290005   6.9930000  31.0590000  64.1019974
   6.1069999  30.8220005  64.3909988   7.1789999  30.3700008  63.4199982
  34.1730003  68.1200027   8.2950001  34.4550018  67.7289963   9.1529999
  34.9550018  68.6549988   8.0990000  32.5470009  68.1299973  19.6089993
  31.9890003  68.8519974  20.0249996  31.8409996  67.6080017  19.1599998
  33.6839981  76.6179962  11.4530001  34.2210007  75.9380035  10.9989996
  33.9840012  77.3990021  11.0430002  14.0649996  38.6739998  69.3479996
  14.5100002  39.5239983  69.3779984  14.4320002  38.3269997  70.2289963
  11.8129997  45.0349998  69.1800003  12.5419998  44.5999985  69.6439972
  12.2180004  45.4350014  68.3740005  12.6870003  37.9780006  67.1119995
  11.8929996  37.4099998  67.3659973  13.2180004  37.9770012  67.9209976
  20.5669994  40.0149994  66.2160034  19.5990009  40.0209999  66.3779984
  20.5720005  40.3790016  65.3209991  18.5960007  43.9220009  60.6800003
  18.2059994  43.7700005  59.8030014  18.6959991  44.9029999  60.6419983
  25.3670006  44.8180008  66.1800003  25.2380009  45.8120003  66.3399963
  24.9549999  44.4630013  67.0329971  20.1930008  38.1199989  68.0630035
  20.3390007  38.9119987  67.5360031  20.9260006  37.5349998  67.6669998
  13.1929998  35.5610008  63.4949989  13.3920002  35.1370010  64.3809967
  12.2180004  35.5309982  63.5419998  13.9069996  34.2130013  68.8899994
  12.9779997  34.4059982  68.9990005  14.2700005  34.4189987  69.7559967
   9.6339998  48.8709984  74.5770035   8.8509998  48.4090004  74.1869965
  10.3179998  48.2340012  74.2910004  14.0319996  43.4199982  77.2900009
  14.6199999  43.3289986  78.1289978  14.2360001  42.5480003  76.9120026
  23.5919991  39.3820000  66.6520004  24.3040009  38.7799988  66.9270020
  23.1089993  38.7620010  66.0690002  42.6069984  77.7279968  14.6009998
  41.9720001  77.0830002  14.9700003  43.4309998  77.6220016  15.1210003
  19.6210003  42.7560005  64.4260025  20.0170002  43.6419983  64.1989975
  18.9050007  43.0340004  64.9970016  65.0199966   9.6110001  21.3920002
  64.7170029  10.0220003  22.1980000  65.8539963   9.1789999  21.5720005
  23.2830009  57.5870018  79.0699997  23.2250004  56.6119995  79.0199966
  22.7630005  57.7970009  78.2549973  10.9270000  32.8120003  66.3010025
  10.9759998  33.7439995  66.0749969  11.4879999  32.4339981  65.5670013
  12.2440004  48.6930008  69.7170029  11.7019997  48.2179985  70.3479996
  13.1400003  48.2299995  69.7890015  17.3880005  41.6230011  63.6660004
  16.7450008  42.1430016  64.1770020  18.2290001  42.0610008  63.8730011
  17.8390007  48.2130013  73.4850006  17.3460007  47.8199997  74.2050018
  18.7220001  48.2859993  73.9629974  23.9440002  37.0139999  70.8359985
  23.7570000  36.6529999  71.7409973  23.9950008  37.9480019  71.0429993
  21.6380005  55.6290016  68.8539963  22.4300003  55.5369987  68.2720032
  21.9099998  55.0830002  69.6100006  11.5880003  51.0779991  73.1959991
  12.3479996  51.6769981  72.8320007  10.9139996  51.4290009  72.5910034
  26.2670002  75.3339996   7.3299999  26.0370007  76.0449982   6.7290001
  27.1429996  75.6900024   7.7210002  28.1130009  49.4550018  75.6210022
  27.8010006  48.9580002  76.4229965  28.8889999  48.9309998  75.4499969
  17.2910004  31.4449997  65.7549973  16.7390003  30.8040009  65.2539978
  16.6030006  31.7989998  66.3949966   9.3780003  51.5999985  67.0449982
   9.9689999  52.3349991  67.3099976   9.4289999  51.6500015  66.0839996
   9.6619997  51.7309990  64.1650009   9.8170004  51.9850006  63.2299995
  10.3929996  51.1160011  64.2710037   4.1550002  36.9370003  67.4069977
   3.2019999  36.5709991  67.4520035   4.5660000  36.4830017  68.1419983
  20.0939999  51.9830017  74.8280029  19.2849998  52.5110016  74.9449997
  19.9029999  51.1279984  75.0699997  15.5310001  35.8250008  60.2340012
  14.8590002  36.4410019  59.8670006  16.3589993  36.2849998  59.8740005
  26.3360004  42.2890015  67.2310028  26.7740002  42.8300018  66.5739975
  26.9500008  41.5480003  67.3960037  15.8100004  61.8250008  70.7259979
  15.5260000  62.5940018  70.2839966  15.3070002  61.1300011  70.2699966
  18.6189995  63.3800011  55.1580009  18.8770008  62.5470009  55.5579987
  17.8460007  63.0099983  54.6320000  15.2250004  30.5839996  61.8720016
  16.1340008  30.7180004  61.5610008  14.8590002  31.5090008  61.6160011
  12.4610004  51.3839989  69.7789993  11.7220001  51.4420013  70.3740005
  12.5830002  50.4510002  69.6169968   8.6920004  41.0629997  72.0279999
   7.7210002  41.1710014  72.0780029   8.9219999  41.5709991  72.8519974
  72.5780029  21.4290009  15.4549999  72.0510025  22.1469994  15.7779999
  72.2470016  21.2390003  14.6070004  10.9809999  46.4889984  71.4199982
  11.3409996  45.8269997  70.7210007  10.1709995  46.7439995  70.9010010
  21.4169998  46.1030006  76.4369965  20.8589993  45.2799988  76.4339981
  22.2700005  45.7159996  76.2610016  46.2550011  67.4329987  19.8069992
  45.8149986  67.0999985  18.9790001  47.0970001  67.7979965  19.4449997
  18.2929993  48.6119995  76.5879974  17.8889999  49.2700005  77.1959991
  18.5049992  47.9020004  77.2099991  11.8030005  36.5120010  57.9840012
  12.0679998  36.5439987  56.9860001  12.3959999  37.1529999  58.3300018
  31.0270004  31.4610004  71.1269989  30.6170006  30.7980003  70.5520020
  30.3999996  32.2190018  70.9960022  16.3379993  49.3129997  70.7979965
  17.1060009  49.1599998  71.3840027  16.6800003  48.9609985  69.9369965
  21.4629993  41.8429985  70.6250000  22.1289997  41.4869995  70.0000000
  20.8799992  41.0209999  70.6569977   1.2390000  45.9129982  69.5520020
   0.6850000  46.1189995  70.3550034   2.0899999  46.2449989  69.8949966
   7.6589999  41.8559990  69.4120026   7.7240000  42.7840004  69.1579971
   8.1239996  41.8089981  70.2210007  72.1650009  12.9659996  20.3120003
  71.5940018  13.0010004  21.1340008  72.7689972  13.6680002  20.4640007
  22.0919991  49.7630005  67.9950027  21.9349995  48.9249992  68.4779968
  22.0650005  50.4070015  68.7330017  18.1310005  49.3930016  61.0260010
  18.7210007  49.3680000  61.7729988  17.2950001  49.6160011  61.4560013
  13.7440004  31.4720001  58.7039986  12.9460001  31.6280003  58.1370010
  13.4289999  31.8400002  59.5499992  11.6359997  46.9650002  74.0370026
  11.5430002  46.8260002  73.0869980  11.3230000  46.1790009  74.4729996
  17.0650005  36.2779999  72.6930008  17.9619999  36.0499992  72.4179993
  17.1949997  36.7439995  73.5169983   3.5050001  23.2830009  15.7749996
   4.1259999  23.9619999  15.9639997   3.3460000  22.8880005  16.6369991
  24.5669994  43.8489990  63.7890015  25.0170002  44.2140007  64.6320038
  24.4850006  42.9329987  64.0339966  19.3180008  46.7589989  70.9440002
  19.1720009  47.3489990  71.6569977  18.7709999  45.9939995  71.0830002
  17.9810009  52.7630005  66.7419968  17.2450008  53.0530014  67.2969971
  18.6949997  52.6860008  67.3639984  27.7660007  43.2910004  72.4789963
  27.1429996  42.6500015  72.0670013  27.1520004  44.0730019  72.4649963
  11.0990000  62.8590012  64.6660004  10.8360004  62.5740013  65.5820007
  11.9630003  63.2439995  64.9179993  23.6040001  54.9770012  78.4580002
  24.1469994  54.2200012  78.6230011  22.7189999  54.5620003  78.2760010
  31.5900002  78.2789993  12.3160000  32.5579987  78.0759964  12.0990000
  31.2220001  78.2789993  11.4230003   8.7519999  35.2960014  69.0839996
   8.3420000  34.3969994  69.1070023   8.5749998  35.5250015  70.0569992
  54.5250015  32.0649986  12.7939997  55.1710014  32.3919983  12.1099997
  55.1850014  31.9179993  13.5310001   6.8699999  45.1730003  69.3160019
   7.0809999  46.0559998  69.5749969   7.7259998  44.9070015  68.9879990
  20.8999996  57.1739998  77.3669968  21.1359997  56.8639984  76.4619980
  19.9150009  57.1739998  77.3150024  17.4869995  36.3009987  55.4000015
  16.6299992  36.4669991  55.8600006  17.8430004  35.6150017  56.0009995
   6.9770002  41.6969986  62.3180008   6.9439998  42.5779991  62.6110001
   6.0949998  41.3440018  62.5989990  25.4239998  51.5480003  77.3730011
  24.4300003  51.6769981  77.5260010  25.6569996  51.3269997  78.2440033
  12.0319996  44.8979988  63.7449989  11.9390001  45.8829994  63.6180000
  12.3800001  44.6829987  62.8720016  74.4219971  20.4179993  21.4379997
  75.3580017  20.5540009  21.6250000  74.4089966  19.4379997  21.6490002
  28.9279995  52.0600014  70.7649994  28.4880009  52.9049988  70.6470032
  29.5979996  52.2760010  71.4830017  24.7080002  50.0940018  67.3079987
  25.0009995  50.2900009  68.2620010  23.7469997  49.9090004  67.4960022
  20.2000008  41.7080002  73.3109970  20.6860008  41.9860001  72.5090027
  19.2959995  41.7989998  73.0199966  19.0629997  44.6339989  73.1569977
  19.0279999  43.9659996  73.8040009  18.6369991  45.4150009  73.4990005
  67.9430008  10.6309996  18.6630001  68.7860031  11.1320000  18.5860004
  67.4420013  11.2760000  19.2360001   9.6120005  37.2400017  60.4169998
   8.8030005  36.9220009  59.9309998  10.2989998  37.0900002  59.7529984
  41.9449997  82.0660019  18.6720009  41.1790009  82.7259979  18.7019997
  42.6290016  82.7570038  18.3090000   7.1269999  42.1489983  55.1069984
   7.2049999  41.5639992  54.3240013   7.2160001  41.5340004  55.8670006
  66.7409973   9.8570004  14.1529999  66.2939987   9.0629997  14.5799999
  66.0159988  10.1669998  13.6090002  18.9360008  64.1330032  67.9990005
  18.7989998  63.2500000  67.6660004  19.9430008  64.0950012  68.0699997
  23.5919991  51.0419998  59.0719986  24.1840000  51.1180000  59.8800011
  23.2169991  51.9589996  59.1800003  14.9499998  46.2799988  76.6070023
  14.7130003  47.0379982  77.1320038  14.5260000  45.5489998  77.2170029
  18.0000000  46.7809982  63.7579994  17.8670006  45.8790016  64.1090012
  17.3059998  46.7770004  63.0960007  19.0720005  44.9850006  80.6050034
  19.5650005  45.6329994  80.1119995  18.3740005  44.6809998  80.0299988
  47.8110008  67.1839981  11.7729998  47.1469994  66.4359970  11.7220001
  48.5330009  66.7160034  11.3120003  27.4249992  50.0099983  71.8420029
  28.0170002  50.6500015  71.3939972  27.9669991  49.1809998  71.8249969
  24.5869999  41.7449989  81.2470016  24.3419991  40.7739983  81.3649979
  24.0839996  42.1860008  81.9339981  12.1929998  41.7900009  62.2750015
  13.0880003  41.4949989  62.4449997  11.8109999  41.0989990  61.7540016
  12.7200003  38.9659996  72.3420029  12.4289999  38.2560005  71.6569977
  13.6680002  38.7809982  72.3420029   9.7919998  45.0120010  73.1819992
   8.9700003  45.5750008  73.0550003  10.3249998  45.4039993  72.4209976
  20.7759991  37.7350006  57.5979996  19.9790001  38.3009987  57.7900009
  20.4599991  36.8989983  57.9700012  22.6760006  37.4630013  59.7480011
  22.3959999  37.9860001  60.5279999  22.3770008  38.0260010  59.0309982
  15.6549997  42.8390007  79.4520035  14.9860001  42.8569984  80.2529984
  15.8780003  41.8950005  79.4459991  50.4869995  72.1259995  16.1369991
  50.7190018  73.0950012  16.0230007  51.3569984  71.7190018  16.5000000
  22.9360008  33.7599983  72.2789993  23.1580009  34.5620003  72.8059998
  22.7380009  34.1980019  71.4309998  23.1940002  45.4570007  81.6419983
  24.0170002  45.2039986  81.1360016  23.5669994  46.2799988  82.1449966
  13.8230000  43.3149986  67.4290009  13.5640001  43.1240005  68.3280029
  13.0649996  43.8829994  67.1880035  24.2999992  43.3600006  68.3470001
  25.0049992  42.8409996  67.8089981  23.6259995  42.6220016  68.2639999
  15.5830002  46.1790009  62.4780006  14.8970003  46.8689995  62.3120003
  15.0340004  45.3959999  62.1800003  29.3910007  49.7980003  85.0250015
  30.1959991  49.5859985  84.4540024  29.4750004  50.7949982  85.0169983
  14.4580002  51.4930000  71.9540024  14.1630001  50.7309990  71.3980026
  14.8090000  51.0400009  72.7040024  11.9359999  50.2010002  64.8769989
  11.6429996  49.3440018  65.2870026  12.8059998  50.2690010  65.4339981
  15.8280001  33.3149986  73.6719971  15.7880001  34.0369987  74.3639984
  15.9619999  32.5260010  74.2679977  39.7729988  71.5360031  12.2740002
  38.9029999  71.7779999  11.7810001  39.8680000  70.6340027  11.8540001
  29.9389992  60.5190010  72.7149963  29.4290009  61.1080017  72.1330032
  29.5769997  60.5730019  73.5790024  20.7070007  64.4000015  70.1920013
  20.0960007  63.6860008  70.4940033  21.5380001  63.8520012  70.0920029
  25.1329994  72.2649994  60.2830009  24.4880009  71.8389969  60.9099998
  25.7609997  72.6159973  60.9259987  12.8929996  59.6819992  68.6360016
  13.3830004  60.4640007  68.3099976  13.1879997  58.9309998  68.1179962
  26.9820004  69.7900009  68.2399979  27.4009991  70.6190033  67.8359985
  27.0949993  70.1009979  69.1829987  31.4279995  62.7579994  70.3209991
  31.3339996  61.8680000  69.9130020  32.1930008  63.1310005  69.7959976
  35.9249992  60.6679993  64.3190002  36.5460014  61.3720016  63.9860001
  36.5149994  60.2890015  65.0220032  33.2789993  57.5670013  75.5000000
  32.4879990  57.0359993  75.3700027  33.1010017  58.3590012  74.9349976
  24.6369991  53.0120010  70.2259979  25.4230003  52.5699997  69.9690018
  24.7819996  53.6599998  70.9110031  33.9179993  66.1620026  75.6149979
  33.3600006  66.7149963  75.0739975  34.3040009  65.5360031  74.9589996
  27.8610001  51.4329987  82.2509995  27.7180004  51.0130005  83.1129990
  26.9799995  51.7200012  81.9860001  20.9839993  51.0660019  65.7519989
  21.5300007  50.5320015  66.3750000  21.4050007  51.9510002  65.9499969
   3.0380001  28.3299999  18.0830002   3.1420000  27.5650005  17.4629993
   2.7340000  27.8299999  18.8659992  21.2730007  58.0110016  65.4280014
  22.0680008  58.5779991  65.6620026  21.7889996  57.1780014  65.4020004
  39.0149994  63.9669991  72.5139999  39.1170006  64.6640015  73.1819992
  39.4420013  64.3980026  71.7330017  20.4449997  49.0330009  74.9150009
  21.3260002  48.9780006  75.3980026  19.8169994  48.7869987  75.6129990
  20.4510002  67.5709991  69.7060013  21.0550003  67.6679993  70.4670029
  19.6000004  67.4250031  70.2020035  37.1930008  46.6469994  73.7249985
  36.4980011  47.2939987  73.7699966  37.1339989  46.2179985  74.6080017
  69.4619980  26.6989994   6.9239998  69.6350021  26.5100002   7.8740001
  69.7649994  25.8959999   6.4949999  40.0110016  67.3239975  70.0670013
  40.6209984  66.5940018  70.4150009  40.4140015  68.1050034  70.4199982
  25.8610001  62.0279999  69.2580032  26.2660007  61.1749992  69.5070038
  25.9960003  61.9729996  68.2870026  65.7480011  14.7779999  11.6359997
  65.1539993  15.2770004  12.1669998  65.1259995  14.0469999  11.4150000
  21.3710003  59.7019997  62.6539993  21.7189999  59.1920013  63.3849983
  20.5400009  59.1220016  62.4879990  22.0590000  43.0890007  66.6539993
  22.6790009  42.3750000  66.4530029  21.9249992  43.4539986  65.7689972
  41.0000000  57.9620018  69.0149994  41.7210007  58.4269981  68.4710007
  41.5909996  57.7130013  69.7679977  24.0580006  59.5789986  74.0459976
  24.7390003  60.2599983  73.8909988  24.5629997  58.7509995  73.8290024
  32.3709984  61.7989998  63.4959984  32.6860008  61.7960014  64.4580002
  33.1360016  61.5649986  63.0029984  22.9769993  49.4480019  63.6839981
  22.8320007  48.9049988  62.8870010  22.1420002  49.3899994  64.1110001
   5.9260001  24.8570004  15.4329996   5.1950002  25.2539997  14.9160004
   6.2700000  24.2779999  14.7530003   4.2300000   9.2200003  24.7520008
   5.0679998   9.5810003  25.0620003   3.8720000   9.9989996  24.2549992
  14.8450003  56.4539986  71.3310013  15.1239996  56.1370010  72.2259979
  14.2650003  55.6839981  71.0830002  32.4280014  62.4140015  72.9759979
  32.2830009  63.1819992  72.4020004  31.4939995  62.0709991  72.9820023
  18.6070004  54.2410011  71.0660019  18.2989998  54.7630005  70.2910004
  19.1399994  54.9440002  71.5210037  26.1930008  56.5019989  79.8359985
  25.4430008  56.9630013  79.4089966  26.3290005  56.9640007  80.6419983
  28.5109997  66.2119980  68.0019989  29.0709991  66.5350037  68.7340012
  28.6539993  66.9160004  67.3300018  22.7670002  62.5740013  70.6999969
  22.7840004  61.9770012  71.4369965  22.1119995  62.0830002  70.0940018
  28.4740009  60.8429985  75.3830032  28.4139996  61.4710007  76.1699982
  28.8220005  60.0890007  75.9039993  24.9540005  51.0369987  64.4850006
  24.8950005  50.6819992  65.3820038  24.2619991  50.5489998  63.9980011
  33.0750008  61.6469994  75.9359970  33.2029991  61.4920006  76.8909988
  32.4949989  62.4129982  75.9219971   2.3659999  44.6430016  18.3869991
   3.0690000  44.2589989  18.9899998   1.8680000  43.8040009  18.2709999
  35.8800011  57.9119987  68.0520020  36.7779999  58.3330002  68.2109985
  36.0079994  57.1020012  68.6240005   3.3959999  38.8660011  13.7910004
   4.0110002  39.1749992  13.0579996   2.5439999  39.1679993  13.3970003
  32.3260002  57.3919983  80.6669998  31.5760002  57.1030006  81.2310028
  31.8950005  57.6250000  79.8629990  67.6340027  22.2320004   9.3660002
  68.0859985  22.4270000  10.2060003  66.9410019  22.9130001   9.3000002
  28.8999996  53.3479996  66.3470001  29.6720009  53.3969994  65.7229996
  28.3120003  52.7270012  65.8509979  19.2320004  60.3940010  67.3550034
  18.9230003  59.7060013  66.7369995  19.6089993  61.0489998  66.6709976
   0.6530000  32.5439987  15.4840002   0.6940000  31.5529995  15.4960003
   0.7720000  32.7599983  14.5579996  79.5380020  35.8069992  14.3479996
  80.2109985  35.2379990  13.9569998  78.8570023  35.1619987  14.5860004
  14.0050001  48.6399994  73.7099991  14.4209995  48.7519989  74.5920029
  13.3409996  48.0480003  73.8219986  78.4430008  24.5489998  20.7639999
  78.5719986  25.4190006  21.3090000  78.0260010  24.9179993  19.9899998
  32.9980011  57.9570007  68.4440002  33.1139984  58.2649994  69.3980026
  33.9770012  57.8079987  68.2639999  28.5119991  59.8199997  62.5410004
  27.8680000  60.2490005  63.1409988  28.4200001  58.8940010  62.7229996
  34.1030006  51.7330017  83.3690033  34.0089989  52.1090012  82.4789963
  34.4879990  50.8250008  83.0780029   7.5120001  29.4090004  17.4699993
   7.1139998  30.0960007  16.9750004   7.3449998  28.6130009  16.8869991
  24.7310009  71.7379990  62.9910011  24.7460003  71.6190033  64.0049973
  25.5860004  72.2170029  62.9469986  30.4130001  57.9339981  72.0370026
  29.8449993  57.7140007  72.7770004  30.2740002  58.9500008  72.0650024
  25.8939991  57.6489983  75.6579971  26.4480000  57.2970009  76.3479996
  25.1509991  57.0639992  75.6070023  27.2189999  58.7220001  58.2910004
  27.7099991  58.2579994  57.5769997  26.9050007  57.9869995  58.7970009
  26.0610008  54.2960014  74.9940033  25.7080002  53.4560013  75.2649994
  25.3689995  54.9179993  75.2779999  37.1710014  66.9940033  69.8059998
  37.5000000  66.0920029  69.6679993  38.0530014  67.4609985  69.8690033
  14.0950003  36.1599998  21.7830009  14.5200005  36.0299988  20.9150009
  13.1520004  36.0940018  21.5510006  18.8460007  62.6829987  71.2419968
  18.3080006  61.9550018  70.8710022  19.0179996  62.2639999  72.1370010
  15.2889996  57.0270004  68.8079987  16.1669998  57.5040016  68.7470016
  15.1650000  57.0800018  69.8089981  23.3479996  56.2840004  65.8050003
  23.9659996  56.2659988  65.0350037  23.7619991  55.6240005  66.3929977
  21.3190002  47.0680008  69.3669968  21.5459995  46.1230011  69.2990036
  20.6369991  47.0439987  70.1019974  76.4039993  14.3470001  21.9370003
  76.5370026  15.2860003  21.9069996  77.2639999  14.0080004  21.5389996
  15.1029997  45.7789993  66.2360001  14.2100000  45.5699997  66.6449966
  15.0190001  46.7410011  66.1449966  30.0459995  57.3089981  65.4270020
  30.5149994  58.1380005  65.1869965  29.1739998  57.4729996  65.0120010
   4.5760002  40.0810013  11.6309996   3.9749999  40.5960007  11.0660000
   5.3699999  39.9739990  11.1009998  71.5630035  23.1830006  11.2539997
  72.0210037  22.4939995  10.7399998  72.2829971  23.7159996  11.5900002
  36.9309998  64.7659988  63.7360001  36.0299988  65.1129990  63.6850014
  37.0180016  64.7490005  64.7720032  28.1620007  65.3700027  71.1029968
  29.0680008  65.2590027  71.4499969  28.2439995  66.3280029  70.8119965
  15.4110003  46.9490013  72.1689987  14.7690001  47.6510010  72.3850021
  16.2099991  47.3530006  72.5289993  32.0760002  63.7430000  66.6460037
  32.8289986  63.2050018  66.4690018  31.2560005  63.3069992  66.4059982
  27.2490005  70.0670013  70.9449997  26.6889992  69.2779999  70.9209976
  28.0990009  69.7450027  71.3970032  35.7799988  68.4889984  67.7979965
  36.5289993  68.2919998  67.1080017  35.9459991  67.6529999  68.2829971
  69.8320007  24.4869995   9.0530005  69.6210022  25.4279995   9.3470001
  70.4169998  24.2199993   9.7559996   0.6510000  25.0809994  17.1240005
  -0.1970000  24.6910000  17.4939995   0.5560000  24.7049999  16.2070007
  71.9319992  29.8330002   7.1630001  71.1829987  29.4580002   6.6880002
  71.6449966  30.7900009   7.1789999  25.5510006  54.6749992  72.1790009
  25.6060009  54.4410019  73.1330032  25.1690006  55.5699997  72.1770020
  20.8579998  44.9720001  83.3320007  20.7390003  45.6389999  84.0640030
  21.4389992  45.4910011  82.7050018  77.1399994  28.3570004  18.5400009
  77.9140015  27.7530003  18.4629993  76.7040024  27.9179993  19.2679996
  24.7129993  57.4630013  72.4850006  24.0939999  57.3120003  71.7180023
  25.4829998  57.7849998  71.9759979  35.5660019  47.1780014  76.0670013
  34.7190018  46.6230011  75.8629990  35.1240005  48.0519981  76.0130005
  11.6780005  37.4290009   9.1330004  10.8090000  37.1300011   9.4180002
  12.1219997  36.5800018   8.9510002  33.4850006  67.9469986  63.2750015
  33.8849983  68.3590012  64.1449966  32.5419998  68.0029984  63.6380005
  28.2269993  57.2260017  63.3460007  29.0779991  57.0999985  62.9220009
  27.7320004  56.4160004  63.0009995  23.8490009  48.6769981  70.8519974
  23.6989994  48.0349998  70.1360016  23.0009995  48.5929985  71.3960037
  26.7870007  61.3829994  64.1539993  26.5739994  61.8120003  65.0039978
  25.9610004  61.0159988  63.8860016  36.0480003  54.0139999  68.0719986
  36.2960014  53.5820007  67.1760025  35.0540009  54.1049995  67.9260025
  28.7689991  64.6210022  77.1190033  29.0149994  65.0739975  76.2850037
  27.7999992  64.4130020  76.9779968  23.2150002  40.7480011  68.9739990
  23.1399994  40.3520012  68.1250000  23.8600006  40.2540016  69.4479980
  27.7329998  60.2449989  69.0589981  27.7010002  60.0909996  68.0960007
  28.6840000  60.1370010  69.2170029  23.3029995  59.5769997  65.8820038
  24.2049999  59.3419991  65.5179977  23.4790001  59.4309998  66.8450012
  28.7010002  53.3219986  80.4110031  28.5270004  52.5589981  81.0159988
  28.9169998  54.0089989  81.0889969  23.9090004  50.2270012  81.0210037
  23.0769997  49.8180008  80.6370010  24.5100002  50.1150017  80.2699966
  11.5730000  18.3120003  23.6040001  10.8380003  17.7959995  23.1700001
  11.4080000  19.2150002  23.2590008   8.8889999  34.9529991   7.6120000
   9.3680000  35.6549988   7.0790000   9.1569996  35.2449989   8.5000000
  34.5629997  58.4490013  78.0410004  34.6170006  57.6619987  78.6869965
  34.2849998  57.9370003  77.2529984  39.4640007  56.3810005  72.2109985
  40.2980003  56.7859993  72.4879990  39.7490005  55.8479996  71.4479980
  31.9969997  50.3349991  73.4779968  32.7019997  50.7369995  74.0309982
  31.5370007  51.1570015  73.1579971  30.5130005  52.4350014  73.0049973
  29.9619999  52.9370003  73.6610031  31.0030003  53.2109985  72.5899963
  27.5629997  51.6839981  64.5240021  27.2849998  52.3230019  63.7840004
  26.6459999  51.2849998  64.6029968  21.7180004  48.3040009  72.5410004
  21.3899994  48.5929985  73.4339981  21.0189991  48.7220001  72.0110016
  22.2490005  57.5950012  70.7180023  21.3549995  57.5130005  71.1289978
  22.2500000  56.9550018  70.0390015  30.5070000  72.3379974  68.7740021
  29.8509998  72.6210022  68.1149979  30.9319992  73.1699982  68.9700012
  29.1580009  70.8109970  74.8190002  29.5109997  71.5449982  75.3629990
  29.8750000  70.6910019  74.1709976  28.4699993  75.5800018  68.4140015
  27.8980007  74.8539963  68.2119980  28.5879993  75.5930023  69.3399963
  40.3930016  61.7570000  73.1039963  39.7919998  62.4589996  73.0339966
  39.9900017  61.0139999  73.5749969  32.6910019  70.1549988  70.6039963
  32.4659996  69.6839981  69.7679977  31.7630005  70.2210007  71.0039978
  47.5600014   3.2179999  56.4889984  47.5660019   2.5100000  57.2280006
  46.7779999   3.7210000  56.8440018  26.5750008  63.2470016  62.1479988
  26.0900002  62.8069992  61.4379997  26.9060001  62.4889984  62.7029991
  23.1140003  64.7819977  65.9240036  23.0779991  63.8230019  65.6330032
  23.6860008  65.0830002  65.1829987  31.2150002  68.8590012  64.6770020
  31.0349998  69.0380020  65.6269989  31.2080002  69.7969971  64.3470001
   1.7530000  37.8660011  10.8559999   1.7730000  38.3590012  11.6739998
   2.6229999  37.3709984  10.8299999   7.4689999  30.8059998  14.7040005
   7.9419999  31.1089993  13.9219999   7.0190001  31.6830006  14.9090004
  18.1380005  69.6179962  56.9379997  18.9449997  70.1640015  56.8269997
  18.1280003  69.1139984  56.1549988  33.5639992  64.6770020  70.4489975
  34.3440018  64.1039963  70.3369980  34.0779991  65.4860001  70.7570038
  34.2960014  75.6259995  69.4240036  34.4109993  74.9199982  68.7460022
  33.3779984  75.5029984  69.6380005  41.2350006  65.0640030  71.3119965
  41.7849998  64.2639999  70.9649963  41.9440002  65.5429993  71.7860031
  37.8409996  58.6160011  71.5810013  38.0940018  57.7220001  71.9639969
  38.7849998  58.9599991  71.5390015  32.7260017  65.8840027  68.1330032
  32.5279999  65.0920029  67.6129990  33.1259995  65.3820038  68.9420013
  40.8790016  70.0930023  67.3669968  41.4300003  70.2320023  66.5120010
  40.0680008  70.5849991  67.0250015  10.3509998   9.0679998  53.8219986
  10.9239998   8.2559996  53.8989983  10.8140001   9.5570002  53.1539993
   6.9600000  16.9480000  44.1110001   6.0710001  17.2089996  43.7019997
   7.4250002  16.8829994  43.2080002  15.9040003  12.9610004  60.2000008
  16.8419991  12.9799995  60.3909988  15.5950003  13.1099997  61.1250000
  42.2389984  81.5350037  55.8759995  42.5410004  80.7020035  56.3129997
  41.4220009  81.7320023  56.4179993   4.4349999  16.6580009  47.5000000
   4.9600000  15.9969997  47.1010017   4.8309999  17.4869995  47.2690010
  72.9219971   9.4130001  47.4760017  72.3310013   9.9600000  48.0460014
  73.1729965   8.6870003  48.1329994  19.6250000  22.5660000  57.2120018
  20.2479992  23.0100002  57.7869987  18.9090004  23.2220001  57.1739998
   4.1040001  15.4659996  57.3199997   5.1199999  15.5100002  57.2169991
   4.0409999  15.4510002  58.2849998  10.8240004   9.4840002  58.7519989
  11.2519999   8.6409998  58.6380005  11.5649996  10.0920000  58.3820000
  13.5939999  22.7719994  57.7060013  13.0679998  23.4020004  57.2239990
  13.0139999  21.9659996  57.7830009  31.3780003  40.8180008   0.9910000
  32.2070007  40.4000015   0.6960000  31.7049999  41.3139992   1.8140000
   3.2539999  14.4680004  44.7449989   4.2030001  14.6890001  44.7070007
   2.8490000  15.2049999  44.3030014   3.3469999   9.3470001  42.0620003
   3.3020000  10.3360004  42.1850014   3.7349999   9.0579996  42.8590012
   3.0409999  16.4279995  53.5309982   2.4489999  17.1749992  53.8440018
   2.7760000  15.7430000  54.2070007   0.1480000  14.0150003  43.7589989
  -0.0360000  13.4770002  42.9329987   0.3140000  13.2840004  44.3810005
  20.4209995  21.9559994  43.4560013  20.6439991  21.0970001  43.7280006
  20.0949993  22.3180008  44.3600006   5.7389998  14.2360001  53.5499992
   6.1970000  13.9560003  54.4029999   5.5760002  15.1910000  53.8349991
  17.7900009  16.4069996  61.1360016  18.4860001  15.9790001  60.5800018
  18.2439995  17.3029995  61.1030006  50.2280006  82.8509979  50.4949989
  49.3110008  82.9430008  50.1590004  50.0470009  83.0660019  51.4420013
  24.1019993  24.3190002  48.6250000  24.0839996  23.5030003  48.1199989
  23.2689991  24.7310009  48.4080009  23.1569996  27.9449997  69.0009995
  22.6210003  28.6800003  69.4110031  22.6299992  27.1679993  69.3000031
  24.2819996  16.9699993  51.1699982  24.1700001  16.0809994  51.5730019
  23.3419991  17.2579994  51.2589989  41.1069984  61.4980011   4.5270000
  41.4840012  62.2900009   4.0619998  41.5600014  60.7879982   3.9890001
   6.8099999  24.0769997  51.4900017   6.6370001  24.2789993  52.4039993
   6.8860002  23.0970001  51.4710007  32.7900009  67.0000000  16.1560001
  32.0569992  67.4189987  16.6389999  33.3619995  67.8470001  16.1709995
   8.8970003  18.6849995  50.3440018   8.3640003  18.3439999  51.1020012
   8.3529997  18.3439999  49.6110001  22.4300003  22.3829994  69.4550018
  22.6849995  23.2840004  69.7119980  22.0860004  22.0370007  70.3059998
  24.3250008  16.9069996  54.5219994  23.7980003  16.3700008  53.8740005
  25.1819992  16.5160007  54.4589996  24.3040009  21.3719997  57.6409988
  23.5470009  21.0730000  58.1619987  24.3729992  20.6599998  56.9550018
  21.4239998  18.3939991  56.5340004  20.6030006  18.7189999  57.0260010
  21.9559994  18.0109997  57.2579994  15.9440002  26.7989998  57.6129990
  15.0000000  26.5219994  57.5359993  15.9230003  27.4839993  58.2639999
  28.3390007  48.7989998  -4.5890002  28.5219994  49.1899986  -3.7070000
  29.1380005  49.0099983  -5.0590000  55.9480019  47.5810013   4.9050002
  55.1040001  47.7169991   5.3600001  56.0919991  46.6150017   5.0359998
  34.5359993  43.0349998  -6.7389998  34.0779991  42.3899994  -7.3490000
  35.2239990  43.3860016  -7.3189998  39.5169983  59.0499992   7.6680002
  40.0589981  58.3629990   7.1799998  39.3110008  59.6739998   6.9660001
  17.6009998  29.9309998  60.1440010  17.0100002  29.8880005  59.3860016
  18.3799992  29.4559994  59.8930016  29.6739998  26.8889999  71.2699966
  29.9580002  26.5590000  72.1750031  28.9370003  27.4820004  71.5579987
  14.3000002  22.3220005  61.9519997  13.3640003  22.3239994  62.1660004
  14.6260004  23.0189991  62.5509987  15.6990004  34.3839989  71.0550003
  16.0459995  35.1040001  71.6240005  15.2670002  33.8419991  71.7829971
   8.1599998  11.5990000  50.5260010   9.0220003  11.1709995  50.2709999
   8.2320004  11.4080000  51.5250015   7.6529999  31.9629993  47.3759995
   6.9060001  31.2970009  47.1419983   8.4250002  31.3680000  47.1990013
  14.1149998  22.0739994  51.5830002  13.8669996  21.1959991  52.0550003
  14.1440001  22.6410007  52.3600006  16.8600006  20.1159992  51.9729996
  16.7570000  19.2880001  52.4259987  16.4500008  20.7520008  52.6010017
  21.2730007  25.9850006  70.1340027  22.1900005  25.6819992  70.3769989
  20.9570007  26.4080009  70.9720001  11.1639996  29.3129997  70.3539963
  10.9169998  28.8129997  69.6119995  11.2329998  30.2390003  69.9649963
  27.5739994  20.5400009  65.8710022  27.2570000  20.7019997  64.9039993
  28.5039997  20.4629993  65.7829971   5.2259998  30.6930008  53.9399986
   5.5370002  30.8640003  53.0190010   4.5370002  31.3640003  54.0320015
   9.1400003  20.3129997  60.0180016   9.7500000  21.1369991  59.9990005
   9.0649996  20.2049999  59.0540009  17.2360001  44.3069992  51.2599983
  17.3649998  44.9539986  50.5390015  16.4549999  43.7849998  50.9420013
  75.2470016  31.7770004  64.7470016  75.6890030  32.2280006  65.5029984
  75.1849976  30.8740005  65.0780029  32.8170013  61.8489990   7.1240001
  33.5169983  61.5960007   6.4780002  32.8310013  62.7929993   6.9949999
  30.2530003  66.3259964   3.6650000  29.5520000  65.8259964   3.1819999
  30.7649994  65.5640030   4.0200000   6.0939999  11.7089996  48.9819984
   6.7649999  11.6669998  49.7200012   6.6469998  12.1199999  48.2570000
  19.9349995  24.8700008  62.8250008  19.7740002  25.3239994  61.9860001
  19.0440006  24.9419994  63.2439995  20.9909992  23.2959995  59.4090004
  21.0340004  24.1420002  59.0209999  21.9799995  23.0319996  59.3639984
   7.4499998  32.6399994  60.5299988   7.1079998  33.3829994  61.0880013
   6.8449998  31.9050007  60.7340012   8.3230000  10.4890003  58.4819984
   9.2810001  10.1619997  58.4620018   8.0260000   9.8850002  59.1850014
   3.3299999  31.2329998  60.0180016   3.0009999  32.0579987  60.3180008
   3.7690001  30.8500004  60.8110008   5.2839999  22.2859993  60.6669998
   4.3550000  22.0119991  60.8209991   5.8330002  21.5410004  60.9059982
  20.0219994  31.2810001  45.2690010  19.7380009  30.6250000  45.9440002
  19.3369999  31.1580009  44.6150017  13.7849998  43.2939987  52.9630013
  13.8079996  44.1370010  53.4379997  14.2589998  42.7509995  53.6650009
  32.3619995  49.8479996  -0.9360000  31.9820004  49.5530014  -0.0730000
  33.2729988  49.6059990  -0.7960000  20.0130005  18.2719994  64.7060013
  19.7560005  17.3519993  64.9120026  19.8670006  18.6429996  65.6009979
  13.5159998  24.0470009  48.8019981  12.8839998  24.5130005  49.3870010
  13.9560003  24.8500004  48.4230003  37.1609993  52.7690010   8.5100002
  38.0330009  53.0070000   8.8520002  36.6230011  53.5419998   8.8269997
  12.3690004  11.3809996  55.6220016  11.6669998  11.1809998  54.9760017
  12.9899998  10.6709995  55.3720016  15.4029999  26.6730003  63.4949989
  15.5430002  26.9880009  62.5139999  14.5120001  26.9340000  63.5740013
  74.1389999  22.2049999  51.1459999  74.5970001  21.7609997  51.8769989
  73.7080002  21.4279995  50.7099991  20.9239998  35.9790001  63.8450012
  20.1529999  35.3670006  63.8730011  21.4430008  35.5849991  63.1180000
  27.5270004  58.9550018   4.7890000  27.2919998  59.0270004   5.7440000
  28.3610001  59.4850006   4.6970000  10.2919998  22.5779991  59.9529991
  10.7659998  22.5440006  59.1360016   9.7609997  23.3780003  59.8429985
  17.8419991  28.1970005  56.1650009  17.1490002  27.6660004  56.5200005
  18.5419998  27.5529995  56.0139999  32.5070000  55.8969994  -0.3380000
  32.1129990  56.3969994  -1.0880001  32.3460007  56.5390015   0.4210000
   5.4619999   8.8929996  51.4360008   5.0710001   9.8160000  51.4879990
   5.1339998   8.5880003  52.3499985  15.2270002  16.6340008  61.9930000
  16.1959991  16.6000004  61.8040009  15.2779999  16.9969997  62.9010010
  14.9670000  34.0610008  55.2799988  14.2349997  34.5769997  54.9090004
  15.2760000  34.6570015  55.9770012  12.0740004  21.5489998  49.4599991
  11.1929998  21.5459995  49.7949982  12.4150000  22.4230003  49.6800003
  41.2550011  70.0410004  19.4099998  41.6139984  69.1630020  19.7259998
  41.1570015  69.8460007  18.4799995  11.3529997  25.8500004  56.2649994
  12.1330004  26.2049999  56.7150002  10.7130003  26.6450005  56.4669991
  14.9020004  34.4970016  50.7739983  15.0170002  34.0159988  49.9309998
  14.6780005  35.3860016  50.3479996  36.8590012  66.3140030   9.6770000
  36.3110008  66.0749969   8.8669996  36.8160019  65.4570007  10.1269999
  18.2549992  42.5299988  56.0120010  18.3519993  43.0279999  55.1590004
  18.1049995  41.6139984  55.5960007  16.5720005  14.8750000  45.0820007
  15.8629999  14.4309998  44.6310005  16.3080006  14.8459997  46.0349998
  18.5879993  30.0319996  67.8880005  19.4720001  30.4689999  67.7699966
  18.0790005  30.5680008  67.2360001  38.9679985  53.1759987  -1.0110000
  38.4029999  54.0379982  -1.0060000  39.2519989  53.2799988  -1.9800000
   1.9490000  26.5779991  57.1160011   1.3320000  26.4710007  57.8359985
   1.6830000  27.4559994  56.7459984   9.0209999  31.1639996  50.3909988
   8.8820000  31.6959991  49.5849991   9.6619997  30.5020008  50.0060005
  27.3320007  17.8269997  62.7700005  28.0690002  17.9260006  62.1430016
  27.0960007  16.9120007  62.5909996  12.4429998  19.4200001  61.0029984
  12.7159996  19.8290005  61.8860016  11.6420002  18.9640007  61.3829994
  36.4510002  63.1609993  11.6059999  35.6809998  63.0130005  12.2320004
  37.1599998  63.1059990  12.3339996  23.7670002  66.0640030   7.8179998
  24.3080006  65.9690018   8.6140003  24.0319996  66.9039993   7.4759998
  17.8040009  27.5869999  66.6510010  17.9990005  28.4009991  67.1880035
  17.8680000  26.9109993  67.3150024  20.9060001  31.2880001  66.7590027
  21.5610008  31.7660007  67.2320023  20.4279995  32.0559998  66.3160019
  20.3279991  25.7560005  50.3950005  21.0419998  25.1779995  50.7680016
  19.5750008  25.4740009  50.9990005   4.9930000  26.6790009  64.8270035
   4.2119999  26.1240005  64.9670029   4.8350000  26.8799992  63.8559990
  15.0590000  41.4659996  54.6850014  15.9659996  41.1590004  54.8289986
  14.6479998  40.6360016  54.4039993  30.1900005  72.0920029   5.8360000
  29.5450001  71.3529968   5.8880000  29.5009995  72.8050003   6.0590000
  10.9300003  13.8739996  58.2080002  11.5590000  14.6680002  58.3370018
  11.5179996  13.1389999  58.2519989   8.9709997  24.9260006  59.9620018
   8.9619999  25.8339996  59.5180016   8.1409998  24.9599991  60.3950005
   9.1260004  21.4330006  50.3779984   9.1320000  20.4769993  50.4879990
   8.8549995  21.7070007  51.3019981  20.5739994  19.9699993  62.8730011
  19.9890003  20.6889992  63.1930008  20.3740005  19.2910004  63.5639992
  29.4300003  62.3330002   2.3280001  29.1879997  63.2560005   2.2560000
  30.3649998  62.3199997   2.3050001  33.1769981  53.3230019  -0.1150000
  34.0830002  53.3629990   0.3410000  33.1450005  54.2690010  -0.3900000
  47.6430016  44.1240005   2.6210001  47.9389992  43.4010010   2.0390000
  48.4510002  44.6889992   2.6229999  23.7549992  26.5480003  66.5729980
  23.8010006  27.0359993  67.4410019  24.0370007  25.6569996  66.8779984
  19.7189999  17.2070007  52.2270012  19.6580009  16.6259995  51.3769989
  20.5100002  17.7019997  51.9459991   6.9310002  34.6240005  62.4449997
   7.8369999  34.5699997  62.8580017   6.4800000  34.7140007  63.3790016
  11.3350000  32.6189995  58.1100006  11.2419996  33.4770012  57.6310005
  11.6529999  32.9609985  58.9640007  10.9209995  28.7849998  62.5530014
  10.7189999  27.8789997  62.2360001  11.8940001  28.7240009  62.6020012
   4.2340002  37.0239983  58.4869995   4.4710002  36.4459991  59.2340012
   5.0949998  37.0979996  58.0400009  10.2729998  24.2409992  53.2929993
   9.7980003  23.6410007  52.6990013  10.7609997  23.5939999  53.8320007
  15.0159998  29.1499996  58.9189987  14.6549997  30.0330009  58.9550018
  14.7629995  28.8729992  59.8470001  15.2690001  29.2639999  72.1900024
  14.7849998  28.7269993  71.5159988  15.6879997  29.9510002  71.5780029
  15.7849998  31.6210003  54.9430008  15.5190001  32.5320015  55.1650009
  15.7349997  31.6849995  53.9620018  45.9230003  61.2010002  13.1590004
  46.0950012  60.6879997  13.9940004  46.0019989  60.5330009  12.4659996
  23.9969997  24.8840008  70.6640015  24.7730007  24.2639999  70.6890030
  23.8859997  25.0230007  71.6569977   8.3500004  21.6369991  52.8269997
   7.4970002  21.5669994  53.2039986   8.9060001  21.1989994  53.4930000
  13.3000002  26.3260002  58.0730019  12.7200003  26.9319992  58.6370010
  13.6429996  25.7299995  58.7700005  10.3470001  31.8430004  45.3269997
  11.0019999  31.5499992  44.7190018   9.5430002  31.9179993  44.8019981
  43.4480019  55.4710007   4.0609999  43.6370010  55.7840004   3.1830001
  43.7760010  54.5279999   3.9419999  15.6870003  29.3299999  65.4219971
  15.2279997  29.2469997  66.3239975  16.2070007  28.4860001  65.4110031
  27.1380005  16.2439995  55.8670006  28.0419998  16.0039997  55.6199989
  26.6980000  15.4080000  55.4980011  50.5579987  50.0330009   4.0840001
  50.0369987  50.7739983   4.4899998  50.4920006  49.4259987   4.8410001
  47.3530006  41.8419991  -2.8690000  47.5169983  42.2360001  -1.9760000
  47.4249992  40.8569984  -2.6760001  34.7700005  11.1650000  60.8740005
  34.8450012  10.4659996  61.5270004  33.7919998  11.4099998  60.9370003
  41.6629982  46.7659988   6.5840001  42.1559982  45.9790001   6.9770002
  41.8240013  47.4129982   7.3499999  12.6599998  14.5310001  54.1879997
  11.7550001  14.2790003  54.5299988  12.3859997  15.1059999  53.4550018
  26.6040001  28.5979996  66.2860031  26.9990005  27.7070007  66.1660004
  27.4169998  29.1809998  66.0530014   6.8540001  17.5669994  51.9430008
   6.4219999  17.3969994  52.8289986   7.0840001  16.6809998  51.6749992
  23.7029991  18.7929993  44.6619987  23.9829998  17.9890003  44.2500000
  23.7759991  18.5709991  45.6230011  37.2169991  41.0009995   2.7090001
  36.8979988  40.0859985   2.7200000  36.7210007  41.3300018   1.9240000
  46.8899994  39.4199982  -1.8190000  47.5639992  38.7389984  -2.0510001
  46.1049995  38.8810005  -1.7050000  12.7869997  27.9529991  50.9480019
  12.1969995  27.6130009  50.2400017  12.4130001  27.3759995  51.6980019
  24.5009995  13.6289997  58.6520004  24.6630001  12.7449999  58.2620010
  23.5030003  13.5749998  58.6290016  18.3889999  24.9370003  60.4290009
  18.1439991  24.8260002  59.4710007  18.6189995  23.9559994  60.5970001
  53.0419998  49.1580009   3.5599999  52.2200012  49.6320000   3.7560000
  52.7039986  48.3759995   3.0860000  18.0380001  37.0379982  59.5890007
  18.7460003  36.4160004  59.8660011  18.0639992  37.7869987  60.2019997
   6.3140001  24.8820000  61.0719986   5.3880000  25.1760006  60.8559990
   6.0730000  23.8840008  61.0789986   5.8639998  27.9440002  57.6850014
   5.1380000  28.4410000  57.1049995   6.6170001  28.1000004  57.0859985
  15.7360001  15.5550003  51.8790016  16.0680008  16.2129993  51.1559982
  14.7910004  15.8800001  51.8800011  42.9119987  61.8720016  13.6219997
  43.8590012  61.8520012  13.3520002  42.8269997  60.9970016  14.0310001
  18.4279995  34.5340004  57.2449989  18.3160000  34.8680000  58.1769981
  17.8150005  33.7280006  57.2890015  56.1689987  84.0559998  47.4720001
  55.7439995  83.5169983  48.1599998  56.3359985  84.8310013  48.0730019
  22.1070004  42.9099998  60.6349983  22.0540009  43.4020004  59.7490005
  22.4629993  43.6450005  61.1940002  16.5699997  35.5340004  65.7659988
  15.6850004  35.2229996  65.4420013  16.9769993  35.8180008  64.9440002
  19.4360008  53.1990013  60.7029991  18.6739998  52.6360016  60.8950005
  19.7070007  52.8180008  59.8470001  24.3780003  37.4469986  54.3849983
  23.6940002  37.3149986  55.0789986  25.2140007  37.5439987  54.9770012
  17.3689995  55.2779999  74.0199966  16.6830006  55.1119995  73.3720016
  18.0300007  55.7630005  73.4929962  14.1429996  45.4189987  55.1699982
  14.5200005  45.5349998  54.2249985  13.4099998  46.0970001  55.0169983
  12.3109999  32.6349983  60.7949982  11.7799997  32.1930008  61.4830017
  12.9600000  33.0489998  61.4210014  25.8150005  30.1599998  72.9229965
  25.4480000  30.1450005  73.7969971  25.0909996  30.4960003  72.3850021
  26.8929996  34.2999992  69.9749985  26.7870007  33.3820000  69.7080002
  26.3600006  34.8100014  69.3710022  20.0079994  37.6759987  77.5559998
  20.0489998  36.7400017  77.7129974  20.9440002  37.8660011  77.2829971
  22.1259995  35.4300003  61.3979988  22.3509998  36.1899986  60.7910004
  23.0289993  35.0019989  61.3810005  18.8409996  39.0960007  61.3289986
  18.4179993  38.8899994  62.2169991  18.4629993  39.9780006  61.1339989
  17.6270008  39.5180016  66.4329987  16.8430004  40.0859985  66.4929962
  17.6189995  39.0079994  67.1729965  12.8950005  34.5239983  73.1999969
  13.8100004  34.4459991  73.5049973  12.4350004  34.6980019  74.0619965
  23.0739994  37.1489983  56.6010017  23.3859997  36.5740013  57.3370018
  22.1180000  37.3380013  56.8720016  16.7959995  49.6930008  54.6959991
  17.1119995  49.3139992  53.8540001  15.8149996  49.4720001  54.5940018
  50.0670013  66.6600037  17.2089996  49.9589996  66.5479965  16.2369995
  51.0460014  66.8619995  17.2350006  21.8519993  45.1559982  72.4130020
  21.8029995  46.1150017  72.4160004  20.8990002  44.9109993  72.4840012
  17.4449997  44.0649986  69.5370026  16.5160007  43.8510017  69.1220016
  17.4720001  43.3479996  70.1250000  25.1739998  47.9430008  73.3119965
  24.7660007  48.2709999  72.4420013  25.3750000  48.8680000  73.6169968
  39.8889999  77.8730011  18.3220005  40.6160011  77.2330017  18.0499992
  40.1539993  78.0400009  19.2140007  38.5169983  24.8680000  70.7229996
  37.8499985  24.5559998  71.3539963  38.2639999  25.7670002  70.6500015
  19.2350006  46.6349983  60.8400002  18.6819992  47.3769989  61.0839996
  19.5550003  46.9529991  59.9529991  15.9449997  45.7190018  57.2220001
  15.1940002  45.5040016  56.6549988  16.6229992  45.9920006  56.5359993
  16.8789997  54.3180008  58.5719986  16.5930004  53.3769989  58.5449982
  16.0440006  54.7560005  58.7140007  22.8509998  35.4920006  53.1199989
  23.3920002  36.2540016  53.3619995  22.7810001  35.0359993  53.9790001
  13.8529997  29.2759991  63.6209984  14.2989998  29.7849998  62.8569984
  14.5450001  29.4020004  64.2850037   7.9840002  30.9309998  68.8069992
   8.8610001  31.4109993  68.9240036   8.2010002  30.5660000  67.8669968
  27.8770008  47.2989998  67.7770004  28.5750008  46.8139992  68.2379990
  27.2819996  47.5929985  68.4749985  24.2299995  33.3269997  67.3880005
  23.2800007  33.4410019  67.1200027  24.4179993  34.2529984  67.6589966
  33.9760017  49.5270004  76.1750031  33.7299995  50.2490005  75.5240021
  33.3750000  49.6640015  76.9140015  16.6019993  30.3689995  70.2300034
  16.9519997  30.4349995  69.3560028  17.4209995  30.0139999  70.7379990
  13.8690004  48.9449997  76.5630035  12.9490004  49.3089981  76.4049988
  14.2460003  49.6300011  77.1760025  19.3789997  33.0499992  65.4810028
  19.1980000  33.3320007  64.5410004  18.4529991  32.6370010  65.5999985
  34.6189995  62.4630013  13.7399998  35.3849983  62.2789993  14.2849998
  33.8870010  62.3619995  14.3249998  23.2910004  47.7719994  61.3689995
  23.4209995  46.7900009  61.4259987  22.9659996  47.8069992  60.4389992
  24.9300003  35.7220001  68.4639969  24.6159992  35.8969994  69.3830032
  25.2530003  36.5960007  68.2409973  43.6609993  64.1579971  10.9560003
  43.4070015  64.4329987  10.0850000  43.3759995  63.2109985  11.0039997
  26.8759995  33.6780014  77.8020020  26.9150009  34.5820007  77.6829987
  26.0049992  33.3680000  77.6240005  20.0520000  28.1399994  73.1940002
  19.3040009  27.5809994  72.8519974  19.5820007  28.9459991  73.4349976
  17.5620003  30.9379997  50.1910019  17.6959991  31.0170002  49.2490005
  16.6490002  30.6320000  50.2630005  16.7430000  52.3339996  61.1160011
  16.0529995  52.3979988  60.4249992  16.3990002  51.4640007  61.5670013
  30.0720005  46.1180000  69.4329987  31.0869999  46.1160011  69.3710022
  29.9570007  45.1590004  69.5240021  32.4620018  62.5070000  15.3400002
  32.5330009  63.2169991  16.0179996  31.7129993  62.9000015  14.8299999
  21.0279999  32.3699989  69.7399979  20.3770008  32.8870010  69.1640015
  21.4580002  33.1469994  70.1070023  23.1229992  42.7840004  72.8939972
  22.6539993  43.6590004  72.8789978  22.5590000  42.3120003  72.2440033
  18.6690006  44.0530014  53.6459999  18.1100006  43.9510002  52.8040009
  19.4480000  43.5340004  53.2690010  18.2329998  30.7119999  73.6039963
  18.3299999  31.5429993  73.0350037  18.5580006  31.0760002  74.4530029
  15.0900002  29.6679993  49.5400009  14.4709997  29.9950008  48.8759995
  14.4569998  29.1219997  50.1020012  32.5439987  59.8320007  14.9320002
  31.7579994  59.7570000  14.3319998  32.4900017  60.8370018  14.9829998
  21.7870007  39.0579987  61.9210014  20.7919998  38.9900017  61.8320007
  21.8160000  39.9099998  62.4819984  14.6110001  33.8190002  61.7760010
  14.1650000  34.5429993  62.3160019  15.1079998  34.3359985  61.1399994
  17.5690002  39.0509987  63.7750015  17.3320007  39.9679985  63.5000000
  17.7900009  39.1769981  64.7200012  21.9920006  44.4669991  64.2289963
  22.9249992  44.4650002  64.0849991  21.5960007  44.6489983  63.3520012
  20.7439995  41.7690010  57.2820015  19.7639999  41.9949989  57.1990013
  20.8859997  41.6969986  56.3050003  22.2420006  53.5830002  65.8270035
  22.9810009  53.9080009  66.4199982  21.7539997  54.4430008  65.7559967
  20.4820004  33.7249985  74.2870026  19.5919991  33.6199989  73.9169998
  21.0310001  33.8559990  73.5380020  25.6469994  38.2309990  68.1930008
  25.6760006  38.3419991  69.1490021  26.3430004  38.7840004  67.8769989
  23.0349998  33.1949997  57.6559982  23.4220009  32.4249992  58.0519981
  23.6819992  33.9010010  57.7519989  54.6360016  51.3400002  16.8080006
  54.6370010  50.3909988  16.4640007  54.1790009  51.6809998  16.0219994
  20.8799992  34.7369995  56.1790009  20.0809994  34.6910019  56.7430000
  21.5330009  34.2179985  56.6669998  28.3500004  37.4739990  72.4649963
  27.7450008  36.7109985  72.4570007  28.8929996  37.2529984  73.2369995
  22.4150009  40.5309982  59.1940002  21.7779999  40.9809990  58.5639992
  22.2870007  41.1510010  59.9659996  15.6789999  44.2970009  72.0709991
  15.2910004  44.3129997  72.9899979  15.6510000  45.2830009  71.9229965
  38.3429985  74.3489990  14.2390003  38.2029991  74.5070038  15.1619997
  39.1730003  73.8460007  14.1719999  21.0209999  41.4980011  54.5070000
  20.8069992  42.0200005  53.7290001  21.4810009  40.7299995  54.1689987
  21.4519997  38.2989998  75.2210007  20.7320004  38.8610001  75.6119995
  22.2119999  38.7500000  75.6320038  14.9329996  43.4389992  59.4329987
  15.8000002  43.3540001  58.9630013  14.2779999  43.5480003  58.7849998
  24.2900009  45.0970001  61.3580017  24.5160007  44.8180008  62.2910004
  25.0769997  45.6290016  61.1279984  17.0720005  47.9760017  68.1569977
  17.5769997  47.1790009  68.3690033  17.8309994  48.6049995  67.9290009
  13.6239996  43.5810013  70.2340012  13.3690004  42.6329994  70.5970001
  14.2570000  43.8470001  70.9270020  24.9200001  45.3460007  69.8219986
  24.5340004  44.6839981  69.1920013  24.7210007  46.1829987  69.3160019
  18.3990002  33.2050018  72.0479965  18.8260002  34.0180016  71.7600021
  17.4930000  33.3680000  72.0159988  36.3639984  42.8240013  77.9960022
  35.4129982  42.9630013  78.2070007  36.4560013  41.8959999  78.0029984
  19.8710003  49.7109985  71.0429993  19.1200008  50.3209991  71.2190018
  19.6730003  49.4440002  70.1389999  26.1630001  45.6899986  72.1900024
  25.4489994  45.7529984  71.4800034  25.8409996  46.4370003  72.7559967
  40.0530014  65.5139999  19.5900002  39.5559998  65.6110001  18.7689991
  40.7750015  64.9390030  19.2019997  29.7859993  73.9420013  62.2150002
  29.2549992  74.7649994  62.3370018  30.0620003  73.7529984  63.1370010
  28.6159992  57.4189987  74.4059982  27.7189999  57.5299988  74.6890030
  28.8099995  56.4739990  74.6429977  35.8569984  56.9430008  74.2870026
  36.2760010  57.8289986  74.2860031  34.9379997  57.1609993  74.6240005
  37.6829987  53.0970001  71.8889999  36.9440002  53.7500000  71.9290009
  38.2340012  53.5099983  71.1979980  30.6040001  48.4370003  75.3519974
  31.4179993  48.4090004  74.8040009  30.8080006  49.2420006  75.9079971
  26.7430000  48.1990013  77.7320023  26.4549999  47.8219986  78.5729980
  26.1760006  47.7709999  77.0830002  31.3460007  50.8930016  69.5839996
  31.6119995  51.7140007  69.9660034  30.4549999  50.7789993  69.8550034
  21.9389992  51.7949982  70.1480026  22.5919991  52.4949989  70.2419968
  21.8269997  51.3919983  71.0070038  49.2519989  52.3660011  64.6090012
  49.0110016  51.6170006  65.1320038  50.0519981  52.7109985  64.9700012
  24.9650002  42.1170006  74.7500000  25.6800003  41.5149994  74.5970001
  24.4029999  41.9770012  73.9029999  33.2210007  49.0489998  69.0510025
  32.3030014  49.4869995  69.1149979  33.5929985  49.4449997  69.8529968
  27.8939991  59.7589989  66.4629974  28.0730000  60.5649986  66.0439987
  27.3780003  59.2319984  65.8320007  17.3279991  58.8129997  71.7389984
  17.9990005  58.1310005  72.0299988  17.5680008  58.8050003  70.7890015
  41.5139999  54.8860016  70.5899963  42.3260002  55.1720009  71.0699997
  41.7830009  54.0349998  70.3000031  33.4360008  45.4650002  71.6370010
  33.5309982  45.8860016  70.7259979  32.8209991  46.0730019  72.0049973
  32.7859993  61.2290001  56.7150002  32.8969994  61.2709999  57.6619987
  33.5960007  60.7820015  56.4269981  38.6559982  59.7929993  62.5979996
  38.0299988  59.7750015  61.8470001  38.3279991  60.6329994  62.9790001
  34.7840004  60.6119995  61.5839996  35.5499992  60.2350006  61.1080017
  35.2109985  60.9970016  62.3629990  30.5590000  64.8560028  72.1360016
  31.3369999  65.4509964  72.0770035  30.7740002  64.1949997  71.4339981
  20.2980003   9.8739996  19.4769993  20.0960007  10.5839996  18.7770004
  21.0849991  10.2919998  19.8929996  42.6990013  58.4309998  71.0370026
  43.3610001  59.1230011  71.1859970  43.1320000  57.6300011  71.2389984
  38.5120010  40.5769997  75.2789993  38.0849991  41.3759995  74.9729996
  38.2700005  40.5670013  76.2570038   9.4340000  25.0079994  12.7060003
   9.9709997  25.8069992  12.3699999  10.1289997  24.7980003  13.4420004
  33.6360016  63.1839981  52.6570015  33.7719994  62.2879982  52.8829994
  34.3219986  63.6360016  53.2099991  33.8629990  60.9910011  78.6269989
  34.6180000  61.5460014  78.3290024  34.1650009  60.1279984  78.2590027
  23.6669998  41.5079994  64.9400024  22.9510002  41.4360008  64.2210007
  23.4750004  40.6510010  65.4420013  32.6139984  71.8639984  59.6800003
  32.7439995  72.7870026  60.0509987  32.1459999  71.4759979  60.4230003
  41.1469994  64.4810028  58.6100006  40.9119987  63.9430008  57.7519989
  41.7849998  65.1039963  58.1959991  27.7950001  56.5229988  77.5199966
  27.5200005  56.7939987  78.4380035  28.2469997  55.7029991  77.6630020
  44.6780014  72.8929977  60.3600006  44.0369987  72.2799988  60.0040016
  45.4580002  72.7300034  59.8260002  34.5519981  43.3979988  74.7939987
  34.1500015  43.0499992  73.9449997  33.9860001  44.0940018  75.0619965
  25.5639992  60.9510002  57.6819992  26.0849991  60.1739998  57.8419991
  26.2630005  61.6250000  57.4760017  31.7749996  65.6630020  64.7020035
  31.9319992  65.0609970  65.4619980  31.4150009  66.4700012  65.1529999
  26.7959995  64.7789993  53.4140015  27.1259995  64.6880035  52.5120010
  26.6350002  65.7210007  53.5309982   5.6680002  32.9379997  11.7030001
   5.4070001  33.6920013  11.1239996   5.2249999  32.1899986  11.2209997
  25.9559994  50.4860001  74.1539993  26.4190006  50.5670013  73.2939987
  26.7570000  50.1839981  74.6689987  40.1129990  63.2309990  64.3929977
  40.9910011  63.4029999  64.0339966  40.0769997  64.1090012  64.9319992
  35.5449982  60.8750000  67.9759979  35.3639984  60.2719994  68.7600021
  36.1250000  60.2260017  67.4319992  36.8160019  64.5699997  66.4810028
  37.2400017  63.9710007  67.1210022  36.0610008  64.9020004  66.9570007
  30.8659992  60.2579994  61.3190002  30.1170006  59.9480019  61.9389992
  30.7339993  61.1809998  61.5009995  46.2789993  56.3629990  58.5320015
  46.9049988  55.6310005  58.7330017  45.5229988  55.8820000  58.1409988
  43.7260017  51.8409996  62.8720016  44.3260002  52.3899994  62.2789993
  44.4160004  51.7589989  63.6020012  24.2049999  47.3209991  68.0419998
  24.8290005  47.8959999  67.4629974  23.5510006  47.1230011  67.3550034
  37.9300003  60.0110016  66.1330032  38.1269989  59.7739983  67.0680008
  38.8610001  60.2560005  65.8229980  20.6690006  51.3419991  81.7949982
  20.9680004  50.8590012  80.9820023  21.2259998  50.9589996  82.4759979
  32.8820000  60.3820000  59.7159996  32.0769997  60.3870010  60.2639999
  33.5900002  60.3079987  60.3889999  28.7609997  54.2159996  74.9290009
  28.7709999  53.3829994  75.4229965  27.8230000  54.4350014  74.9479980
  38.1899986  64.4160004  68.8789978  38.5730019  63.6370010  69.3509979
  38.9420013  64.5240021  68.2450027  20.8519993  62.4640007  63.0820007
  21.0860004  62.7249985  62.1780014  20.7919998  61.4830017  62.9809990
  25.0760002  53.8079987  64.8389969  25.5569992  53.7589989  64.0199966
  24.7059994  52.9000015  64.7910004  25.2099991  42.4959984  71.1480026
  24.4599991  42.5320015  71.7249985  25.0410004  43.3110008  70.6019974
  11.1569996  24.4360008  14.8280001  11.7510004  23.6469994  14.9980001
  11.7430000  25.1550007  15.1009998  43.2570000  43.8479996  84.2109985
  43.6240005  44.7159996  84.3919983  43.2999992  43.4570007  85.0839996
  28.0340004  13.5740004  11.3640003  28.8710003  13.5830002  11.8680000
  27.4950008  14.1969995  11.8699999  40.3969994  57.8720016  65.0070038
  40.2999992  58.8339996  65.2699966  41.2659988  57.9879990  64.5319977
  37.8650017  61.5239983  46.6790009  36.9370003  61.8909988  46.4379997
  37.9539986  61.9249992  47.5419998  46.5519981  60.4389992  57.6360016
  46.0159988  60.1710014  58.3880005  46.0400009  61.2859993  57.3580017
  45.5530014  51.0540009  64.4929962  45.6220016  51.4119987  65.4290009
  45.6310005  50.1300011  64.6139984  32.9720001  58.8559990  70.8949966
  33.8629990  59.2980003  70.9639969  32.7200012  58.6920013  71.7900009
  37.6030006  40.0870018  77.6250000  37.2540016  39.1549988  77.5090027
  37.8120003  40.0519981  78.6070023  25.2129993  47.2999992  65.3779984
  25.3430004  47.6269989  64.4710007  24.2269993  47.3330002  65.4729996
  31.9200001  47.4850006  72.4759979  31.1180000  47.8460007  71.9710007
  32.0639992  48.3230019  73.0019989  27.5310001  54.3419991  70.3320007
  26.7709999  54.4339981  71.0309982  28.0639992  55.1619987  70.5090027
  19.7800007  55.7719994  60.9239998  19.9249992  55.9199982  59.9679985
  19.5620003  54.7789993  60.9249992  34.0050011  62.1570015  65.8059998
  34.2869987  62.0709991  66.7539978  34.7420006  61.7299995  65.3550034
  17.2329998  46.1230011  75.2269974  16.4549999  46.4449997  75.8209991
  17.0400009  45.1790009  75.2590027  38.8629990  52.0540009  79.9749985
  38.9379997  51.2519989  79.4270020  38.3009987  52.5929985  79.3180008
  26.2180004  56.0750008  65.7819977  26.7469997  55.6660004  66.5410004
  25.8880005  55.2639999  65.3779984   6.3490000  33.6489983   8.3490000
   6.0590000  32.7389984   8.3629999   7.2680001  33.5649986   8.4069996
  21.6940002  41.4739990  63.0540009  20.7800007  41.7120018  63.4659996
  21.5459995  41.9469986  62.1619987  55.5950012  68.5609970  57.4319992
  55.9010010  67.6579971  57.2509995  55.1689987  68.7389984  56.5589981
  44.4420013  74.8610001  62.1809998  44.3400002  74.2129974  61.4309998
  44.9189987  75.6019974  61.7789993  39.7350006  56.7319984  58.2779999
  39.0859985  57.1419983  58.9280014  40.4640007  57.3969994  58.4059982
  48.6049995  70.7829971  50.7290001  47.9039993  70.2399979  50.4379997
  48.2340012  71.6679993  50.5309982  39.7109985  70.2070007  56.6609993
  40.1699982  69.3440018  56.6430016  38.9350014  69.9169998  56.1090012
  56.9790001  63.7340012  54.5610008  56.1790009  63.3530006  54.9389992
  57.5620003  62.9129982  54.5909996  42.9210014  70.5869980  65.4100037
  43.1819992  70.3440018  64.5319977  43.8479996  70.7850037  65.7850037
  42.4910011  71.5090027  51.7779999  42.7239990  71.6060028  50.8240013
  41.9700012  72.4059982  51.7869987  41.2830009  67.9889984  57.2910004
  42.0169983  68.3639984  57.7970009  41.7330017  67.2080002  56.8419991
  55.7060013  61.7319984  50.6879997  56.2099991  62.5589981  50.5900002
  55.3870010  61.5509987  49.7980003  49.6730003  55.4119987  61.7690010
  49.5699997  56.3129997  61.5800018  50.6310005  55.2519989  61.7630005
  40.6329994  75.0989990  43.5349998  40.0190010  75.8460007  43.4900017
  40.0589981  74.3529968  43.3479996  48.0439987  54.1500015  69.0940018
  47.3989983  54.5299988  69.6689987  47.6450005  54.0569992  68.1999969
  52.1689987  54.0919991  62.3310013  52.2169991  53.2150002  62.7680016
  53.0419998  54.4570007  62.5859985  47.9160004  54.0180016  58.4869995
  48.0499992  53.3899994  59.2519989  47.4220009  53.4090004  57.9129982
  46.7589989  56.6629982  62.9679985  47.0680008  55.7970009  62.8440018
  47.2949982  57.1240005  62.1739998  39.3800011  57.4920006  61.8849983
  39.3180008  58.3629990  62.4379997  38.8359985  57.8499985  61.1160011
  28.2679996  69.0520020  58.3959999  28.3150005  68.8889999  59.3839989
  27.4529991  69.5749969  58.3330002  12.7969999  28.8320007   8.8690004
  13.3420000  29.4589996   9.2770004  12.0109997  29.3659992   8.5880003
  47.3839989  71.2050018  56.2929993  46.4500008  71.1190033  56.3709984
  47.6110001  70.2340012  56.1459999  56.8549995  69.4410019  48.7519989
  57.0340004  69.8440018  47.8390007  56.9710007  70.2369995  49.2770004
  36.7229996  66.2440033  60.4389992  37.5239983  66.2409973  59.9449997
  36.6100006  67.1999969  60.6250000  51.5369987  57.1850014  65.7799988
  50.9010010  56.4000015  65.7119980  52.3829994  56.7500000  65.6989975
  50.0680008  69.3270035  54.7400017  49.3069992  69.1750031  55.3549995
  49.5699997  69.8649979  54.0600014  49.5830002  53.7770004  71.4769974
  49.0800018  53.8199997  70.5950012  49.6220016  52.7669983  71.5270004
  38.9249992  76.5240021  50.8979988  38.0400009  76.9420013  51.1150017
  38.5670013  75.5979996  50.7299995  41.6440010  76.6610031  55.5880013
  42.2620010  76.0599976  55.1710014  41.8520012  76.5520020  56.5209999
  39.0379982  66.2880020  58.6040001  39.7770004  65.6520004  58.7509995
  39.5330009  67.1050034  58.4560013  28.2859993  73.1959991  71.6709976
  29.1250000  73.1240005  72.1070023  28.3299999  74.1740036  71.3840027
  39.1489983  59.2169991  77.2340012  39.0550003  59.6430016  78.0979996
  38.9360008  58.2799988  77.4980011  34.2369995  52.0009995  80.5400009
  34.6780014  52.6209984  79.9349976  33.2900009  52.3660011  80.4810028
  35.5929985  80.2119980  63.7939987  35.8069992  80.8610001  63.0680008
  34.6189995  80.2649994  63.7760010  33.3139992  72.7880020  65.7180023
  34.2280006  72.6709976  65.4250031  33.4589996  72.5309982  66.6729965
  39.6220016  73.4929962  61.3440018  40.2350006  74.0899963  61.7649994
  39.6489983  73.7799988  60.4039993  38.6170006  77.1579971  59.5289993
  37.7529984  77.6869965  59.5229988  38.2739983  76.4160004  60.1059990
  25.7250004  18.9500008  10.5679998  25.4729996  18.8150005  11.4630003
  25.4330006  18.1910000  10.0579996  22.8950005  35.7029991   0.5350000
  22.0779991  35.9070015   0.9180000  23.4990005  35.6110001   1.3160000
  36.5050011  62.9749985  48.9189987  36.5600014  62.8139992  49.9029999
  37.4869995  62.9150009  48.7340012  51.1800003  66.4440002  53.8769989
  51.9990005  66.9359970  53.9169998  51.3289986  65.8639984  53.0900002
  49.6839981  50.5130005  62.3160019  49.6290016  51.0919991  63.1279984
  50.6699982  50.5839996  62.1860008  43.9449997  56.4430008  63.3429985
  44.9000015  56.6539993  63.2120018  43.5349998  57.3149986  63.4640007
  41.0730019  80.7829971  60.1389999  40.6640015  80.1750031  59.4080009
  41.2949982  81.5429993  59.5480003  37.7459984  62.2410011  62.9090004
  38.7159996  62.3979988  62.9339981  37.3779984  63.0340004  63.3339996
  51.9389992  69.0149994  57.5309982  52.2729988  69.8399963  57.9850006
  52.1090012  69.3209991  56.5649986  40.3470001  65.7429962  65.4810028
  40.2470016  66.5699997  66.0319977  40.3790016  65.0469971  66.1460037
  28.7280006  63.5320015  68.1930008  28.6159992  64.4850006  67.9729996
  29.1949997  63.6459999  69.0410004  45.3610001  70.1839981  52.2680016
  44.6529999  70.8450012  52.2029991  44.8689995  69.3310013  52.1829987
  48.3219986  74.0569992  59.3359985  47.9379997  74.9919968  59.3489990
  49.1990013  74.2109985  58.9949989  41.4980011  58.6879997  58.3549995
  41.8909988  58.6730003  59.2540016  41.0330009  59.5320015  58.3370018
  44.9370003  66.8570023  45.1339989  45.0429993  66.7119980  44.1259995
  45.1459999  67.7990036  45.1689987  49.5369987  83.6190033  52.8899994
  49.5740013  84.3440018  53.5019989  49.4819984  82.8700027  53.5509987
  22.5760002  33.7249985   6.2220001  23.3220005  33.6399994   5.6040001
  23.1019993  34.0620003   6.9899998  49.6529999  55.3800011  65.7809982
  48.9819984  55.2659988  66.4970016  49.1069984  55.4199982  64.9769974
  34.2459984  65.3430023  63.2859993  33.3209991  65.2129974  63.5880013
  34.3100014  66.3180008  63.2680016  26.0119991  52.8610001  -6.3670001
  25.4069996  52.5079994  -5.7210002  26.8719997  52.3339996  -6.0920000
  39.9809990  64.8369980  56.0239983  39.8219986  64.0749969  55.4440002
  39.2459984  65.4150009  55.7319984  51.6049995  65.1829987  60.5419998
  50.9620018  65.4339981  61.2669983  51.9669991  66.1029968  60.4049988
  52.6370010  50.6370010  50.0559998  53.2509995  49.8820000  49.9059982
  52.3330002  50.4850006  50.9840012  42.2700005  71.2689972  48.7589989
  42.0229988  70.2949982  48.7459984  41.3720016  71.5299988  48.2809982
  16.4050007  38.8670006   3.5899999  15.9480000  38.3849983   2.8710001
  15.6549997  39.4959984   3.8699999  39.8300018  60.7779999  59.5349998
  39.0890007  60.1780014  59.8549995  39.3930016  61.6310005  59.7150002
  41.7260017  62.4560013  61.5419998  41.0719986  63.1790009  61.3250008
  42.2140007  62.4710007  60.7099991  38.6699982  80.0559998  64.2730026
  37.8129997  79.9219971  63.7980003  38.7849998  79.0569992  64.4810028
  45.3489990  65.8850021  62.1879997  45.1759987  65.4420013  61.3380013
  44.4930000  66.3970032  62.2700005  37.3849983  67.9550018  65.8740005
  38.1080017  67.6620026  66.4889984  37.5429993  67.3160019  65.1129990
  47.0979996  65.5110016  55.8460007  46.4420013  66.1760025  55.6500015
  47.8040009  65.7450027  55.2350006  42.6160011  70.2149963  54.0159988
  42.5530014  70.7429962  53.1500015  42.4150009  69.3270035  53.5649986
  20.6060009  26.8439999   8.0530005  20.6009998  27.2560005   7.1960001
  19.7339993  26.9060001   8.4020004  45.8849983  62.9710007  67.0640030
  46.4690018  63.6650009  67.3280029  45.9770012  62.9799995  66.0589981
  23.3150005  22.8780003  12.3050003  24.0860004  22.7600002  11.7379999
  22.6910000  22.2029991  11.9390001  66.0749969   7.7440000  48.1150017
  65.6829987   8.5950003  48.5229988  66.2600021   7.2760000  48.9160004
  46.0550003  68.0070038  67.0729980  46.5649986  68.3259964  66.3040009
  45.9739990  68.8840027  67.5899963  14.7760000  31.8230000   6.7430000
  14.8950005  31.2399998   7.5000000  15.6800003  32.2719994   6.7779999
  37.1730003  63.8409996  52.5340004  36.5929985  63.9900017  53.3110008
  37.1800003  64.7829971  52.2280006  36.0779991  56.4690018  70.2850037
  36.8370018  56.9659996  70.6110001  35.7809982  55.8759995  70.9779968
  45.6409988  62.6459999  69.7310028  46.2220001  61.9300003  69.9990005
  45.7669983  62.5550003  68.7310028  32.7949982  65.1729965  48.1940002
  32.8030014  66.0309982  48.6549988  32.9819984  64.5739975  48.9430008
  33.5219994  77.9449997  56.7989998  33.5099983  76.9830017  56.9399986
  34.4560013  78.1510010  56.8289986  31.8150005  53.4339981  70.5289993
  31.8990002  54.2799988  71.1169968  31.1499996  53.8180008  69.8539963
  47.2610016  82.8020020  49.4620018  47.0530014  81.8560028  49.2900009
  46.4319992  83.0120010  49.9679985  26.8969994  54.5349998  67.7639999
  27.2579994  54.4819984  68.6119995  27.5930004  54.0989990  67.2320023
  50.9269981  62.0130005  56.7229996  50.8409996  63.0200005  56.6650009
  50.0369987  61.7140007  56.4609985  47.7729988  63.0390015  60.2190018
  47.7039986  63.8839989  59.6980019  48.4679985  62.5649986  59.7540016
  36.8489990  62.0390015  72.7720032  37.4469986  62.8800011  72.7389984
  36.6360016  62.0929985  73.6910019  44.0299988  66.3750000  52.0419998
  44.2509995  67.1610031  51.5499992  44.9189987  66.0500031  52.2770004
  51.8339996  80.3509979  56.5680008  51.4589996  79.7190018  57.1650009
  52.3110008  79.7200012  55.9259987  40.5760002  64.0989990  67.5739975
  41.5340004  64.3010025  67.4469986  40.6459999  63.2330017  67.9589996
  30.2859993  32.9840012   8.7379999  30.4729996  32.6790009   9.6280003
  29.7049999  33.7890015   9.0509996  41.8240013  64.3860016  52.8440018
  42.3600006  63.9329987  53.5330009  42.2270012  65.2549973  52.8909988
   9.1639996  43.6539993   6.6780000  10.1110001  43.8370018   7.0460000
   9.3959999  43.2480011   5.8559999  67.5410004  12.3620005  59.0349998
  66.9899979  12.8500004  59.6660004  66.9599991  11.5699997  58.9179993
  29.7709999  67.4919968  69.9229965  29.6089993  68.4250031  70.2919998
  30.6329994  67.3330002  70.3789978  34.3829994  64.2549973  73.6880035
  33.7019997  63.7500000  73.3059998  35.1889992  63.7919998  73.4250031
   6.4740000  33.4679985  14.7150002   6.2700000  33.6139984  15.6569996
   5.7170000  33.9659996  14.2989998  38.5820007  63.0680008  57.6300011
  38.5919991  63.1209984  58.5970001  38.9269981  63.9760017  57.3709984
  33.4049988  59.9269981  74.0000000  33.0480003  60.4679985  74.7509995
  33.2379990  60.5629997  73.2779999  44.5779991  69.1050034  57.5859985
  43.9290009  68.8119965  58.2770004  45.3849983  68.9069977  58.1259995
  33.8170013  67.4869995  60.6010017  33.8629990  67.7070007  61.5649986
  33.1790009  66.7620010  60.7179985  54.7620010  67.8889999  49.5340004
  55.5820007  68.5199966  49.4249992  54.8800011  67.3539963  48.7410011
  45.7000008  54.4939995  54.9309998  45.7019997  55.4370003  55.0940018
  44.8390007  54.2210007  55.3279991  47.1290016  65.2809982  67.4339981
  47.7680016  65.9879990  67.4520035  46.2970009  65.7990036  67.3619995
  52.1609993  46.9230003  65.5210037  52.6710014  47.7400017  65.5869980
  51.5289993  47.0680008  66.2809982  38.7989998  56.6399994  55.6870003
  39.1920013  56.8499985  56.5489998  38.1030006  55.9879990  55.9379997
  43.2879982  64.6650009  66.3079987  43.1370010  65.5719986  66.7089996
  44.2379990  64.8669968  65.9889984  39.9280014  74.1529999  58.8499985
  39.2490005  73.8730011  58.2070007  40.6870003  74.2639999  58.2350006
  35.2869987  54.9459991  77.2269974  36.0159988  55.4420013  76.9459991
  34.9119987  55.5970001  77.8519974  48.1570015  51.6040001  59.9739990
  47.3240013  51.1920013  60.2939987  48.7500000  51.3129997  60.6910019
  52.7659988  72.9209976  53.3129997  52.8600006  73.8820038  53.4239998
  53.5649986  72.6999969  52.8580017  36.7910004  77.2389984  64.9509964
  37.5099983  76.9560013  64.3710022  36.0680008  77.2969971  64.2929993
  42.7939987  58.4179993  60.8419991  42.4599991  58.9760017  61.5859985
  42.6250000  57.5289993  61.2430000  30.4060001  59.5649986  69.6770020
  31.3069992  59.5289993  69.8229980  30.2959995  58.6669998  69.1989975
  64.9619980  64.4380035  56.7369995  65.6679993  64.0130005  57.2140007
  65.4520035  64.6090012  55.8820000  46.6030006  82.6429977  56.4140015
  46.6889992  82.7239990  55.4389992  46.3310013  83.5999985  56.6370010
  39.7039986  59.7120018  74.5839996  39.4199982  59.9720001  75.5210037
  38.9690018  59.0629997  74.4250031  64.2109985  54.2459984  62.2949982
  65.1080017  53.9920006  62.5089989  63.7099991  53.4169998  62.2019997
  20.9909992  73.7779999  64.6790009  20.7530003  73.1539993  63.9570007
  20.8700008  73.1829987  65.3909988  47.7750015  68.5940018  56.5600014
  47.1650009  68.4169998  57.2919998  48.5219994  67.9970016  56.8429985
  30.7539997  77.0260010  64.9369965  30.3519993  77.6389999  65.5989990
  31.1329994  76.3130035  65.4899979  26.2630005  35.8009987  -0.8020000
  26.8320007  35.7400017  -1.6059999  25.5319996  35.2159996  -1.0470001
  38.3009987  66.3430023  51.4799995  38.5089989  67.1019974  52.0750008
  39.1010017  66.3359985  50.9220009  20.5209999  24.4869995  10.1210003
  20.9510002  24.9130001  10.8929996  20.3430004  25.2660007   9.5869999
  37.1539993  58.0769997  54.1549988  36.9630013  57.4729996  53.4010010
  37.7789993  57.5839996  54.6809998  52.5719986  49.5849991  55.2099991
  53.2989998  49.9350014  55.7620010  52.5620003  48.6430016  55.5859985
  73.3160019  16.5270004  63.4329987  72.9739990  16.9340000  62.6450005
  73.9329987  17.2849998  63.6590004  58.4480019  65.8720016  61.5849991
  58.7989998  66.7720032  61.5190010  57.5279999  65.9950027  61.8680000
  45.3409996  60.4539986  64.5220032  45.8759995  60.6419983  63.6980019
  44.7879982  61.2960014  64.5179977  47.8720016  74.3809967  50.7900009
  47.9370003  74.6279984  49.8549995  48.8650017  74.1539993  50.9150009
  43.8160019  77.1149979  46.5200005  43.1129990  76.6050034  46.9430008
  43.7500000  76.9059982  45.6059990  27.5330009  65.4410019  57.2729988
  27.4220009  65.4199982  58.2200012  28.4920006  65.2819977  57.1899986
  47.2669983  65.2770004  58.4230003  48.2270012  65.1650009  58.4599991
  47.0960007  65.3160019  57.4500008  37.8289986  72.3590012  62.8940010
  38.3909988  72.6949997  62.1559982  38.0239983  71.4029999  62.8100014
  34.8470001  66.1460037  57.4179993  34.8489990  67.1289978  57.1380005
  34.3160019  66.3020020  58.2449989  18.1849995  30.1210003  18.7740002
  18.4319992  29.5610008  19.5349998  18.9099998  30.7530003  18.7240009
  40.9739990  55.2919998  61.6290016  40.3559990  56.1349983  61.7820015
  40.2480011  54.6389999  61.8440018  43.1739998  58.8629990  64.4020004
  44.0209999  59.4370003  64.4710007  42.6669998  59.4090004  63.8199997
  38.7949982  62.6399994  54.6220016  38.5830002  62.7109985  53.7060013
  37.9020004  62.5219994  55.0219994  35.7500000  63.2010002  69.6790009
  35.7159996  62.3440018  69.2050018  36.7039986  63.3440018  69.6689987
  43.9379997  58.5390015  57.2709999  43.7159996  57.7019997  56.7610016
  43.1199989  58.6790009  57.7389984  44.0620003  54.7659988  57.4350014
  43.3699989  54.9090004  58.1049995  44.2709999  53.8240013  57.6980019
  35.8009987  71.9479980  64.8669968  36.4329987  72.5859985  64.5690002
  35.8520012  71.2649994  64.1880035  50.1940002  74.1849976  62.9830017
  49.8219986  73.9589996  63.8680000  50.4000015  75.1330032  63.1430016
  46.7809982  60.7770004  62.2200012  47.0229988  61.5800018  61.7290001
  47.6619987  60.4109993  62.5489998  51.1730003  64.8209991  51.7019997
  51.1539993  63.9690018  52.1329994  52.0159988  64.7779999  51.1959991
  45.6619987  64.7669983  64.6330032  45.5349998  64.8600006  63.6580009
  46.4350014  65.3209991  64.7580032  58.9249992   8.1940002  52.1650009
  59.4990005   7.6980000  51.4970016  58.9080009   7.4239998  52.8310013
  46.7509995  62.9700012  47.4449997  46.9669991  62.1339989  46.9140015
  46.7809982  62.5919991  48.3190002  54.9869995  64.2389984  62.9809990
  54.0439987  64.4649963  62.9010010  55.4290009  65.1250000  63.0950012
  46.6580009  77.4629974  47.1269989  45.7439995  77.2190018  46.8460007
  47.1749992  77.3629990  46.3139992  53.6430016  70.6490021  40.0880013
  54.5830002  70.8519974  40.3870010  53.4269981  71.5139999  39.6949997
  58.7690010  71.3180008  54.8909988  59.4029999  71.9720001  55.3330002
  59.0419998  71.4540024  53.9570007  54.9630013  78.0950012  53.3499985
  55.2229996  78.9140015  52.9169998  54.3750000  77.6409988  52.6529999
  44.9580002  58.8289986  68.5299988  44.9300003  58.8930016  69.5009995
  45.7179985  59.4189987  68.3300018  37.5419998  62.6510010  60.0460014
  36.6790009  62.9729996  60.2739983  37.3800011  61.6409988  60.0540009
  27.2840004  45.2970009   0.7240000  27.8180008  45.6629982   0.0080000
  27.9330006  45.3390007   1.4440000  64.6240005  78.3710022  50.6389999
  65.0530014  79.1070023  50.0979996  63.9840012  78.0970001  49.9900017
  51.8040009  81.7310028  48.2869987  51.5839996  80.7850037  48.4710007
  51.3160019  82.1370010  49.0169983  60.7420006  74.7880020  51.1180000
  60.0239983  74.1869965  51.3450012  60.3370018  75.3010025  50.3660011
  44.0880013  79.8560028  47.7879982  45.0139999  79.7279968  47.9920006
  43.7939987  79.0780029  47.3419991  22.7959995  47.4319992  -1.0820000
  22.2940006  48.1689987  -0.6620000  23.4480000  47.3520012  -0.3600000
  45.7140007  74.4049988  47.9290009  45.4370003  74.2080002  46.9830017
  46.5429993  73.8590012  47.9379997  51.2639999  79.7939987  52.1090012
  51.9360008  80.4499969  51.9440002  51.4570007  79.0569992  51.5369987
  45.7280006  74.0090027  52.1599998  46.4990005  74.2379990  51.6300011
  46.1160011  73.6200027  52.9329987   2.7730000  12.0749998  43.0279999
   2.8310001  12.9329996  43.6080017   2.0890000  11.6239996  43.6129990
  60.0260010  73.2190018  58.0989990  60.4690018  73.3010025  57.2089996
  60.7999992  73.2089996  58.7350006  74.2570038  14.1070004  60.2809982
  74.0770035  14.7690001  59.5979996  73.4359970  13.6049995  60.3639984
   6.0710001   8.8149996  48.7239990   5.6339998   8.7419996  49.6119995
   5.9910002   9.8290005  48.5940018  64.7220001  70.6729965  39.7589989
  63.9000015  70.6060028  40.2210007  65.2440033  69.9449997  40.0750008
  64.6839981  76.0749969  51.9220009  64.7639999  77.0080032  51.6940002
  65.0189972  76.0800018  52.7799988  39.0600014  42.2910004  -3.7090001
  38.7560005  41.9910011  -2.8480000  39.3899994  43.1629982  -3.4530001
  62.2389984  79.9810028  49.1800003  63.0600014  80.3929977  49.3460007
  62.1010017  80.0390015  48.1920013  46.7970009  71.8529968  58.9360008
  47.3969994  72.6780014  58.9679985  47.3390007  71.3320007  58.3429985
  17.2649994   1.7550000  50.5569992  16.8750000   1.2730000  49.8230019
  17.6509991   1.0520000  51.1020012  68.6039963  65.3570023  51.2570000
  69.0400009  64.5849991  50.8170013  68.4069977  64.9319992  52.1220016
  26.5039997  11.2830000  41.1599998  27.3789997  11.5990000  41.4020004
  26.7800007  10.8030005  40.3310013  10.8730001  10.2510004  41.4620018
  10.7399998  11.1789999  41.7879982  11.8500004  10.2969999  41.3889999
  30.6469994  49.3959999  -5.8839998  30.5990009  48.4430008  -6.1370001
  31.5760002  49.5839996  -6.0380001  54.3320007  74.4530029  33.4459991
  53.9889984  73.4789963  33.5589981  54.1660004  74.5410004  32.5120010
  22.6030006  11.5909996  53.7120018  21.9459991  10.9049997  53.5559998
  21.9960003  12.3830004  53.6500015  21.5200005   2.5109999  45.5460014
  21.4640007   1.7760000  44.9519997  22.1970005   3.0890000  45.1170006
  24.2639999   5.1339998  46.9609985  23.4650002   5.5539999  46.5060005
  24.7889996   5.9499998  47.1139984  18.6560001  13.5369997  60.4869995
  19.2840004  14.1339998  60.1110001  19.1770000  12.6750002  60.2859993
  76.3280029  62.9440002  51.6910019  76.0339966  63.1329994  50.7989998
  76.7770004  63.8339996  51.8479996  11.7229996  11.3030005  46.6839981
  10.7790003  11.0860004  46.5569992  11.8500004  11.8879995  45.8940010
  71.0130005  66.2119980  45.6609993  71.8150024  66.6529999  45.9679985
  70.3119965  66.5380020  46.2280006  28.5680008  -6.1710000  43.6320000
  29.0960007  -6.8260002  43.0929985  29.2849998  -5.7770000  44.1479988
  56.6969986  78.3489990  44.5200005  56.3829994  77.6800003  43.9339981
  56.3959999  79.1660004  43.9589996  19.5330009   7.1440001  45.6240005
  19.1259995   7.0980000  44.7290001  19.8959999   8.0439997  45.5779991
   5.2960000  68.2509995  54.7179985   5.7600002  68.6699982  53.9760017
   4.5209999  67.8960037  54.2700005  63.3800011  75.3560028  39.6170006
  63.1030006  75.6129990  38.7039986  63.0190010  74.5019989  39.7519989
  18.6299992   4.3730001  34.6660004  18.2310009   3.6530001  34.0940018
  18.5470009   3.8450000  35.5299988  15.0799999   1.1250000  53.7739983
  15.6759996   1.7530000  54.1380005  14.2030001   1.5150000  53.8899994
  71.5080032  68.6880035  48.5559998  71.2500000  68.6490021  47.5929985
  72.3840027  68.3280029  48.5330009   7.1630001  57.4949989  48.9679985
   7.4130001  56.5379982  49.0379982   7.0409999  57.6980019  49.9360008
  19.5779991  18.5599995  32.1829987  19.8020000  18.6760006  31.2390003
  18.7759991  19.1140003  32.2249985  13.2930002   7.6570001  47.0800018
  13.9230003   7.9660001  46.4249992  12.5410004   7.3480000  46.4809990
  16.2040005  17.0669994  49.8489990  15.4639997  17.0660000  49.2070007
  16.7380009  17.8320007  49.4630013  60.9529991  81.1409988  53.7560005
  61.7949982  81.1490021  53.2659988  60.3219986  80.9720001  52.9729996
  70.5449982  70.2490005  38.3160019  70.8379974  69.4469986  37.8419991
  71.4110031  70.5439987  38.7360001  28.7789993   7.6469998  47.9720001
  29.3150005   8.2119999  48.5110016  28.5930004   6.9159999  48.6300011
  73.7160034  66.9589996  46.2060013  74.0110016  67.3130035  47.0929985
  73.3720016  67.7850037  45.7449989  28.1520004   6.7930002  37.7200012
  27.8630009   6.1580000  38.4140015  28.8290005   7.2670002  38.2570000
  25.9529991   5.9260001  53.6279984  26.0310001   4.9559999  53.7449989
  24.9559994   6.0300002  53.8160019  31.2290001   1.5110000  49.2369995
  30.3759995   1.2320000  48.8680000  31.4500008   0.9060000  49.9239998
  64.5029984  77.4550018  35.4939995  64.2099991  77.9680023  34.7630005
  65.0670013  78.0550003  35.9970016  16.2019997  22.6079998  45.4490013
  15.6000004  22.0629997  45.9490013  15.5860004  22.8950005  44.7150002
  20.3589993   0.8100000  43.5410004  20.7919998   0.3080000  42.8510017
  20.2010002   0.1660000  44.2270012  31.6879997  11.6129999  38.1720009
  31.5270004  11.9650002  37.2340012  32.1030006  12.4410000  38.5070000
  19.0179996  11.0229998  51.7669983  18.1289997  10.7010002  51.8759995
  18.9209995  11.9860001  51.8619995  22.1389999   7.5339999  57.7550011
  21.5860004   7.8160000  58.4900017  22.0960007   8.3629999  57.1910019
  18.0139999   2.9820001  44.3730011  18.3859997   2.2010000  43.9350014
  18.5090008   2.9679999  45.2369995  14.7980003   1.7250000  24.4480000
  15.5579996   1.3099999  24.8759995  14.1250000   1.5290000  25.1459999
  62.0110016  73.2409973  29.3260002  61.2430000  73.0940018  28.7409992
  62.7519989  73.2229996  28.7169991  26.9759998   9.4099998  56.6049995
  26.3850002   8.6920004  56.3199997  27.7250004   8.8929996  56.9690018
  13.6219997   9.2919998  53.8919983  13.6630001   8.8719997  54.7960014
  14.5109997   9.6459999  53.8170013  67.3140030  67.9020004  49.4319992
  67.2580032  68.6230011  50.0859985  66.7450027  67.1930008  49.8889999
  47.3409996  35.5649986  -2.5070000  46.7200012  35.2070007  -3.1710000
  46.6899986  35.8540001  -1.8279999  64.5899963  76.0849991  48.7340012
  64.2409973  76.0869980  47.7680016  63.9420013  75.4479980  49.0629997
  14.5430002   2.3770001  41.4049988  14.9270000   1.8470000  42.1619987
  14.2159996   3.1980000  41.8619995  56.8250008  73.7190018  34.8019981
  55.9090004  73.7269974  34.4650002  57.2879982  74.3059998  34.1440010
  13.4029999   4.4549999  42.8030014  12.4700003   4.5700002  43.0909996
  13.8599997   4.8499999  43.5509987  19.5750008  -0.4010000  31.9090004
  20.3430004  -0.8680000  32.2540016  19.8470001  -0.2710000  30.9769993
  26.6560001  13.7220001  40.0120010  25.7019997  13.7740002  40.0149994
  26.7730007  12.7849998  40.2589989  15.8800001  12.9919996  53.3979988
  15.2270002  13.4969997  52.8680000  15.7250004  13.4040003  54.2799988
   8.9779997  13.8629999  60.1739998   9.4670000  13.6859999  59.3600006
   9.5799999  14.4569998  60.6739998  22.0090008  18.5359993  52.2060013
  22.1389999  18.5720005  51.2200012  22.5130005  19.3610001  52.4529991
  16.8600006   5.1149998  42.3380013  17.7290001   5.1050000  42.7459984
  16.8999996   4.3509998  41.7779999  24.2789993   0.0190000  43.2970009
  25.2639999   0.1670000  43.3989983  24.1679993   0.5700000  42.4749985
  55.7700005  84.3229980  55.7649994  55.2470016  83.6989975  56.2249985
  55.1360016  85.0400009  55.5660019  20.4340000   9.5190001  46.8050003
  21.3659992   9.7449999  46.8190002  20.2380009   9.3669996  47.7210007
  71.5800018  73.6019974  47.2169991  71.5070038  73.4049988  48.1870003
  71.2119980  74.5059967  47.2350006  14.1040001   6.0130000  54.6780014
  14.5419998   6.0409999  53.7789993  14.5920000   5.1760001  54.9830017
  25.8600006   1.5190001  33.0229988  25.2789993   1.2410001  33.7400017
  26.1250000   0.5830000  32.7190018  73.1350021  70.7450027  52.0000000
  73.7590027  70.2009964  52.5369987  72.8529968  71.3710022  52.7169991
  11.9790001   5.4720001  49.1549988  12.4989996   6.3290000  49.2340012
  12.7320004   5.0279999  48.5709991   8.1569996  14.1219997  41.7229996
   7.8249998  15.0360003  41.6580009   7.5679998  13.6409998  41.0950012
   1.8670000  22.4330006  48.6720009   2.0699999  23.1170006  49.3120003
   0.9020000  22.4659996  48.6269989   6.4629998  14.9989996  51.1010017
   5.5970001  15.2349997  50.7589989   6.1399999  14.4410000  51.9259987
  18.8230000  22.1130009  51.0060005  18.2049999  21.4179993  51.2060013
  19.0079994  22.5639992  51.8190002  14.8800001   5.7270002  52.1520004
  14.8170004   4.7529998  51.9020004  15.2410002   6.0619998  51.3790016
  71.5270004  68.9990005  54.0190010  70.6259995  69.2900009  54.2299995
  71.9440002  69.0120010  54.9119987  59.5960007  80.0739975  43.0239983
  60.5279999  80.3280029  43.0699997  59.6619987  79.3629990  42.3059998
  18.3139992   0.5190000  54.2290001  19.1539993   0.4120000  54.7150002
  17.6940002   0.5340000  55.0040016  26.0739994  13.8319998  43.2430000
  25.4120007  13.1569996  43.3149986  26.8780003  13.3310003  43.0919991
  19.2159996   2.9440000  47.1020012  19.8540001   3.2010000  47.7700005
  19.8859997   2.4710000  46.4910011  17.2150002   6.6710000  33.7760010
  17.9260006   7.0419998  33.2010002  17.4449997   5.7379999  33.8400002
  20.5730000  16.6900005  44.5089989  19.5699997  16.7500000  44.4280014
  20.7320004  16.5690002  43.5019989   3.5280001  12.7089996  53.7919998
   3.4159999  12.2580004  52.9580002   4.4390001  13.0649996  53.6809998
   6.5180001  10.3950005  44.2400017   5.7979999  10.1520004  44.8180008
   7.0580001   9.5869999  44.1850014   3.9010000  12.8020000  40.6879997
   3.8529999  13.7530003  40.7070007   3.3239999  12.5850000  41.4749985
  15.6660004  13.7449999  40.7999992  15.3640003  14.6499996  40.9420013
  15.1890001  13.4639997  40.0309982  19.3020000  19.4230003  57.6689987
  18.7399998  20.2019997  57.8810005  18.5990009  18.7029991  57.6780014
  33.5130005   3.5799999  58.5299988  34.3730011   4.0060000  58.4010010
  32.9889984   4.0929999  57.9070015  65.1539993  75.4749985  44.2709999
  65.9879990  75.3280029  43.8120003  64.5660019  75.8000031  43.5750008
  16.7880001   3.8499999  47.8829994  17.6369991   3.9800000  47.4230003
  16.9549999   3.9560001  48.8120003  26.5860004  14.4119997  51.0779991
  27.0289993  15.2860003  51.3740005  26.1100006  14.7010002  50.2910004
  26.5130005   1.4020000  57.0769997  25.9050007   1.9630001  57.4609985
  27.0970001   1.0820000  57.7410011  19.2000008   1.1360000  35.1310005
  19.0340004   0.9510000  34.1759987  19.8349991   0.4880000  35.3889999
  28.6259995   0.5600000  43.3889999  27.8069992   1.0150000  43.6549988
  29.1520004   1.2740000  42.9710007  16.4699993  13.4650002  29.0240002
  17.2810001  13.2489996  28.4489994  16.8820000  13.3219995  29.9139996
   2.4159999  13.4099998  25.5319996   3.3580000  13.5600004  25.6949997
   2.1310000  14.3319998  25.5209999  62.7430000  73.3740005  53.5919991
  62.1860008  72.9960022  52.8769989  63.4589996  72.7009964  53.6069984
  44.3720016  34.5620003  -7.5650001  44.0709991  34.6459999  -8.4919996
  45.1809998  33.9980011  -7.7300000  39.5830002  10.2379999  39.9440002
  38.7379990  10.5330000  39.4070015  40.1759987  10.8780003  39.4949989
  31.5489998  10.1750002  33.8610001  30.6660004   9.9029999  33.5460014
  32.1850014   9.6700001  33.3559990  66.0910034  73.4739990  46.1139984
  66.0640030  72.9150009  45.3069992  65.7429962  74.3099976  45.7739983
  23.0009995  -1.9000000  52.2999992  22.4909992  -2.3299999  51.5589981
  23.3250008  -2.7210000  52.7770004  78.3130035  21.2150002  51.3429985
  78.0289993  20.5709991  50.6320000  77.7939987  22.0300007  51.0340004
  21.9139996  10.0360003  34.3260002  22.4190006   9.6759996  33.5750008
  21.0310001   9.6029997  34.1959991  24.6949997   8.0769997  56.0330009
  24.1840000   7.4910002  55.4860001  24.0319996   8.8750000  56.1459999
  21.7189999   2.6280000  41.7299995  22.2119999   3.3699999  42.1450005
  21.3290005   2.2400000  42.4860001  27.1399994   5.0890002  33.6529999
  26.8500004   5.8230000  34.2859993  27.6270008   4.5549998  34.3520012
  28.0319996   4.6799998  39.7299995  27.2180004   4.1199999  39.8300018
  28.6800003   3.9419999  39.6110001  22.5919991   1.8760000  36.5989990
  22.7800007   1.6700000  35.6520004  22.2269993   2.8050001  36.4739990
  15.4709997   8.1669998  45.5359993  15.9069996   8.0159998  46.3400002
  16.1550007   8.5310001  44.9480019  17.2910004   8.0389996  53.9799995
  16.8630009   8.9309998  54.1080017  18.1849995   8.2360001  53.8580017
  14.9309998  14.2340002  58.1990013  14.1850004  14.7100000  58.6300011
  15.3529997  13.8330002  59.0019989  24.4160004  14.7980003  48.8330002
  23.9880009  13.9530001  48.9039993  23.8490009  15.3789997  49.3120003
  33.0130005  12.3920002  51.6030006  32.3470001  12.3669996  50.8870010
  33.5079994  13.1180000  51.2480011  14.6809998  26.1749992  47.8069992
  15.1300001  25.8649998  46.9580002  15.3970003  26.7490005  48.1220016
  23.5319996  23.1529999  59.5379982  24.3780003  23.4960003  59.8380013
  23.7539997  22.6149998  58.7719994  23.5510006  19.7110004  63.3460007
  24.0340004  20.0100002  62.5629997  22.6350002  19.9239998  63.1389999
  13.3179998  19.1200008  38.2519989  13.6820002  18.1989994  38.0730019
  12.7309999  18.8959999  38.9630013  13.7220001  20.2049999  43.8889999
  13.9060001  20.3880005  44.7879982  12.9010000  20.7240009  43.7270012
  31.4860001  20.1280003  48.0530014  31.7900009  20.9640007  47.6320000
  30.9099998  20.4160004  48.7869987  24.4680004  16.0270004  57.1090012
  24.3670006  15.1029997  56.9879990  24.3080006  16.3600006  56.2270012
  19.4729996  12.0039997  35.2280006  18.7789993  12.5790005  34.8740005
  19.2980003  12.0780001  36.2179985  32.0950012   9.2309999  55.1870003
  31.2019997   9.1160002  54.7039986  32.5480003   9.7989998  54.4650002
  28.6919994  20.0760002  55.7299995  28.0799999  20.5149994  55.1020012
  28.0569992  19.7469997  56.4179993  30.7420006  22.9890003  54.5629997
  31.5170002  23.2469997  53.9630013  30.4680004  23.8710003  54.8810005
  29.1340008  20.3990002  45.1940002  28.9759998  19.4699993  45.4249992
  28.5620003  20.5709991  44.4370003  23.7889996  20.4400005  53.2420006
  23.7409992  20.1910000  54.1790009  23.9839993  21.4440002  53.4160004
  29.8069992   9.3920002  53.5769997  29.3899994   9.1099997  52.7369995
  29.1709995  10.0220003  53.8829994  25.0769997   9.7919998  51.6040001
  24.9069996   8.8439999  51.5730019  24.5470009  10.0190001  50.7439995
  23.5650005   8.5730000  46.5379982  24.2989998   7.9200001  46.7179985
  23.4650002   8.4960003  45.5979996  33.2869987  22.5300007  49.8590012
  34.1739998  22.8719997  49.7470016  33.0340004  22.7029991  48.8800011
  23.7450008  11.9689999  42.5480003  22.9360008  11.8290005  42.0019989
  24.4260006  11.6450005  41.9059982  31.2900009  20.8850002  56.0589981
  30.3439999  20.7600002  55.9510002  31.3579998  21.7469997  55.6069984
  23.7259998  19.8889999  39.0110016  24.0419998  20.0599995  39.9679985
  24.2549992  19.0660000  38.9129982  28.6529999  15.4930000  49.0079994
  29.5559998  15.2150002  48.6749992  28.9659996  16.1870003  49.6730003
  36.1049995  11.7399998  43.5070000  36.2669983  12.6320000  43.9589996
  36.5960007  11.9799995  42.6640015  29.2350006  10.1529999  44.5009995
  28.3600006  10.1190004  44.8660011  29.7759991   9.8389997  45.2910004
  53.0309982  44.7099991  -0.3300000  52.3689995  44.4090004   0.3500000
  52.4690018  44.4309998  -1.0970000  33.4729996  24.5499992  55.9300003
  32.7750015  25.1930008  55.5279999  33.7210007  24.1000004  55.0589981
  37.7480011   6.9229999  56.0379982  37.0499992   7.0510001  56.6870003
  37.3909988   6.1980000  55.4840012  45.0460014  49.7509995  -0.8890000
  45.0130005  49.9490013   0.0730000  44.5660019  50.5559998  -1.2539999
  29.1900005  18.3500004  50.3540001  29.4440002  19.2789993  50.1969986
  28.5289993  18.3710003  51.0379982  20.7590008   9.5459995  53.1800003
  20.7110004   8.8800001  52.4879990  20.1809998  10.2189999  52.7060013
  15.8789997  24.2950001  40.0929985  16.7600002  23.7819996  40.1059990
  16.0450001  24.7530003  39.2449989   9.1330004  30.7210007  52.8769989
   8.9320002  29.7530003  52.7080002   9.4779997  31.0009995  51.9930000
  11.2250004   6.7700000  45.2490005  10.3350000   6.5130000  45.3380013
  11.2150002   7.0809999  44.2910004  16.8719997   8.5979996  59.2280006
  16.5990009   7.9190001  59.8969994  17.2049999   7.8829999  58.5740013
  29.7040005   4.1030002  30.3349991  29.8339996   3.7620001  31.1870003
  29.0739994   4.8060002  30.4290009  21.4060001  24.6830006  48.1269989
  21.0039997  25.1779995  48.9039993  21.0000000  25.2010002  47.3639984
  17.0170002  21.4799995  58.3839989  16.3980007  20.6770000  58.3129997
  16.5779991  22.0520000  57.7290001  35.8149986  21.5459995  52.6829987
  36.5800018  21.7649994  52.0050011  35.6110001  22.5130005  52.8829994
  31.5060005  26.2560005  41.3660011  31.3579998  25.3139992  41.1189995
  31.3139992  26.3150005  42.2840004  21.8279991  28.2830009  39.6269989
  22.3120003  28.5130005  38.7900009  22.0380001  27.3759995  39.7330017
  17.2500000  18.1889992  46.3460007  17.3120003  18.9020004  47.0260010
  16.2929993  17.9710007  46.3969994  12.4119997   7.9650002  51.8209991
  13.0240002   8.2130003  52.5390015  13.0109997   8.0389996  51.0149994
  20.2929993  15.0749998  57.1910019  20.6650009  15.6549997  56.4510002
  19.3640003  15.0749998  56.9000015  27.9850006   6.5689998  44.8549995
  28.8680000   6.1810002  44.9269981  28.0520000   7.4540000  45.1069984
  21.0289993  11.3450003  38.2239990  21.3430004  10.5489998  37.7919998
  21.6639996  12.0229998  37.7700005  28.8829994  17.5520000  41.9500008
  29.7970009  17.6280003  41.6389999  28.9850006  17.3080006  42.8569984
  20.8589993   9.0330000  43.3209991  20.9480000   9.6639996  42.5299988
  21.8129997   8.8339996  43.4539986  34.1520004  15.2130003  53.3759995
  33.3300018  14.8490000  53.7680016  34.0070000  14.8730001  52.4440002
  22.4060001  12.6870003  49.0139999  22.2819996  12.5000000  48.0369987
  22.2070007  11.8129997  49.3790016  15.6850004  10.6940002  38.4749985
  15.1059999   9.8990002  38.2610016  16.4309998  10.2320004  38.9150009
  35.8489990  23.7700005  46.5390015  35.3919983  24.5459995  46.1959991
  35.9700012  24.0020008  47.4700012  24.1219997  13.4680004  64.5169983
  24.8530006  12.8230000  64.1449966  24.0650005  14.0260000  63.7260017
  21.5340004  11.0019999  41.1940002  20.9099998  11.7639999  41.2649994
  21.4230003  10.7659998  40.2649994  22.6030006   9.9969997  56.2680016
  23.1949997  10.7370005  56.1250000  21.8400002  10.2639999  55.7210007
  29.7959995   6.4159999  41.6980019  30.1499996   5.5929999  41.9239998
  29.8439999   6.9610000  42.4729996  23.9710007   3.7040000  51.7970009
  23.7819996   3.7200000  50.8699989  23.4430008   4.3790002  52.2169991
  24.0470009  14.1370001  27.9729996  24.1819992  14.6549997  28.7539997
  23.3579998  14.6719999  27.5240002  33.8139992  35.3510017  32.3019981
  33.5639992  34.7799988  33.0719986  33.0250015  35.9410019  32.2260017
  31.7129993  18.5359993  62.3569984  31.0429993  18.4449997  61.6669998
  31.8789997  17.6000004  62.5239983  27.3740005  21.2730007  43.0289993
  28.0079994  21.4860001  42.2779999  27.3129997  22.1229992  43.4570007
  26.8689995  13.9989996  47.5540009  26.2390003  13.7620001  48.2709999
  27.4169998  14.6910000  48.1679993  21.7889996   5.6680002  45.7630005
  20.9169998   6.2140002  45.7690010  21.3169994   4.7919998  45.9560013
  13.7810001  69.3759995  50.8050003  12.8940001  68.9580002  51.1040001
  14.2740002  69.2350006  51.6329994  31.0039997  12.4530001  35.5270004
  30.8589993  11.6610003  34.9710007  31.3160000  13.0769997  34.8170013
  17.9500008  17.0170002  44.0670013  17.5499992  16.2310009  44.4609985
  17.7380009  17.7040005  44.7490005  26.1620007  27.2310009  37.9720001
  26.8470001  26.6079998  38.2190018  26.4839993  28.0599995  38.3419991
  19.3899994  15.1960001  50.2389984  19.0799999  15.7290001  49.4620018
  19.6119995  14.3629999  49.6220016  16.1560001  14.5839996  47.8129997
  16.5909996  15.3389997  48.2210007  16.1709995  13.9169998  48.5379982
  22.1159992  13.1610003  57.2809982  21.7579994  12.5810003  56.6300011
  21.4449997  13.8760004  57.2509995  29.6790009  12.1949997  63.6879997
  30.0830002  11.5469999  64.3099976  29.5200005  11.6059999  62.9169998
  22.8759995  19.9839993  59.7210007  22.2189999  20.0179996  60.4119987
  22.6860008  19.1189995  59.3349991  23.8589993  22.1849995  32.5079994
  24.1879997  22.4410000  33.4500008  24.2229996  21.2679996  32.5289993
  23.5830002   4.2059999  49.2210007  23.7880001   4.6810002  48.3680000
  23.9090004   3.2700000  48.9749985  25.3540001   7.2220001  47.9239998
  25.3339996   6.6789999  48.6959991  26.0939999   7.8449998  48.1489983
  26.6200008   6.3130002  56.8650017  26.4890003   5.3940001  56.5270004
  25.8500004   6.7760000  56.5610008  38.8499985  15.8950005  53.7980003
  38.0569992  16.4750004  53.8339996  38.5089989  15.0419998  53.6320000
  36.5130005  16.9039993  53.0699997  35.6590004  16.4559994  53.3219986
  36.3139992  17.8279991  53.3720016  29.1569996  21.5209999  62.6170006
  28.2220001  21.1690006  62.7970009  29.5240002  21.1980000  63.5070000
  21.7089996  16.5860004  47.0589981  21.3500004  16.5990009  46.1259995
  22.6320000  16.3750000  46.8569984  23.6170006  17.5720005  68.6849976
  23.9759998  18.0230007  67.8830032  24.3840008  17.0000000  68.9300003
  17.3449993  17.3920002  57.7509995  17.5470009  16.8740005  56.9679985
  17.1900005  16.7779999  58.4589996  25.2159996  11.6960001  56.4980011
  25.9009991  10.9849997  56.4029999  25.0869999  11.9670000  55.5950012
  23.6910000  28.2679996  48.7400017  24.4720001  28.8409996  48.6629982
  24.0620003  27.4990005  49.2309990  12.0690002   7.2519999  57.9059982
  12.2390003   6.2940001  58.1949997  12.8170004   7.3099999  57.2729988
  18.5680008  27.7269993  44.2519989  17.9669991  27.0809994  44.5970001
  19.4349995  27.3920002  44.5900002  20.0620003   4.6009998  27.0419998
  20.0580006   5.4250002  27.5750008  19.2180004   4.1510000  27.3889999
  16.8600006  27.7700005  48.0629997  17.7059994  28.1830006  48.2509995
  16.2830009  28.3250008  48.6069984  24.2560005   2.4600000  60.2739983
  24.6569996   2.6849999  61.1040001  23.6940002   1.7110000  60.6170006
  19.6100006  13.1499996  48.4869995  19.3419991  13.3839998  47.5989990
  20.5900002  13.0380001  48.3129997  25.5340004  15.0489998  65.9860001
  24.9489994  15.7570000  66.0350037  25.0410004  14.4189997  65.4449997
  36.1150017  17.4599991  50.4510002  35.9090004  16.6130009  50.0629997
  36.2579994  17.2679996  51.3849983  26.9410000  14.8559999  58.9770012
  26.9570007  15.4139996  58.2270012  26.0610008  14.3730001  58.8190002
  23.5990009  14.5410004  51.8919983  22.9979992  13.8299999  52.1520004
  24.4319992  14.1630001  52.1529999  22.9680004  24.4309998  51.4690018
  23.3859997  23.9790001  52.2970009  23.3700008  23.8349991  50.8320007
  29.6830006  23.0949993  38.6259995  30.1110001  23.2940006  37.7989998
  29.6089993  22.1189995  38.5480003  33.6669998  20.6219997  51.5769997
  34.4220009  21.0109997  52.1559982  33.4659996  21.3680000  51.0060005
  25.1439991  20.2679996  61.1479988  24.2889996  20.1499996  60.6209984
  25.7859993  19.9880009  60.4000015  31.6180000   5.7550001  61.7999992
  31.5650005   5.0749998  61.1380005  31.2689991   6.5799999  61.3909988
   8.6210003  28.1459999  51.9210014   7.7760000  27.9759998  51.3979988
   9.2550001  28.2530003  51.1800003  14.4980001  27.2469997  54.3510017
  14.4949999  28.0219994  54.9860001  14.6269999  27.7999992  53.4830017
  10.9099998  15.1320000  48.9679985  10.2150002  14.7340002  49.5530014
  11.5459995  14.3290005  48.9459991  40.2669983  40.8810005   1.7410001
  40.8339996  41.7130013   1.7589999  39.5320015  41.2039986   2.2869999
  19.3799992  18.7859993  60.6599998  19.5990009  19.4510002  61.2949982
  19.4990005  19.1879997  59.8030014  22.2950001   3.0360000  32.7360001
  21.9850006   3.4100001  33.6139984  23.0790005   3.6780000  32.6339989
  17.1700001   0.9520000  47.4259987  17.7089996   1.6790000  47.8149986
  16.5419998   1.4670000  46.8580017  70.0490036  74.1959991  43.2449989
  70.1449966  73.5390015  43.9350014  70.6900024  73.9329987  42.5830002
  22.6690006   7.6090002  29.3770008  23.3169994   7.1240001  29.9160004
  23.2719994   8.1309996  28.7989998  31.8740005  14.3509998  54.3810005
  31.3829994  13.5520000  54.0870018  32.3269997  13.9639997  55.2089996
  28.0100002   2.4960001  50.5079994  27.6959991   2.8710001  49.6549988
  28.1800003   1.5720000  50.2070007  31.0690002   7.7500000  58.0349998
  31.3619995   8.6879997  57.7610016  30.3560009   7.6409998  57.3849983
  17.5979996   8.9630003  44.2159996  17.7500000   9.9230003  43.9659996
  17.7509995   8.5100002  43.3849983  16.2660007   6.8769999  40.2630005
  16.4260006   6.4650002  41.1170006  16.7789993   7.7300000  40.3160019
  10.1309996  15.5799999  53.2340012  10.3190002  15.3050003  52.3199997
   9.5240002  14.8889999  53.5620003  31.4109993   5.3600001  47.9630013
  32.3839989   5.6780000  47.9799995  31.6410007   4.4400001  48.2610016
  49.1809998  35.7910004  -7.1939998  49.5719986  36.5079994  -7.6479998
  48.2570000  36.0810013  -6.9689999  24.8820000  19.7029991  51.0390015
  24.9239998  18.7619991  51.0439987  24.5149994  19.9270000  51.9360008
  19.7250004   7.7770000  55.2179985  20.1940002   8.3680000  54.5550003
  20.4330006   7.1350002  55.4739990  30.5289993  14.7740002  58.1619987
  30.7970009  15.5400000  58.6980019  29.9489994  15.1660004  57.4830017
  27.9769993  25.2329998  38.6500015  28.3199997  24.4050007  38.4199982
  28.7980003  25.7549992  38.7459984  26.8150005  50.7490005  -2.3980000
  26.4139996  50.6520004  -1.5210000  27.7369995  50.8310013  -2.1900001
  34.5999985  24.7530003  42.7970009  33.8240013  24.1250000  42.8600006
  35.2809982  24.1770000  43.1510010  21.8250008  29.7840004  50.6640015
  20.8850002  29.4109993  50.7500000  21.8610001  30.0930004  49.7509995
  27.1879997  24.3530006  41.2220001  27.3899994  24.8990002  40.3839989
  26.3680000  23.8899994  40.8979988  20.8339996  16.1989994  54.5270004
  21.1779995  17.0830002  54.8499985  20.2740002  16.5610008  53.7779999
  15.0990000  12.5100002  44.8160019  14.9580002  12.2799997  45.7659988
  14.2530003  12.2609997  44.4189987  19.4740009   5.8319998  48.9669991
  19.0900002   5.4540000  49.7560005  19.9150009   5.1389999  48.5299988
  27.7129993  16.3239994  52.6399994  28.6660004  16.2549992  52.7719994
  27.5680008  17.2339993  52.4150009  21.0720005   8.9139996  37.1749992
  21.4179993   9.1850004  36.2900009  20.1690006   8.6800003  36.9819984
  29.9740009  21.5610008  68.3909988  30.8509998  21.1949997  68.7099991
  29.4440002  20.7749996  68.3059998  25.7679996  10.8889999  61.1920013
  26.2789993  11.0150003  62.0299988  25.2180004  11.7279997  61.3240013
  52.3409996  41.2169991   2.0369999  53.3160019  41.2649994   1.9840000
  52.2239990  40.6839981   2.8570001  23.4440002   8.3769999  32.4189987
  23.8990002   7.9419999  31.7099991  22.4939995   8.1929998  32.1720009
  23.3230000   6.0799999  54.3069992  23.3880005   5.2930002  54.9410019
  22.5669994   5.7600002  53.7779999  20.5540009   7.5929999  50.9430008
  21.4470005   7.5760002  50.5730019  20.0949993   7.0130000  50.3339996
  30.1100006  -2.6029999  43.5439987  30.5020008  -1.7690001  43.8110008
  29.6019993  -2.8169999  44.3510017  22.3230000  26.8789997  45.6629982
  21.9880009  27.4610004  46.4210014  22.7810001  27.5079994  45.1300011
  32.8359985  13.0459995  56.7570000  32.0839996  13.1440001  57.3660011
  33.5130005  12.7790003  57.3590012  37.9189987  19.0370007  65.7139969
  38.3839989  18.3220005  65.2910004  37.2620010  18.5480003  66.2679977
  24.5470009  16.2299995  46.2760010  24.7000008  15.3170004  46.6510010
  25.4200001  16.6329994  46.5839996  30.3630009  27.2010002  38.9059982
  30.6459999  28.1490002  38.9599991  30.8929996  26.8889999  39.6899986
  40.2379990   5.6370001  44.1920013  39.7599983   6.0929999  44.9669991
  40.1209984   4.6890001  44.4189987  21.1009998  15.8789997  42.0460014
  21.4430008  15.7399998  41.0859985  20.2919998  16.3630009  41.7319984
  36.7080002  19.7350006  47.5340004  36.0649986  20.2409992  47.0099983
  36.1739998  19.5459995  48.3569984  30.6410007  12.4919996  59.3030014
  29.6949997  12.2930002  59.5340004  30.4850006  13.4350004  58.9539986
  42.4799995  25.4899998  48.8959999  42.1980019  24.5620003  48.8129997
  41.8479996  25.8199997  49.5820007  33.0760002  19.3409996  54.4850006
  32.7360001  18.4340000  54.6040001  32.4300003  19.9120007  54.8709984
  28.7560005   7.7919998  51.3440018  28.8560009   6.9679999  50.8440018
  28.5149994   8.3909998  50.5709991  21.4249992  21.8390007  47.4090004
  21.3820000  22.8050003  47.5040016  20.7749996  21.7250004  46.6629982
  20.5860004   8.4619999  31.6149998  20.7280006   9.1099997  30.9099998
  20.0750008   8.9949999  32.2589989  33.2140007   0.2450000  52.4659996
  32.4739990  -0.1080000  51.9809990  32.8269997   0.7310000  53.1969986
  34.5120010   5.0879998  52.1370010  34.2970009   4.6980000  51.2620010
  33.6329994   5.4390001  52.3880005  46.9959984  39.0649986   1.1109999
  47.1780014  39.6419983   0.3550000  47.9239998  38.9420013   1.4700000
  14.7410002  18.0639992  30.3880005  15.4770002  17.4400005  30.5440006
  14.3540001  17.8540001  29.5739994  18.9340000  22.6350002  45.6699982
  17.9710007  22.3250008  45.5540009  18.8129997  23.0389996  46.5719986
  24.7819996  16.4470005  43.2470016  25.0349998  16.1520004  44.1660004
  25.3570004  15.8409996  42.7120018  29.4950008   0.3850000  46.1739998
  29.2159996   0.4030000  45.2570000  29.7029991   1.3410000  46.2970009
  21.7259998  15.6389999  64.1470032  22.4300003  16.2570000  64.3899994
  21.3029995  15.5240002  64.9940033  16.1240005   8.9840002  48.8709984
  16.6580009   8.4160004  48.2799988  16.7390003   9.7880001  48.8040009
  19.1329994  25.2000008  53.3289986  20.0109997  24.9090004  53.6829987
  18.6280003  24.3209991  53.4189987  23.9990005  19.2980003  55.7500000
  24.1250000  18.4239998  55.2200012  23.3439999  19.0200005  56.3790016
  26.2810001   9.0290003  42.7830009  26.1149998   9.8970003  42.2700005
  26.9710007   8.7279997  42.1170006  30.2299995  18.1429996  54.6489983
  30.4449997  18.7910004  53.9570007  29.6350002  18.7320004  55.1790009
  40.0660019  16.5340004  59.9640007  39.8559990  15.8280001  59.3800011
  39.2099991  16.8409996  60.3310013  15.7270002  23.8999996  63.8959999
  15.0819998  24.3929996  64.4929962  15.8979998  24.6590004  63.2229996
  38.9449997  21.0769997  46.3160019  38.1069984  20.8470001  46.7179985
  39.5419998  21.0860004  47.1100006  27.3099995  18.9780006  52.2490005
  26.4790001  19.4230003  52.0060005  27.5820007  19.6049995  53.0390015
  24.2150002  14.4879999  61.8110008  24.4120007  14.9099998  60.9679985
  23.5370007  13.8669996  61.5839996  41.8800011  19.6700001  49.5209999
  42.8709984  19.7830009  49.6170006  41.9319992  18.6509991  49.5699997
  33.6329994  18.4449997  42.4129982  34.1549988  19.1709995  42.0120010
  33.9770012  18.4559994  43.3310013  35.3180008  21.2530003  45.8829994
  35.5079994  22.1240005  46.2610016  34.6949997  21.5240002  45.1349983
  17.4619999  16.9039993  53.5530014  18.2539997  17.2169991  52.9770012
  16.8589993  16.5879993  52.8629990  30.5289993  21.2849998  60.3139992
  30.0990009  20.9069996  61.1380005  31.1879997  20.6280003  60.1380005
  28.2439995   3.3980000  35.7519989  28.6779995   2.8280001  36.4319992
  27.3220005   3.3550000  36.0690002  28.8600006  12.4350004  42.2550011
  29.3789997  13.2629995  42.0950012  29.3069992  12.0920000  43.0250015
  45.3979988  41.8979988   0.8330000  45.3479996  42.0070000  -0.1370000
  46.2840004  41.6380005   1.0440000  35.7239990  23.6200008  49.7529984
  36.1739998  22.7800007  49.9280014  36.2379990  24.2549992  50.1850014
  34.6780014  19.4069996  49.4519997  34.9860001  18.5009995  49.7430000
  34.4259987  19.7910004  50.3520012  32.7599983  23.2080002  52.8199997
  32.9399986  23.1700001  51.8470001  33.6419983  23.4239998  53.1809998
  57.6959991  51.6170006  54.0099983  57.3950005  52.4440002  54.5110016
  58.3149986  52.0120010  53.4179993  56.0709991  48.1160011  53.9179993
  55.9790001  47.7140007  54.8019981  55.4760017  47.5800018  53.3750000
  58.3580017  41.0900002  52.8030014  57.4239998  41.1090012  52.4910011
  58.2340012  41.4410019  53.7109985  48.0779991  59.5890007  52.9090004
  47.2939987  59.4140015  53.5680008  48.1920013  58.6590004  52.6240005
  40.4070015  66.7570038  49.7360001  40.9669991  66.0380020  49.4389992
  40.5190010  67.4209976  49.0550003  47.3390007  62.6380005  53.5050011
  47.6040001  61.7000008  53.4029999  47.6590004  62.7680016  54.4690018
  51.4690018  48.0639992  75.5530014  51.3339996  48.3820000  74.6240005
  51.2140007  48.8400002  76.0670013  55.6510010  46.1910019  55.8059998
  54.6860008  46.2659988  55.9140015  55.9860001  46.0480003  56.6529999
  58.4129982  62.7010002  47.6139984  58.0110016  63.2910004  48.2980003
  57.8559990  61.9090004  47.7480011  57.2350006  54.0620003  55.1730003
  56.8180008  54.4869995  55.9700012  56.6479988  54.4420013  54.4720001
  49.2560005  61.4780006  44.2789993  48.5999985  61.2280006  44.9080009
  49.0470009  60.8889999  43.5419998  48.7480011  60.8510017  55.7050018
  48.3240013  60.8740005  56.5289993  48.3310013  60.0410004  55.2799988
  40.9519997  58.8359985  54.8689995  40.8100014  58.0919991  55.4889984
  40.8489990  59.6049995  55.5320015  58.6910019  68.9520035  45.0009995
  58.0530014  69.2939987  45.6899986  58.7760010  69.7689972  44.4840012
  50.8300018  65.3740005  37.8540001  50.6619987  64.5780029  37.3419991
  49.9210014  65.7689972  37.8810005  60.7239990  63.3569984  60.6389999
  61.2369995  62.5620003  60.2859993  59.7989998  62.9669991  60.5260010
  44.9039993  66.9970016  55.4939995  44.4659996  66.5439987  56.2070007
  44.7140007  67.9290009  55.7630005  62.6790009  62.1570015  40.3009987
  61.8769989  61.7299995  40.6669998  62.3709984  62.2849998  39.3820000
  58.1870003  55.9420013  40.1870003  57.6119995  55.2490005  40.5260010
  58.2470016  55.5929985  39.2760010  58.1769981  72.3410034  39.1860008
  58.4729996  72.6920013  40.0439987  57.4179993  71.7399979  39.4889984
  68.5780029  55.2319984  55.1450005  68.5039978  54.6780014  54.3699989
  69.0859985  54.7319984  55.7620010  53.4210014  62.3499985  37.1559982
  53.9300003  62.2089996  36.3419991  54.0810013  61.9850006  37.8250008
  55.2410011  62.4739990  44.8680000  55.1440010  63.4259987  44.7739983
  54.4529991  62.2159996  45.3619995  64.4850006  37.2999992  51.8479996
  64.5950012  36.4259987  51.4529991  63.9319992  37.1069984  52.6069984
  30.6189995  68.5189972  57.2239990  30.6359997  67.5550003  57.3639984
  29.7490005  68.7350006  57.6430016  41.9599991  64.2919998  49.9850006
  41.8180008  64.0810013  50.9280014  42.9659996  64.3820038  50.0250015
  66.5070038  45.0890007  41.4589996  65.6399994  45.2719994  41.8730011
  66.2740021  44.9799995  40.5299988  37.9949989  69.0520020  54.9109993
  37.4809990  68.2870026  55.2140007  37.3510017  69.7379990  54.7459984
  44.9150009  68.2799988  50.3559990  45.2649994  67.7450027  49.5769997
  45.3629990  69.1190033  50.1279984  51.8750000  55.2029991  71.4410019
  51.0180016  54.7130013  71.2320023  51.4980011  55.9309998  72.0339966
  49.0569992  61.5169983  51.2150002  49.5979996  61.8930016  51.9459991
  48.8839989  60.6479988  51.6679993  59.1170006  64.0210037  45.0270004
  58.9010010  63.5299988  45.8349991  58.7299995  64.9229965  45.1980019
  67.1299973  50.5890007  63.9379997  67.4100037  49.6450005  64.0579987
  67.9150009  51.0859985  64.2610016  58.8390007  67.6070023  48.8269997
  58.0909996  68.2089996  48.9269981  58.7249985  67.0080032  49.5779991
  43.0489998  61.7799988  56.5569992  43.3250008  61.8300018  55.6440010
  42.1739998  61.3120003  56.4749985  59.6980019  54.4959984  46.5970001
  60.5989990  54.8390007  46.5660019  59.1619987  55.3590012  46.4599991
  74.3889999  57.2779999  51.4609985  74.3450012  56.5769997  52.1500015
  74.6299973  58.0559998  52.0190010  55.6259995  43.5120010  53.9350014
  56.3699989  43.5470009  54.5699997  54.9210014  43.3549995  54.6220016
  61.9420013  56.2360001  46.6339989  62.8110008  55.8419991  46.8940010
  62.0550003  57.1370010  46.9570007  53.2029991  65.8499985  47.7330017
  53.9459991  65.8259964  47.0639992  52.5509987  66.4049988  47.2389984
  63.1730003  71.8460007  31.1900005  62.4780006  72.1480026  30.5739994
  63.9099998  72.4229965  30.7840004  48.1679993  67.6750031  40.3779984
  48.2459984  66.8759995  40.9389992  49.0839996  67.9469986  40.3230019
  50.3969994  58.0499992  40.9389992  50.1870003  57.3190002  40.3390007
  51.2570000  57.7029991  41.3419991  48.0979996  66.5660019  64.8499985
  47.8639984  67.5210037  64.8450012  48.6389999  66.4919968  65.6380005
  50.1259995  59.8839989  47.2980003  49.8460007  60.6669998  47.8510017
  49.7430000  59.1689987  47.8629990  50.0429993  61.5159988  59.1910019
  50.7680016  61.5040016  58.5519981  49.5839996  60.6689987  58.8429985
  53.0130005  56.0709991  43.9640007  52.6349983  56.4659996  43.1419983
  53.9280014  56.4210014  43.9620018  63.5390015  69.5989990  52.9210014
  64.1250000  70.1389999  52.3120003  62.7999992  70.2279968  53.0169983
  64.5189972  55.2080002  47.0540009  64.8700027  55.5810013  47.8889999
  64.3649979  54.2840004  47.2229996  57.9749985  56.4959984  46.0169983
  57.6910019  56.7879982  45.1520004  57.0950012  56.3400002  46.4319992
  45.8769989  48.4799995  64.9929962  46.5559998  47.7760010  64.9680023
  45.1220016  48.0050011  64.5830002  51.7060013  57.3260002  51.4700012
  51.7649994  56.5810013  50.7789993  52.5190010  57.7929993  51.2900009
  43.6450005  74.9390030  54.2000008  44.2890015  74.8410034  54.9700012
  44.1910019  74.3720016  53.5320015  60.3559990  52.8580017  52.8120003
  61.1310005  52.6300011  52.2410011  60.7919998  53.3320007  53.5130005
  48.6310005  58.0530014  57.0579987  49.2859993  58.2960014  57.7809982
  49.1679993  57.3279991  56.6040001  53.8479996  65.1989975  52.8030014
  53.5000000  66.1250000  52.5830002  53.6959991  64.8160019  51.8899994
  39.2970009  70.0559998  52.5960007  40.2519989  69.9469986  52.4459991
  39.2050018  69.3820038  53.3279991  57.3880005  58.3909988  41.1629982
  57.2410011  58.2760010  42.0789986  57.8559990  57.5410004  40.9099998
  53.5989990  60.4329987  60.2140007  54.5470009  60.4510002  60.0839996
  53.2960014  61.2039986  59.6720009  64.3690033  51.9189987  51.9570007
  65.1330032  51.3450012  52.0089989  63.7480011  51.3260002  51.4420013
  35.2980003  64.6839981  54.2929993  35.1240005  64.2789993  55.1749992
  34.9850006  65.6029968  54.3959999  64.0739975  54.9679985  44.2519989
  64.2630005  55.1220016  45.2330017  64.6460037  55.6990013  43.9020004
  58.3849983  52.6699982  48.6889992  58.6450005  53.2130013  47.9029999
  59.1699982  52.6440010  49.2220001  55.7039986  55.4259987  46.7970009
  55.3629990  55.2840004  45.8889999  55.5600014  54.5229988  47.1969986
  50.3489990  52.1570015  58.1599998  49.4799995  51.9169998  58.5859985
  50.6529999  52.8810005  58.7169991  61.6500015  61.4840012  37.7630005
  61.5859985  61.0769997  36.8450012  61.2879982  62.3219986  37.5429993
  62.5870018  56.5719986  53.3940010  62.9869995  55.6780014  53.5340004
  61.7830009  56.2500000  52.9309998  65.2929993  65.7269974  47.0559998
  64.9339981  65.7760010  46.1759987  64.4919968  65.7220001  47.6389999
  47.7179985  62.4070015  37.2270012  47.2150002  61.6290016  36.9220009
  47.1689987  63.1860008  37.0649986  59.9879990  76.0100021  41.5550003
  60.2309990  76.1380005  42.4930000  59.7709999  76.9639969  41.3199997
  64.9390030  61.1650009  52.9210014  64.4970016  60.4309998  53.3880005
  64.9250031  60.8359985  52.0000000  78.3550034  61.6570015  53.3590012
  79.1989975  61.8100014  52.9249992  77.7600021  61.8759995  52.6189995
  60.7210007  58.2890015  51.1150017  60.4729996  58.2229996  50.1529999
  60.7019997  57.3209991  51.3709984  54.4900017  75.2210007  53.7729988
  54.4220009  76.1920013  53.7649994  55.2599983  75.1320038  53.1780014
  60.8979988  71.6009979  52.2249985  60.2389984  72.2500000  52.3289986
  60.5989990  71.0070038  51.5730019  57.9350014  68.5299988  52.7000008
  58.7719994  67.9329987  52.8209991  57.2729988  67.9160004  52.9980011
  58.2369995  46.4319992  53.5660019  57.3989983  46.8230019  53.5540009
  58.3540001  46.0509987  52.6409988  41.3839989  64.0660019  47.0480003
  41.5340004  63.3720016  46.4150009  41.9869995  63.8479996  47.7789993
  49.8600006  57.4790001  43.9449997  49.4770012  57.7410011  43.1160011
  49.0820007  57.4700012  44.5499992  66.0270004  50.5769997  36.9860001
  65.7710037  51.4980011  36.9780006  66.5299988  50.5550003  37.8660011
  55.8260002  56.7649994  44.2900009  56.6139984  57.3120003  43.9879990
  55.2120018  57.5789986  44.3489990  61.9339981  73.7160034  44.3040009
  62.2620010  73.2890015  45.1360016  62.7010002  73.4810028  43.7500000
  64.3450012  55.8849983  60.1829987  63.9449997  55.3269997  60.9119987
  64.5429993  55.1940002  59.5359993  26.3390007   4.8880000  43.6520004
  26.7770004   5.5599999  44.2659988  26.2240009   5.5650001  42.8750000
  47.6650009  57.6959991  45.2939987  47.6539993  57.2439995  46.1110001
  46.6860008  57.8499985  45.1310005  17.4759998   0.2680000  39.8019981
  17.6900005  -0.6550000  40.1049995  17.7530003   0.2550000  38.9090004
  56.9000015  70.6090012  46.5250015  56.1809998  70.2379990  45.9259987
  56.9860001  71.4570007  46.0489998  47.7809982  60.7019997  46.3530006
  47.1489983  59.9869995  46.4650002  48.6069984  60.2729988  46.4059982
  48.8540001  49.9199982  41.2779999  48.1910019  50.0830002  40.5820007
  49.6180000  50.3670006  40.8969994  56.4280014  57.7910004  55.2410011
  56.0559998  57.1139984  55.7789993  56.2229996  57.5400009  54.3549995
  62.5800018  62.9560013  57.0870018  63.3129997  63.5940018  56.9430008
  62.0999985  63.0190010  56.2420006  55.1129990  55.1469994  53.6969986
  54.4650002  55.8520012  53.7830009  54.4819984  54.4029999  53.3680000
  53.5589981  60.8030014  51.9650002  53.6150017  59.8779984  51.6580009
  54.2840004  61.2379990  51.5110016  57.7830009  62.7849998  37.7620010
  57.9109993  61.9809990  37.1819992  58.6879997  63.1469994  37.6809998
  57.4640007  79.9660034  46.7369995  57.3860016  79.3389969  45.9679985
  56.5439987  80.3140030  46.7439995  54.9799995  60.2120018  48.3129997
  55.8680000  60.0890007  47.9760017  54.6040001  59.3190002  48.2840004
  58.5589981  66.5510025  58.8089981  58.7179985  66.0650024  59.6160011
  59.4900017  66.7060013  58.5439987  46.8419991  61.5989990  49.6269989
  47.6619987  61.3530006  50.1529999  46.7649994  60.7220001  49.1450005
  66.6989975  63.2570000  23.1620007  67.1510010  63.0699997  22.3439999
  66.8590012  62.3709984  23.6399994  59.9379997  54.8190002  55.7150002
  58.9990005  54.5600014  55.5999985  59.8919983  55.7750015  55.8629990
  68.6559982  59.2639999  60.9980011  68.5049973  58.2929993  61.1500015
  68.3050003  59.2960014  60.0309982  58.0519981  60.0260010  39.1500015
  58.9570007  60.3190002  39.4389992  57.7179985  59.5649986  39.9459991
  57.0929985  70.8570023  34.8989983  56.8129997  71.8180008  34.9109993
  57.8660011  70.8410034  34.3489990  49.2109985  59.5099983  63.2179985
  49.7480011  59.7290001  62.4329987  49.8400002  59.8120003  63.9290009
  42.8590012  66.6829987  47.1139984  43.4889984  66.9919968  46.4889984
  42.6360016  65.8209991  46.7620010  46.7700005  59.0610008  48.3219986
  45.9339981  58.6220016  48.6500015  47.4049988  58.4799995  48.8079987
  63.4059982  72.6689987  46.2290001  64.2959976  72.9400024  46.3009987
  63.3139992  71.9889984  46.8899994  53.9210014  51.1889992  59.1380005
  53.2509995  50.5019989  58.8810005  54.7010002  50.8030014  58.7610016
  65.2919998  63.6819992  51.6720009  64.6559982  64.1279984  52.2369995
  65.5790024  62.9580002  52.2770004  44.8699989  61.5839996  53.6279984
  44.9700012  60.6129990  53.6500015  45.7490005  61.8860016  53.5719986
  63.7379990  62.3460007  46.2010002  64.2559967  62.7849998  46.8779984
  62.9319992  62.9309998  46.0750008  59.0320015  57.8829994  54.5429993
  59.1279984  58.8429985  54.5820007  58.0620003  57.8769989  54.8300018
  51.9739990  55.5999985  46.4109993  52.2840004  55.9860001  45.5509987
  51.1080017  55.3520012  46.1879997  46.8569984  65.9260025  47.2570000
  46.2229996  66.0080032  46.5359993  46.6459999  65.0380020  47.5530014
  60.7620010  59.1479988  43.1389999  61.4480019  59.3870010  42.5099983
  61.0489998  58.2270012  43.3709984  56.4039993  51.8940010  58.2369995
  56.3069992  52.2869987  59.1170006  57.3419991  52.0200005  58.0439987
  54.9230003  61.5730019  42.3460007  55.1150017  61.7929993  43.3100014
  54.1790009  62.1459999  42.2179985  66.4100037  73.7600021  51.1180000
  66.7730026  73.7399979  50.1930008  65.9449997  74.6350021  51.1510010
  58.6389999  65.9089966  51.0859985  59.3300018  65.4300003  51.5470009
  57.9480019  65.8730011  51.7480011  45.1479988  53.6489983  61.6500015
  46.0890007  53.6189995  61.6930008  44.9430008  54.6250000  61.8089981
  46.3559990  64.9850006  52.8720016  46.7789993  64.1309967  53.1290016
  47.0830002  65.6320038  53.0470009  55.1769981  69.8850021  44.8559990
  54.5169983  70.4400024  44.3950005  54.9179993  69.0019989  44.5050011
  63.9580002  72.1250000  48.8320007  64.8280029  71.7389984  48.8930016
  63.8730011  72.5879974  49.6839981  49.1180000  57.0359993  51.9550018
  49.3709984  56.1489983  52.2949982  50.0419998  57.3919983  51.8400002
  48.0429993  57.4599991  60.7490005  47.5449982  57.2700005  59.9160004
  48.6889992  58.1279984  60.4480019   7.6450000  10.6309996  55.8769989
   7.3829999   9.7209997  55.7190018   8.0360003  10.5469999  56.7919998
  63.5489998  58.9679985  54.1580009  63.2379990  58.0279999  54.0330009
  64.0879974  58.8129997  54.9410019  56.6710014  56.7010002  52.1259995
  56.0750008  56.1380005  52.6660004  56.8769989  56.0169983  51.3860016
  63.8610001  66.9199982  57.2630005  63.6100006  67.3270035  56.4090004
  64.3820038  66.1620026  56.9420013  56.7400017  50.3190002  48.5449982
  56.7770004  49.7620010  49.3479996  57.1150017  51.1380005  48.9550018
  50.5149994  64.5670013  55.6549988  50.8530006  65.3430023  55.1010017
  50.1189995  65.0849991  56.3989983  57.5639992  54.1100006  51.2750015
  56.7639999  53.4980011  51.3689995  57.9469986  53.6129990  50.4329987
  54.7299995  65.0070038  43.7350006  53.9090004  64.5859985  43.3120003
  55.2620010  65.1330032  42.8820000  54.4080009  57.4550018  48.2340012
  53.6339989  56.8680000  48.3670006  55.0209999  56.7239990  47.8180008
  58.1749992  61.0960007  52.9049988  57.2550011  61.3919983  52.7319984
  58.1870003  60.2999992  52.3549995  58.1930008  58.6399994  43.8619995
  58.2200012  59.4630013  44.4099998  59.1930008  58.6310005  43.6559982
  52.0250015  55.7550011  49.3470001  52.2430000  54.7919998  49.4560013
  52.1300011  55.7900009  48.3409996  55.1300011  62.9529991  57.0110016
  54.3979988  62.7029991  56.3120003  55.6300011  62.1220016  56.9749985
  51.1170006  67.8880005  40.9650002  51.5110016  68.3899994  41.7190018
  51.1949997  68.5070038  40.2770004  75.1940002  60.4239998  42.7000008
  74.2580032  60.4990005  42.4280014  75.1770020  59.5719986  43.2570000
  63.9809990  67.8050003  42.2500000  64.8109970  68.2819977  42.2089996
  63.5289993  68.2649994  43.0099983  48.2630005  48.0919991  61.5379982
  47.9189987  48.9570007  61.8479996  48.9150009  47.9589996  62.2470016
  77.9980011  66.4789963  43.9319992  77.3150024  65.9010010  43.6650009
  77.5699997  67.0080032  44.6110001  49.9700012  67.2570038  51.2739983
  50.4720001  66.4280014  51.1860008  49.2200012  66.9929962  51.8639984
  40.2039986  71.5520020  46.8909988  40.3670006  71.1500015  46.0550003
  39.2360001  71.4049988  47.0309982  42.5989990  73.3119965  43.9059982
  42.0940018  72.4879990  43.9529991  41.8800011  73.9410019  43.6619987
  59.1739998  65.6669998  55.7630005  58.2770004  65.5630035  55.4959984
  59.0709991  66.1100006  56.6660004  55.6710014  62.7019997  39.5589981
  56.4770012  62.2910004  39.2340012  55.5000000  62.0680008  40.3450012
  53.2140007  57.2939987  53.8149986  52.3750000  57.3180008  53.3269997
  53.2309990  58.1389999  54.2760010  64.9270020  60.7350006  59.9729996
  65.5960007  61.1160011  60.6500015  65.5830002  60.2729988  59.3979988
  71.1829987  59.7480011  51.3009987  70.8479996  59.6570015  50.3930016
  72.1399994  59.8940010  51.1030006  53.0909996  50.9840012  42.9379997
  53.2039986  51.9039993  43.3940010  53.4819984  50.4169998  43.6660004
  55.4109993  52.9539986  47.4930000  54.7340012  52.2599983  47.3419991
  56.0940018  52.4430008  47.9290009  54.2340012  62.4869995  54.3149986
  54.0979996  61.8950005  53.5550003  53.7649994  63.2879982  53.9539986
  74.3330002  54.9749985  53.1549988  74.5120010  55.5509987  53.9869995
  75.1640015  54.4010010  53.2630005  77.8769989  61.4920006  57.3699989
  78.7340012  61.3759995  57.7350006  77.9169998  60.8590012  56.6049995
  59.4690018  50.1710014  51.5009995  59.7989998  51.1040001  51.7550011
  60.1450005  49.5900002  51.8510017  51.9900017  61.3400002  43.4459991
  51.0460014  61.1879997  43.5940018  52.0190010  61.1819992  42.4939995
  48.0009995  53.1349983  45.6380005  48.7879982  53.7249985  45.4440002
  47.4760017  53.6940002  46.2789993  51.7890015  58.2770004  38.3380013
  51.2669983  57.4350014  38.5379982  52.5439987  57.8709984  37.8820000
  52.7309990  53.1879997  49.3769989  52.6119995  52.2130013  49.5970001
  53.3829994  53.0559998  48.5909996  66.4619980  48.5699997  47.1459999
  66.6060028  49.2029991  47.8810005  66.7500000  49.0260010  46.3750000
  60.6199989  55.7360001  59.7589989  60.8930016  56.5769997  60.2729988
  60.2869987  56.2649994  58.9440002  62.0600014  70.1149979  59.1230011
  62.5670013  69.3610001  59.5060005  62.3059998  70.8369980  59.7570000
  46.6199989  70.0339966  48.9830017  47.1609993  69.7200012  48.2120018
  45.8629990  70.4179993  48.5190010  57.9370003  75.5350037  33.1360016
  57.5219994  75.6320038  32.2490005  58.7709999  75.0800018  32.8870010
  58.3160019  62.8400002  59.3800011  58.2579994  61.9249992  59.7610016
  57.4990005  63.2130013  59.8460007  63.8619995  57.7599983  31.4190006
  63.2389984  56.9710007  31.5419998  64.1210022  57.5750008  30.4829998
  65.9309998  50.3909988  49.5079994  66.0370026  49.5460014  49.9620018
  66.3909988  51.0260010  50.0530014  61.6539993  48.3930016  48.1539993
  61.2369995  49.2449989  47.8540001  62.0340004  48.1230011  47.3009987
  71.2959976  48.6660004  52.4410019  71.8170013  47.8880005  52.6100006
  70.3779984  48.3590012  52.4570007  69.8560028  53.5929985  58.3849983
  69.4550018  52.7809982  58.6910019  69.1669998  54.0639992  57.8829994
  58.7890015  64.1900024  65.9359970  58.0209999  63.7680016  65.5889969
  59.4020004  64.1979980  65.1829987  44.9059982  63.5680008  50.6520004
  45.4000015  64.0500031  51.3180008  45.6510010  62.9910011  50.2470016
  48.3810005  66.9789963  53.6040001  47.9480019  67.8659973  53.5970001
  49.3139992  67.2419968  53.6969986  34.2080002  68.7099991  56.7750015
  34.7770004  69.4560013  57.1829987  33.3520012  69.1869965  56.8040009
  60.0999985  50.9589996  39.2770004  59.6570015  50.3339996  38.6599998
  59.3149986  51.4840012  39.5239983  60.7490005  47.7589989  53.0379982
  59.9539986  47.1969986  53.3790016  60.7010002  47.3670006  52.0970001
  44.9840012  60.2849998  60.0089989  45.4529991  60.4350014  60.8170013
  44.6739998  59.3549995  60.1080017  53.4799995  71.4449997  47.2319984
  54.0719986  70.7949982  46.8359985  53.4720001  71.0439987  48.1749992
  47.1150017  60.1209984  67.3050003  47.9710007  60.2099991  66.9290009
  46.8289986  61.0830002  67.3990021  51.4560013  59.2649994  61.3580017
  52.1619987  59.6769981  60.7379990  51.8769989  59.8089981  62.1500015
  71.0039978  57.1160011  54.5000000  70.9820023  56.4710007  55.2550011
  70.4729996  56.5890007  53.8370018  56.1389999  62.6320000  64.9680023
  55.8100014  63.2659988  64.2799988  55.7840004  61.7939987  64.5270004
  42.3429985  56.6069984  56.0130005  42.0429993  56.0229988  56.7509995
  43.3129997  56.3489990  56.0340004  60.8670006  59.9459991  40.1819992
  61.0200005  58.9980011  40.3650017  61.4039993  60.0760002  39.3919983
  49.9070015  54.8240013  44.6300011  50.0050011  55.7260017  44.3400002
  50.1269989  54.3079987  43.8199997  64.1539993  46.6699982  41.2490005
  64.7129974  47.4830017  41.0680008  63.9350014  46.8989983  42.1759987
  67.0889969  54.2809982  60.0499992  66.3899994  54.1710014  60.7350006
  67.6250000  53.4959984  60.3680000  53.3199997  74.9309998  41.6759987
  53.2369995  75.8870010  41.5190010  53.5190010  74.6090012  40.7570000
  59.8559990  58.2290001  48.3409996  60.3079987  58.7690010  47.5800018
  59.4039993  57.6040001  47.7879982  67.3030014  64.5569992  43.5390015
  66.4609985  64.8629990  43.9379997  67.7399979  64.4359970  44.4469986
  63.1160011  75.0879974  57.6539993  62.7540016  74.3980026  58.2140007
  62.5589981  75.8229980  57.8889999  52.0260010  59.6679993  56.0810013
  51.6500015  60.5369987  56.2620010  51.7820015  59.5579987  55.1609993
  53.6629982  70.2710037  49.9770012  52.8489990  70.0049973  50.4749985
  54.0499992  69.3420029  49.8230019  59.4249992  46.8540001  66.9929962
  60.3330002  46.5190010  66.8990021  59.6049995  47.7369995  67.4560013
  60.7190018  73.2300034  47.8370018  61.7089996  73.2630005  47.8279991
  60.4930000  73.9970016  48.3880005  10.8520002   4.2900000  43.7130013
  10.9359999   3.3540001  43.6669998  10.1879997   4.4840002  44.4300003
  20.7910004  10.3269997  49.6119995  19.9990005  10.6320000  50.1209984
  20.9230003   9.4569998  50.0229988  15.6969995   2.3280001  45.5379982
  15.2469997   3.1740000  45.4129982  16.5400009   2.4949999  45.0000000
  66.4629974  67.9700012  38.2809982  66.6220016  68.8899994  38.4580002
  65.7080002  67.7519989  38.8790016  68.8850021  66.0530014  42.1910019
  68.1210022  65.5520020  42.6080017  69.6309967  65.5820007  42.6349983
  65.4729996  59.1809998  45.5600014  65.2030029  58.8930016  44.6969986
  65.9430008  60.0060005  45.3300018  67.8470001  75.6740036  43.5820007
  68.1839981  76.2740021  44.2729988  68.6090012  75.0889969  43.4099998
  74.1660004  66.7990036  43.4449997  74.7839966  66.0510025  43.4070015
  74.1230011  66.9280014  44.3989983  78.1419983  57.1769981  59.0369987
  78.8799973  57.7620010  59.3279991  77.6370010  57.1889992  59.9039993
  24.9820004   6.6770000  30.7870007  25.4430008   5.9860001  31.3360004
  25.7159996   7.3499999  30.7600002  19.9969997   2.1210001  39.6180000
  20.6940002   2.3750000  40.2630005  19.4150009   1.5599999  40.1129990
  66.6159973  71.2580032  57.1119995  67.0080032  71.5339966  56.2669983
  67.0110016  70.3960037  57.2480011  64.0899963  67.4680023  39.5489998
  64.1600037  67.1009979  40.4410019  63.0900002  67.5270004  39.4710007
  15.5459995   3.8699999  55.7910004  14.7480001   3.3550000  55.8720016
  15.7309999   3.9879999  56.7809982  47.0200005  33.1730003  -4.4809999
  46.3479996  32.7649994  -5.0840001  47.6629982  32.3839989  -4.5669999
  65.6880035  66.3740005  51.2700005  65.6869965  65.4059982  51.2869987
  64.7900009  66.5889969  51.6170006  72.3539963  69.1729965  45.3670006
  72.7030029  70.0650024  45.2019997  71.7330017  69.0680008  44.5979996
   0.9810000  14.1499996  48.2669983   1.4590000  14.9779997  48.3139992
   1.6569999  13.5970001  47.8520012  67.8590012  57.5279999  47.2830009
  67.6849976  56.5600014  47.3629990  66.9919968  57.8230019  47.6889992
  14.8140001   2.8950000  51.3699989  14.3629999   2.5710001  50.5379982
  15.6239996   2.3659999  51.2620010  53.3349991  64.5820007  50.1710014
  53.3450012  65.1780014  49.4000015  53.2540016  63.6940002  49.7830009
  60.4920006  69.1539993  55.7249985  59.6389999  69.6849976  55.5540009
  60.2989998  68.8379974  56.6100006  67.4759979  73.5139999  48.3619995
  67.9089966  74.4209976  48.2070007  67.0759964  73.4160004  47.4700012
  59.4370003  76.2870026  55.5489998  60.0299988  76.2639999  54.7630005
  58.6710014  76.7919998  55.1730003  73.2409973  70.6100006  56.3409996
  74.1869965  70.8580017  56.2879982  73.3720016  69.9309998  57.1059990
  61.2369995  66.4079971  36.6879997  61.4410019  66.6380005  37.6139984
  60.4319992  66.9140015  36.5730019  65.0049973  70.6240005  37.1020012
  64.0260010  70.7440033  36.9930000  65.0739975  70.8420029  38.0670013
  67.3850021  58.6259995  42.8440018  67.7190018  58.1689987  43.6170006
  67.4349976  59.5769997  43.0940018  60.5579987  68.2949982  52.8989983
  60.6419983  68.7190018  53.7879982  60.5610008  67.3710022  53.1220016
  62.8050003  67.2519989  51.2280006  62.7229996  67.9909973  51.8019981
  61.9449997  66.7819977  51.3419991  15.6400003   4.5770001  35.3400002
  16.0279999   4.6079998  36.2319984  15.7100000   5.5079999  35.0690002
  63.5909996  57.0320015  49.2439995  62.9720001  57.4099998  49.8520012
  63.7560005  56.1500015  49.5309982  66.0319977  69.8980026  42.4370003
  66.5179977  70.5579987  41.9189987  66.3489990  70.0820007  43.3520012
  18.9979992   2.9700000  37.1160011  19.2689991   2.5150001  37.9080009
  19.1030006   2.3190000  36.4080009  63.9319992  73.1439972  42.5779991
  64.8300018  73.4440002  42.2550011  64.0210037  72.2009964  42.3590012
  61.3019981  67.3470001  39.3269997  60.4959984  66.9599991  39.5919991
  60.9560013  68.3020020  39.1110001  29.8829994   5.5500002  35.9970016
  29.2520008   6.1199999  36.5139999  29.5109997   4.6630001  36.1170006
  70.9609985  70.4010010  50.5229988  71.2570038  69.8020020  49.8040009
  71.7229996  70.2720032  51.1250000  72.5670013  63.4840012  57.7900009
  72.4680023  63.8590012  58.6549988  72.1190033  62.6139984  57.8740005
  57.4480019  83.6569977  44.9099998  56.9910011  83.9540024  45.7050018
  57.2949982  82.6780014  44.9519997  12.9289999  11.7650003  58.1940002
  13.7110004  11.2309999  58.2459984  12.7639999  11.6840000  57.2089996
  65.5910034  69.0810013  47.0209999  65.6740036  69.6549988  47.8160019
  65.7440033  68.1999969  47.3969994  61.2400017  72.6289978  39.8919983
  60.6240005  72.7939987  40.6360016  61.7799988  71.9029999  40.2980003
  56.8880005  75.8970032  49.9049988  56.4059982  75.4469986  49.1450005
  56.9259987  76.8209991  49.5379982  71.0059967  66.5059967  50.6800003
  71.0569992  67.2900009  50.0730019  70.0530014  66.4010010  50.8750000
  63.2680016  74.0199966  50.6790009  62.3909988  74.2389984  51.0620003
  63.7039986  74.8529968  51.0779991  72.7200012  66.7959976  53.0820007
  72.2959976  66.5830002  52.2130013  72.2929993  67.6190033  53.3720016
   3.5910001  11.1800003  48.7970009   3.4240000  12.0279999  48.3209991
   4.5920000  11.2139997  48.9329987  55.2480011  71.6029968  60.3199997
  54.4290009  71.3359985  60.0009995  55.7809982  71.7870026  59.5299988
  37.9949989  40.0369987  -5.3550000  38.4109993  39.2989998  -4.9369998
  37.1010017  39.6609993  -5.5240002  74.9990005  57.2939987  36.0870018
  74.2770004  57.8610001  36.5070000  74.3830032  56.9350014  35.3639984
  59.6189995  76.2440033  48.8059998  58.8139992  76.7259979  48.4760017
  60.2900009  76.6760025  48.2779999  65.0240021  62.6479988  48.9490013
  65.9629974  62.3310013  48.9029999  65.0260010  63.1199989  49.7869987
  70.0410004  73.5120010  32.4339981  70.8180008  74.1080017  32.2779999
  69.4280014  73.9540024  31.7560005  56.1110001  71.3249969  55.6759987
  55.7019997  70.5800018  55.2249985  57.0620003  71.2939987  55.3870010
  68.8629990  69.3880005  54.5349998  68.2409973  69.1149979  55.2449989
  68.4729996  68.8570023  53.8190002   9.1350002  14.1650000  50.8460007
   8.7860003  13.3009996  50.7570000   8.3120003  14.7049999  50.9000015
  74.6750031  10.2989998  45.6100006  74.7850037   9.3990002  45.1889992
  74.1259995   9.9960003  46.3590012  50.5740013  78.1719971  54.3440018
  51.5229988  78.1510010  54.3969994  50.4290009  78.8180008  53.6119995
  60.7369995  73.4950027  55.6030006  61.2830009  73.4059982  54.7919998
  60.4729996  74.4380035  55.5079994  52.9679985  61.7029991  45.8569984
  52.3289986  61.5460014  45.0890007  52.6500015  60.9490013  46.4480019
  61.3009987  76.3529968  53.3190002  61.5730019  77.0230026  52.6899986
  61.0699997  75.6320038  52.7620010  66.7539978  68.2200012  55.9749985
  67.3750000  67.5559998  56.3440018  66.1620026  67.6969986  55.4119987
  69.6309967  67.0749969  39.8849983  69.3180008  66.6809998  40.7369995
  70.0120010  67.8759995  40.1250000  47.9309998  76.8499985  52.0670013
  47.8209991  75.9700012  51.6650009  48.0530014  76.6579971  53.0149994
  56.8199997  71.7919998  58.2570000  57.6860008  71.5920029  57.9119987
  56.2579994  71.2910004  57.5999985  61.3209991  57.8149986  61.1329994
  62.2260017  58.1220016  61.3160019  60.9189987  57.9370003  62.0050011
   1.9430000  54.0050011  49.1669998   1.3830000  53.4749985  48.5130005
   2.7509999  54.1409988  48.5480003  66.5279999  71.0000000  48.9080009
  67.1949997  70.5360031  49.3689995  66.8349991  71.9479980  48.8479996
  56.7430000  75.1409988  45.4900017  56.1240005  75.4069977  46.1829987
  56.4339981  75.3659973  44.6380005  74.6849976  58.9410019  53.3940010
  74.2259979  58.7070007  54.2669983  74.7119980  59.8889999  53.4360008
  64.9010010  71.2089996  51.4059982  65.8059998  71.0459976  51.0719986
  65.0090027  72.0830002  51.8199997  53.9360008  84.1190033  46.2770004
  54.8829994  83.8010025  46.5870018  53.8030014  84.7360001  47.0400009
  62.4169998  69.4540024  49.1839981  62.8590012  68.8470001  49.7939987
  62.9230003  70.2910004  49.3209991  58.8849983  76.9000015  46.0820007
  58.4500008  77.6449966  45.6160011  58.2410011  76.2080002  46.0040016
  51.5079994  66.4550018  44.8129997  51.1940002  65.7330017  44.2220001
  50.8030014  66.3170013  45.5519981  16.5520000  10.2729998  51.2960014
  15.5509996  10.4680004  51.2960014  16.5480003   9.4250002  50.8339996
   8.2349997  12.6160002  47.0810013   7.9499998  12.7650003  46.1389999
   8.6440001  11.7010002  46.9239998  27.8990002  11.0070000  54.4339981
  27.0319996  11.2370005  53.9910011  27.5009995  10.5419998  55.2669983
  70.8109970  59.6139984  53.9679985  70.9290009  59.5800018  52.9939995
  70.7809982  58.6409988  54.1189995  59.1609993  67.6159973  30.0690002
  58.8429985  68.4950027  29.7460003  59.7379990  67.7900009  30.7870007
  68.7870026  59.3629990  48.8279991  69.7419968  59.4210014  48.5499992
  68.5029984  58.7439995  48.0270004  68.8069992  57.5260010  57.5309982
  69.4779968  56.9420013  57.1250000  68.2030029  56.7949982  57.9309998
  59.8899994  73.1900024  42.2410011  60.4179993  73.0260010  43.0699997
  60.0970001  74.1299973  42.0830002  68.3679962  73.1660004  52.9230003
  67.9049988  73.0250015  52.0890007  67.9440002  73.9960022  53.2290001
  67.8119965  70.7220001  38.5940018  67.6320038  71.4420013  38.0270004
  68.7789993  70.6179962  38.5349998  66.0770035  66.1320038  54.3019981
  66.6090012  65.4639969  53.8450012  65.1849976  65.7969971  54.1389999
  39.0859985  42.2459984  -6.6640000  39.0110016  41.4020004  -7.2010002
  38.8050003  41.9109993  -5.7800002  70.0169983  57.0460014  42.0970001
  71.0270004  57.0680008  42.3979988  69.6959991  56.8969994  43.0390015
  68.9469986  66.5989990  47.9239998  69.3509979  66.1060028  48.6220016
  68.4499969  67.2620010  48.4230003  58.5769997  80.2040024  34.4129982
  58.9129982  80.7180023  35.1640015  59.3720016  79.9110031  34.0400009
  57.2140007  72.6220016  44.7809982  57.1300011  73.5579987  45.0900002
  56.8079987  72.7149963  43.9070015  69.8339996  53.1290016  36.0369987
  70.5719986  52.6590004  36.5600014  69.9879990  52.6549988  35.2179985
  76.9309998  57.1930008  49.4399986  76.1119995  56.8909988  48.9970016
  77.5950012  56.6010017  48.9879990  71.2939987  67.8669968  37.4760017
  71.7850037  67.6999969  36.6259995  71.9919968  67.6940002  38.1139984
  35.1879997  37.7960014  -3.3629999  35.5940018  37.9910011  -2.4830000
  35.0789986  38.7350006  -3.5990000  11.8979998   5.7529998  40.7140007
  12.5900002   6.0110002  40.0900002  12.4340000   5.4140000  41.4490013
  71.9329987  63.7070007  46.7239990  71.4690018  64.4560013  46.2789993
  72.7689972  63.7319984  46.2680016  62.0740013  62.8930016  54.2060013
  62.4830017  62.0379982  54.2789993  61.4519997  62.6469994  53.4239998
  58.8330002  61.4830017  42.1749992  58.3240013  61.1269989  42.9379997
  59.3820000  60.7709999  41.8750000  78.7750015  60.2570000  47.2849998
  79.1620026  60.4889984  48.1669998  79.5240021  60.6049995  46.7140007
  29.3759995  -3.1970000  39.3530006  29.0650005  -2.4349999  39.9099998
  28.6019993  -3.7950001  39.5250015  76.1959991  56.5169983  40.6780014
  75.8960037  55.8650017  40.0110016  75.7969971  57.3510017  40.3170013
  76.3249969  67.1090012  35.8479996  76.8659973  67.7549973  36.3419991
  76.8899994  66.2910004  36.0060005  78.2919998  66.5869980  29.6930008
  77.9120026  66.1549988  30.4880009  78.6600037  67.3489990  30.0599995
  24.5620003   8.6829996  27.7310009  24.0100002   9.3299999  27.1459999
  24.6609993   7.9670000  27.0510006  23.0660000   4.2540002  43.3170013
  22.6480007   4.7420001  43.9860001  23.9810009   4.5000000  43.3489990
  76.6080017  68.1620026  32.9059982  76.7310028  67.2710037  32.6209984
  75.6979980  68.3330002  32.6809998   1.4500000  63.4739990  27.8959999
   0.9720000  64.2239990  28.1650009   0.9820000  63.1959991  27.0520000
  41.1310005   6.1550002  34.7869987  41.4910011   5.6970000  33.9879990
  40.1959991   6.3000002  34.4840012  64.3339996  75.6279984  32.4070015
  63.8510017  75.6370010  31.5669994  63.7989998  75.0289993  32.9129982
  29.1259995  -4.3559999  34.4539986  28.3770008  -3.7650001  34.2210007
  28.8439999  -4.6580000  35.3409996  31.5730000   6.1149998  17.3880005
  31.9440002   5.5219998  18.0830002  30.8269997   6.4940000  17.8810005
  13.9150000  58.0579987  33.3059998  12.9350004  58.2470016  33.3889999
  14.1490002  58.1290016  34.2659988  76.5989990  61.4799995  26.4260006
  76.0080032  61.8540001  25.7290001  77.0240021  62.3149986  26.7059994
   2.1090000  62.4739990  40.2750015   1.8650000  63.1559982  39.6150017
   1.2350000  62.4230003  40.7140007   5.1380000  65.0640030  37.2560005
   5.8520002  65.0049973  36.6059990   4.9450002  66.0680008  37.2120018
  26.1259995   4.0300002  21.6280003  25.5499992   4.7750001  21.6790009
  26.7749996   4.1900001  22.3150005  31.6879997   4.4800000  43.6389999
  31.3579998   5.2230000  44.1230011  32.5149994   4.2649999  44.1640015
  27.6749992  -4.6739998  29.5119991  27.6320000  -5.6719999  29.6329994
  28.6270008  -4.6110001  29.2310009  67.6289978  74.9960022  39.8380013
  68.5709991  74.9670029  39.6440010  67.4749985  75.9140015  40.0929985
  39.3849983   3.0460000  25.1529999  39.1040001   2.9400001  24.2450008
  38.8370018   2.3599999  25.5839996  68.5770035  63.8330002  33.4869995
  67.8219986  64.1289978  32.9650002  68.2180023  63.9199982  34.3860016
  20.6940002  -0.7020000  38.1949997  21.4960003  -0.9280000  37.6669998
  20.2290001  -0.1680000  37.5789986  18.5919991  10.1569996  29.8239994
  18.2390003  11.0389996  30.0550003  19.5499992  10.3649998  29.9699993
   5.0700002  67.8040009  37.2130013   5.7389998  68.3580017  37.5929985
   5.4530001  67.6360016  36.2879982  67.1669998  76.4520035  30.1660004
  67.2360001  76.8980026  31.0400009  67.4110031  77.1600037  29.5830002
  74.1480026  62.9490013  35.7849998  73.3150024  62.8559990  35.2260017
  74.3649979  62.0340004  35.9350014  75.7470016  64.3570023  33.8680000
  74.9400024  64.6200027  33.4109993  75.4270020  63.9239998  34.6930008
  77.2610016  47.4309998  32.2360001  76.7200012  48.1619987  31.7910004
  76.6029968  47.0800018  32.8930016  32.1720009   1.9880000  25.5939999
  31.2299995   2.1500001  25.3239994  32.4469986   1.6280000  24.7099991
  61.4850006  32.8989983  81.9169998  61.7299995  32.0330009  81.5100021
  61.8419991  33.5099983  81.2870026  23.1959991  -0.9940000  40.3820000
  22.2889996  -1.2840000  40.4910011  23.6770000  -1.7920001  40.5470009
   9.3970003  71.0260010  28.1250000   8.7410002  71.7139969  28.2539997
   8.7880001  70.3249969  27.8230000  46.5499992  35.9700012  83.7239990
  46.2879982  35.1199989  84.1480026  45.6969986  36.4169998  83.6689987
  28.0349998  20.0849991  20.5030003  28.3589993  20.8889999  19.9440002
  28.7259998  19.4519997  20.2679996  10.5520000  68.2630005  28.2099991
   9.7980003  68.9020004  28.2019997  11.2819996  68.8479996  27.9969997
  31.9069996  -2.2860000  30.6019993  32.7989998  -1.9780000  30.3519993
  31.3190002  -1.6790000  30.1399994  28.4410000   2.0980000  33.4309998
  27.6739998   1.4500000  33.4199982  28.2800007   2.4540000  34.3339996
  21.8059998   4.1180000  35.2169991  21.4410000   4.9549999  34.8219986
  22.4120007   4.5819998  35.8419991  48.8129997  40.7120018  79.6809998
  47.9269981  41.1170006  79.4919968  49.2379990  41.5349998  80.0049973
  32.7190018   5.0440001  24.2409992  32.3709984   5.0739999  23.3400002
  33.4459991   4.3750000  24.1529999   3.9119999  68.6050034  40.5209999
   3.6120000  67.7750015  41.0250015   4.8290000  68.3389969  40.3240013
  29.2840004  -5.8649998  47.1310005  30.1919994  -5.8629999  47.5699997
  29.3479996  -6.8299999  46.7949982  32.3470001   0.7530000  23.2439995
  32.6650009  -0.1700000  23.2019997  32.7919998   1.1569999  22.4780006
  17.7530003   7.4870000  47.6669998  18.2950001   6.8889999  48.2500000
  18.2770004   7.4499998  46.8590012   7.4679999  69.1589966  27.6359997
   7.4899998  68.2720032  28.1299992   6.8119998  69.6389999  28.2140007
  32.2019997  -1.8600000  55.0530014  31.4669991  -1.8200001  54.4329987
  32.8349991  -2.4640000  54.7630005   0.4780000  66.3030014  41.6599998
  -0.1310000  66.7139969  40.9560013  -0.0610000  66.3880005  42.4210014
  25.6639996   3.1740000  36.6879997  24.9349995   2.4979999  36.6269989
  25.1529999   3.9970000  36.6930008  70.7559967  71.9840012  45.0699997
  71.1699982  72.4479980  45.8260002  70.1729965  71.3300018  45.5660019
  53.0730019  40.4830017  81.7689972  52.7229996  40.3450012  80.9179993
  52.4729996  41.1520004  82.2210007  78.1940002  62.4879990  34.3530006
  79.0459976  62.1440010  33.8950005  78.4309998  63.4319992  34.3670006
  51.0820007  35.2789993  79.4940033  52.0449982  35.0340004  79.5439987
  50.7449989  34.5740013  78.8710022  74.4079971  71.5339966  41.0099983
  74.3629990  70.5699997  41.2929993  75.0059967  71.9189987  41.6870003
  20.5450001   7.3750000  39.6389999  20.7950001   7.9510002  38.8810005
  20.0550003   6.6500001  39.1629982  28.8059998  12.5190001  51.0270004
  29.3729992  12.6029997  51.7789993  28.2870007  13.3149996  51.0989990
  20.2840004   6.3480000  34.7039986  19.6749992   7.0100002  35.0929985
  19.6459999   5.5860000  34.6370010  34.8400002   3.4470000  24.1439991
  35.1279984   2.5360000  24.2700005  35.1819992   3.5990000  23.2210007
  25.5520000   3.5430000  26.3850002  26.2630005   3.1830001  26.9860001
  24.9540005   3.9370000  27.0160007  25.3349991   3.9920001  31.8920002
  25.8700008   4.2859998  32.6590004  25.4080009   3.0130000  32.0620003
  24.2950001  -3.1970000  41.8419991  24.2689991  -4.0580001  41.3769989
  25.0809994  -3.3099999  42.4150009  35.2799988   0.6980000  29.3759995
  35.3750000   1.0100000  28.4829998  35.3089981   1.5280000  29.9050007
  30.3279991  -0.7120000  25.7539997  31.3339996  -0.5420000  25.7269993
  30.0340004   0.1510000  26.0459995  29.8589993   2.8529999  42.7190018
  30.5949993   3.3020000  43.1889992  29.0979996   3.4410000  42.9020004
  30.0489998  -2.3699999  32.6170006  30.7320004  -2.5330000  31.9050007
  30.0510006  -3.1580000  33.0880013  77.1559982  65.7649994  54.3769989
  77.5670013  65.4619980  53.5330009  77.8280029  66.3539963  54.7509995
  29.0370007   1.7690001  37.8450012  28.4400005   1.0290000  38.0900002
  29.5590000   1.8789999  38.6590004  27.6989994   1.6720001  27.4990005
  27.9319992   1.7670000  28.4139996  26.8180008   1.2210000  27.4489994
  31.6520004  -0.7970000  34.7229996  31.7940006  -0.3910000  33.8569984
  30.7350006  -1.0960000  34.6580009  33.5139999   1.9040000  43.9010010
  33.2229996   1.3180000  43.2060013  34.5009995   1.7570000  43.8400002
  33.8580017   3.9530001  49.8720016  34.2840004   3.2400000  49.3530006
  33.8759995   4.6869998  49.2200012  28.7320004  10.0290003  49.8190002
  28.0559998  10.3620005  49.1510010  28.7399998  10.8009996  50.4020004
   1.2980000  63.6969986  38.0429993   1.6450000  64.1380005  37.2700005
   1.3120000  62.7439995  37.7960014  28.3750000   0.7210000  22.7670002
  29.1910000   1.0120000  22.3789997  27.7399998   0.8250000  22.0249996
  71.4589996  68.5719986  43.0379982  70.6650009  68.7779999  42.5610008
  72.1660004  68.9240036  42.4780006   6.3829999  67.0210037  35.0670013
   7.2350001  67.2269974  34.5600014   5.8060002  66.7379990  34.3709984
  31.3829994   1.6109999  30.0540009  30.8640003   0.9100000  29.6879997
  30.7479992   2.3720000  30.0340004  33.3619995   7.6399999  25.2950001
  33.1669998   6.7440000  24.9209995  34.0429993   7.9060001  24.5540009
  30.3880005   3.5150001  53.3219986  30.0939999   4.3319998  53.7120018
  30.4379997   3.6930001  52.3779984  26.0820007  11.2119999  35.1010017
  26.9349995  11.6359997  35.1259995  26.1800003  10.5349998  34.3619995
  17.9759998   5.4289999  25.1320000  17.2609997   4.7950001  24.7180004
  18.7259998   4.8360000  25.0900002  29.0219994   8.7609997  33.5820007
  28.0869999   8.5920000  33.7470016  29.4050007   7.8590002  33.5559998
  43.7109985   2.1580000  43.6879997  43.6669998   2.9140000  44.3100014
  44.0379982   1.4750000  44.3440018  25.9589996  -4.4020000  38.6650009
  26.0389996  -3.4740000  39.0890007  26.3150005  -4.8670001  39.4160004
  26.8029995  -3.3770001  33.8110008  25.8670006  -3.6889999  33.9389992
  26.8630009  -3.4510000  32.8370018   8.9650002  65.2149963  44.9900017
   9.7980003  64.9710007  45.4580002   9.2110004  66.1389999  44.7299995
   5.7839999  68.1959991  43.8720016   6.1420002  68.0889969  44.7620010
   5.9499998  69.1760025  43.7360001  33.8219986  -2.5790000  38.3079987
  34.7389984  -2.5220001  38.7319984  33.3330002  -2.9119999  39.0859985
  33.0260010  -2.9400001  48.2849998  32.3479996  -2.7550001  47.5909996
  33.8320007  -2.7330000  47.7919998  41.5789986   4.2859998  32.7330017
  41.7490005   3.3820000  32.4850006  40.7470016   4.5149999  32.2750015
  30.1320000   6.2550001  33.3479996  29.7819996   5.9380002  34.2000008
  30.6650009   5.5200000  33.0639992  40.6440010   5.1989999  25.7439995
  40.0820007   6.0029998  25.8090000  39.9519997   4.6009998  25.3710003
  69.1269989  68.0849991  44.5760002  68.5469971  67.8750000  43.8370018
  69.9530029  67.6699982  44.3409996  24.0669994   1.4170001  41.0289993
  23.3099995   2.0750000  41.0149994  23.6119995   0.6310000  40.5810013
  13.4399996   2.8610001  32.0709991  12.7489996   2.7620001  31.4249992
  13.2430000   3.6650000  32.4900017  54.9090004  37.8849983  77.0790024
  53.9790001  37.4889984  76.9909973  55.3790016  37.0460014  77.1330032
  27.9710007  -1.8559999  26.7360001  28.5890007  -1.0950000  26.6459999
  27.4120007  -1.6109999  25.9099998  77.5589981  69.2630005  36.8860016
  77.9710007  69.8590012  37.5229988  77.7340012  69.8020020  36.0470009
  35.7789993   3.6559999  21.3710003  35.1360016   2.9360001  21.1520004
  35.4879990   4.3030000  20.6590004  25.7099991   0.0290000  35.5509987
  25.6240005  -0.9070000  35.2859993  25.3540001   0.0030000  36.4679985
  76.8830032  68.9970016  40.7589989  76.1930008  69.0770035  40.0740013
  76.3290024  68.9560013  41.5489998  19.7590008   5.4949999  38.1059990
  19.4920006   5.3839998  37.1829987  19.4489994   4.6989999  38.4700012
  24.4379997   4.1329999  29.1459999  24.6739998   5.1279998  29.0370007
  24.8789997   4.0320001  30.0660000  36.3779984   4.4850001  33.6780014
  35.4819984   4.6199999  33.9949989  36.3300018   4.9879999  32.8479996
  25.9780006  14.6490002  54.0509987  26.6040001  15.1250000  53.4319992
  26.0499992  13.7580004  53.7439995  35.3619995  17.7229996  39.5400009
  34.7340012  18.1720009  38.9129982  35.3170013  18.3950005  40.2389984
  31.4810009  14.7370005  48.0019989  31.7290001  13.9759998  47.3720016
  31.5139999  15.4630003  47.3160019  17.9510002  12.6669998  31.1189995
  17.9580002  13.0310001  31.9930000  18.9130001  12.8979998  30.9169998
  26.5319996  14.0530005  31.4069996  26.5170002  13.1789999  31.0739994
  27.0259991  14.5340004  30.7220001  40.8370018  22.1669998  31.6019993
  39.9869995  21.8269997  31.9990005  40.4669991  22.5590000  30.7770004
  33.6110001  22.0779991  44.2220001  33.2869987  21.9060001  43.3349991
  32.7200012  22.3220005  44.6459999  30.5070000   3.5760000  33.1240005
  29.7000008   3.0150001  33.1250000  30.8950005   3.3859999  33.9809990
  41.5890007  10.6859999  34.4690018  40.8989983  11.2480001  34.0670013
  41.1129990   9.8760004  34.5429993  57.1539993   6.2800002  48.9760017
  58.1360016   6.1030002  49.0499992  57.0400009   6.0999999  48.0060005
  30.4589996  31.1749992  27.3209991  30.8509998  31.4540005  26.5070000
  29.4759998  31.2980003  27.2040005  35.5719986  15.0869999  39.5750008
  36.4620018  15.1359997  39.9490013  35.3059998  16.0459995  39.6049995
  25.5300007  18.8479996  30.0760002  26.4260006  19.2080002  29.9540005
  25.3029995  19.3850002  30.8929996  27.9810009  17.8689995  37.6599998
  27.4519997  17.5079994  38.3950005  28.4319992  17.1340008  37.2739983
  42.3279991   4.3360000  36.6139984  41.9700012   3.4110000  36.4440002
  41.7089996   4.8379998  36.0550003  26.2080002   6.5749998  35.5709991
  26.7910004   6.8299999  36.2630005  25.3400002   6.8400002  35.8899994
  32.6170006  14.1689997  39.5019989  32.1780014  14.0000000  40.3499985
  33.4519997  14.6070004  39.8759995  28.9200001  20.5060005  38.0200005
  28.0869999  21.0130005  38.2449989  28.5370007  19.6019993  37.9830017
  10.3929996  68.7570038  42.2439995  10.4799995  68.5759964  41.2970009
   9.8590002  68.0080032  42.4770012  42.1920013  10.7500000  14.7430000
  42.2739983  11.6029997  15.2270002  41.9910011  10.1040001  15.4239998
  30.8540001   7.6960001  29.7570000  31.8649998   7.6770000  29.8780003
  30.8680000   8.3260002  29.0119991  31.3139992  15.7880001  37.8740005
  31.8670006  15.2709999  38.4920006  30.4029999  15.4969997  38.0779991
  35.7849998   0.6440000  46.4879990  35.6739998  -0.1890000  45.9609985
  35.1310005   0.4920000  47.2330017  38.3650017   1.9790000  27.7140007
  38.9939995   2.1970000  28.4370003  38.0660019   1.0970000  27.9260006
  22.7369995  74.4000015  29.2390003  22.0109997  73.8529968  29.6009998
  22.2350006  75.1549988  28.8540001  23.9029999  13.8369999  39.9900017
  23.5470009  13.5129995  39.1100006  23.0900002  14.0640001  40.4490013
  30.1250000   9.7959995  28.0510006  30.2439995  10.7600002  28.1340008
  29.1490002   9.7449999  28.2430000  39.8650017  10.9309998  50.8520012
  40.7039986  10.8959999  50.3709984  39.6279984   9.9619999  50.7830009
  47.6739998  13.9940004  47.4630013  46.8730011  13.6029997  46.9930000
  47.9679985  14.5430002  46.6790009  47.5779991  10.9259996  35.9659996
  47.5120010  11.3719997  36.8100014  47.6250000   9.9790001  36.2239990
  36.9370003   2.7950001  40.6450005  37.6850014   2.4619999  41.1829987
  36.6980019   3.5940001  41.2070007  34.1339989   7.7550001  36.9570007
  33.4430008   7.0640001  36.9650002  34.0940018   8.0469999  36.0509987
  43.6539993  10.0920000  39.8610001  42.9749985   9.8800001  40.4650002
  43.5559998   9.4029999  39.2029991  38.4860001  18.9039993  34.6489983
  38.0680008  19.6940002  34.1780014  39.4249992  19.3160000  34.7400017
  53.7179985  34.3810005  80.9879990  54.2849998  35.1339989  81.1529999
  53.0540009  34.4339981  81.6699982  20.1019993  14.6470003  27.5030003
  20.9389992  15.0780001  27.1079998  19.4820004  15.2639999  27.0709991
  10.8430004  71.6029968  54.4150009  10.7150002  72.2900009  53.7060013
   9.9729996  71.6380005  54.8549995  25.0979996  11.2200003  21.7360001
  24.4939995  11.3230000  20.9799995  25.1870003  12.2290001  21.9580002
  39.4749985  13.7709999  43.0029984  39.4659996  12.8219995  42.8559990
  40.2989998  14.0109997  42.4949989  26.5760002   9.6879997  45.4189987
  25.8589993  10.4020004  45.3829994  26.3589993   9.2119999  44.6030006
  33.2150002  -0.6390000  26.7110004  33.4459991   0.3140000  26.6410007
  34.0950012  -1.0310000  26.4680004  27.5750008   3.5860000  47.9679985
  28.3610001   3.1700001  47.5499992  26.9419994   3.3780000  47.2010002
  48.3380013  11.6370001  38.6360016  49.0600014  11.1090002  39.1419983
  48.6839981  12.5200005  38.7400017  34.7560005  12.7010002  33.1930008
  35.4550018  12.8540001  33.9179993  35.2610016  12.9600000  32.4210014
  33.4889984  10.1990004  53.3209991  34.3790016   9.9969997  53.7290001
  33.7179985  10.8940001  52.7309990  12.5699997  23.0480003  41.0740013
  12.3690004  23.5799999  41.8470001  13.5539999  23.0489998  41.0999985
  29.0310001  14.3959999  38.9449997  28.5709991  14.3820000  38.0789986
  28.2469997  13.9540005  39.4920006  33.6899986  15.0719995  45.2330017
  34.6290016  15.3520002  45.1230011  33.8650017  14.3100004  45.8650017
  31.7110004   2.4549999  35.6889992  31.0660000   1.6849999  35.5559998
  32.3829994   1.9360000  36.2309990  26.3549995  18.6180000  57.1699982
  26.5939999  17.8169994  56.7470016  25.4230003  18.5990009  57.3209991
  23.9519997  24.7889996  44.8260002  23.2570000  25.4160004  45.1189995
  23.5149994  24.4909992  43.9710007  24.6040001  10.4370003  49.0519981
  24.4529991   9.8500004  48.2739983  25.4829998  10.8680000  48.7779999
  21.7509995  13.5740004  44.1269989  22.4139996  13.9940004  43.5130005
  21.0720005  14.2570000  44.1110001  37.0379982   7.3309999  37.5670013
  36.3619995   7.8540001  37.1450005  36.5320015   6.5980000  38.0050011
  25.2059994  19.1959991  48.0099983  25.2159996  18.9029999  48.9399986
  25.7070007  18.3349991  47.6580009  17.3859997  71.4820023  43.1419983
  16.4400005  71.3229980  42.8370018  17.5489998  70.4950027  43.3720016
  39.5880013   6.7690001  38.5740013  38.7560005   7.1329999  38.2420006
  39.5159988   5.7979999  38.3530006  26.7399998   2.1229999  44.1440010
  26.1620007   2.1420000  44.9749985  26.6520004   3.0699999  43.9039993
  33.5690002   6.9000001  30.8129997  34.5470009   6.8480000  30.7450008
  33.3320007   6.0609999  30.3910007  17.5300007  65.7239990  17.3859997
  18.0489998  66.2639999  16.7450008  16.5869999  65.9199982  17.0869999
  39.4949989  10.0699997  32.6139984  40.1290016   9.3570004  32.5379982
  39.3689995  10.2729998  31.6849995  40.1910019  13.2250004  36.4179993
  40.3199997  13.1389999  37.3349991  41.1030006  13.5109997  36.0929985
  43.1170006  11.4340000  36.8709984  43.3829994  10.5369997  37.2410011
  42.9790001  11.1549997  35.9280014  16.7789993   0.7620000  30.5869999
  15.9370003   0.9990000  30.1840000  17.1210003   0.2270000  29.8339996
  55.0719986   4.9419999  50.2099991  55.6049995   5.4699998  49.5629997
  55.6529999   4.1069999  50.1380005  22.9570007  22.7110004  22.8199997
  22.7929993  22.3750000  23.7849998  22.0779991  22.5139999  22.4270000
  11.7150002  67.7829971  31.4629993  12.2170000  67.3180008  30.7849998
  11.7119999  68.7149963  31.1809998  37.3800011  23.4799995  25.9099998
  37.7809982  22.9430008  26.6180000  38.2400017  23.9389992  25.6879997
  34.8959999  26.7719994  21.2119999  34.4350014  26.0060005  20.8069992
  35.8180008  26.4869995  21.1049995  44.0439987   8.3050003  32.8370018
  44.9459991   8.1789999  33.1170006  43.8979988   7.3829999  32.4710007
  44.3919983  15.4490004  49.5699997  44.9669991  15.7410002  48.8470001
  45.0000000  15.2690001  50.3079987  32.8709984   8.8269997  27.6730003
  32.9830017   8.3430004  26.7789993  31.9939995   9.2679996  27.4610004
  50.5400009   7.5539999  39.7470016  51.0499992   7.5999999  40.5559998
  50.9710007   6.7379999  39.3409996  45.6599998   8.4090004  43.8559990
  46.5989990   8.4890003  43.5460014  45.3069992   9.2139997  43.5379982
  13.8719997  65.1409988  33.7649994  13.8520002  66.1230011  33.8019981
  13.3789997  64.9670029  34.6539993  36.2010002  16.2380009  44.9140015
  36.9150009  16.6189995  45.5009995  35.8180008  17.0790005  44.6059990
  33.0460014   4.5539999  29.7929993  32.3230019   3.9870000  30.0109997
  33.2120018   4.3130002  28.8400002  32.0110016  18.2299995  32.4469986
  31.6299992  17.4710007  32.9930000  31.2070007  18.7639999  32.3680000
  27.2740002   4.8140001  24.4839993  28.0860004   4.9899998  25.0440006
  26.6250000   4.5599999  25.1650009  45.3100014   8.0509996  46.5279999
  45.2280006   8.9840002  46.7490005  45.5999985   8.1440001  45.5950012
  32.2570000   4.4070001  39.0439987  32.6780014   4.2740002  39.9129982
  31.5219994   3.7980001  39.0709991  29.5249996  17.2880001  25.4689999
  29.5450001  16.4099998  24.9160004  30.4430008  17.5769997  25.2929993
  26.5720005  -3.4570000  43.2210007  26.4680004  -4.4310002  43.5660019
  27.0779991  -3.1320000  43.9780006  27.8150005  14.4460001  45.1969986
  27.3500004  14.1459999  46.0180016  27.1030006  14.4560003  44.6129990
  31.6119995  11.5500002  25.0590000  31.3430004  12.2220001  24.3509998
  31.3400002  12.2189999  25.8330002  35.6580009   1.5980000  38.6559982
  36.4739990   1.4830000  38.0079994  36.1790009   2.0280001  39.3849983
  22.6860008  13.6120005  37.7620010  22.8729992  14.4420004  37.2350006
  23.0259991  12.9840002  37.0209999  33.3810005   4.1129999  41.6049995
  33.5289993   5.0640001  41.5820007  32.6609993   4.0939999  42.3120003
  30.5219994   6.2639999  45.3800011  30.6529999   7.2090001  45.3089981
  30.8029995   6.1820002  46.3390007  29.7369995   8.0120001  39.5229988
  30.0100002   7.1929998  40.0279999  30.4300003   8.5990000  39.8390007
  42.9780006  15.8409996  23.1669998  43.7389984  15.9300003  23.8309994
  43.2890015  15.0299997  22.6830006  34.0209999  16.9230003  28.4839993
  34.6180000  17.1919994  29.2110004  34.1240005  17.6049995  27.8449993
  30.9570007  12.5319996  49.3499985  31.0949993  13.3699999  48.8769989
  30.1259995  12.7220001  49.8650017  31.7749996   9.8870001  40.1139984
  32.3040009  10.4919996  40.6609993  31.5970001  10.4309998  39.3129997
  43.1980019   1.9010000  29.2670002  43.7659988   2.5100000  29.8160000
  42.6399994   2.5450001  28.8239994  11.9840002  67.4810028  34.0429993
  11.2959995  66.8229980  34.3619995  11.6730003  67.6050034  33.1160011
  30.3430004  13.5710001  45.0439987  30.9169998  14.3319998  45.1150017
  29.4570007  13.9569998  45.1839981  33.8639984  11.0970001  35.1209984
  34.3199997  11.4049997  34.3129997  32.9589996  10.9630003  34.7340012
  41.8240013   7.4870000  28.7129993  41.2410011   8.2690001  28.6490002
  42.6370010   7.9080000  29.1340008  42.2449989  10.6009998  46.3450012
  41.3250008  10.9630003  46.3120003  41.9959984   9.6280003  46.4090004
  29.6840000  17.2849998  29.8040009  30.0149994  17.5289993  30.7140007
  29.9150009  18.0970001  29.3069992  34.4020004  -1.8810000  29.8379993
  34.6870003  -1.8480000  30.7290001  34.7799988  -1.0089999  29.4740009
  38.3390007   6.2770000  34.5120010  37.8880005   6.1950002  35.3820000
  37.6819992   5.8080001  33.9169998  15.9849997  20.6490002  34.8030014
  15.3809996  20.9669991  35.5279999  16.7110004  21.3330002  35.0009995
  38.6269989   7.9850001  40.8689995  39.1809998   8.7840004  40.5139999
  39.0070000   7.2919998  40.2960014  42.5709991  16.2199993  33.4720001
  43.0589981  15.9829998  32.6479988  43.0830002  17.0170002  33.7330017
  43.9480019   8.5830002  37.8300018  43.8769989   7.7440000  38.3009987
  43.7779999   8.1870003  36.8969994  39.6469994  10.8620005  29.9009991
  40.0639992  10.3950005  29.1669998  39.2260017  11.6379995  29.4279995
  14.7799997  69.8170013  40.0120010  14.7340002  70.3410034  39.2350006
  15.6309996  69.3580017  39.9729996  28.9659996  10.4410000  36.8330002
  29.3589993  10.3009996  35.9790001  29.5799999  10.9910002  37.3019981
  44.8930016  13.3640003  37.1619987  44.5000000  12.5100002  37.0260010
  44.1010017  13.9449997  37.0900002  45.8019981   3.0980000  34.0289993
  44.9290009   2.7300000  33.7760010  45.5369987   3.8829999  34.5550003
  40.2000008   1.7250000  32.3409996  40.5219994   1.0829999  33.0449982
  39.3240013   1.9490000  32.7750015  31.7649994  18.2700005  36.5620003
  31.5389996  17.3339996  36.6349983  31.0219994  18.6320000  36.0089989
  28.1240005  27.4360008  29.1200008  27.3630009  27.1809998  29.7450008
  28.3449993  28.2430000  29.7089996  27.7220001  14.1350002  67.4039993
  27.0750008  14.5819998  66.8199997  27.3150005  13.2670002  67.5439987
  23.8339996   7.4879999  36.8240013  22.9220009   7.7020001  37.1329994
  24.2530003   8.3889999  36.9799995  33.7190018  14.8450003  50.7120018
  34.0519981  15.0170002  49.7890015  32.9490013  15.3950005  50.6990013
  38.6940002   6.9569998  46.0439987  38.3569984   7.8559999  46.2809982
  37.9510002   6.4759998  46.5219994  27.1060009   7.1680002  40.6510010
  27.2099991   6.2280002  40.4710007  27.9729996   7.3379998  41.1139984
  40.0979996  -1.5130000  32.9010010  40.3059998  -1.3520000  33.8979988
  40.6240005  -2.3329999  32.7809982  51.0839996  17.0639992  51.7430000
  50.4140015  17.0860004  51.0330009  51.9319992  17.1219997  51.2220001
  20.2649994  19.0489998  38.5369987  20.2840004  19.0139999  39.5229988
  20.2830009  18.1200008  38.3209991  32.6380005  15.6610003  25.8710003
  32.7270012  16.6919994  25.8460007  32.5209999  15.5530005  26.8160000
  34.6759987   7.2940001  44.0540009  35.0099983   8.1359997  44.4659996
  35.3499985   7.1580000  43.3170013  39.1339989  13.2229996  33.4000015
  39.1910019  13.7580004  34.2029991  38.3330002  12.7259998  33.5740013
  33.7509995   4.9499998  34.3400002  33.8269997   5.9140000  34.1010017
  33.2849998   5.0279999  35.1870003  38.6220016  17.4599991  31.7350006
  39.4280014  17.8010006  32.2630005  38.9090004  16.5359993  31.6720009
  33.3559990   6.7230000  41.3069992  33.2470016   7.1160002  42.1529999
  34.0769997   7.2119999  40.8919983  25.3509998   2.8540001  46.4449997
  25.0739994   3.7560000  46.5680008  24.9790001   2.3870001  47.1920013
  36.3380013  13.6090002  31.1910000  36.2989998  14.5679998  31.0499992
  37.0139999  13.3629999  30.5200005  41.5130005   0.4830000  22.4009991
  42.2340012   1.1250000  22.2350006  41.8400002   0.1720000  23.3150005
  35.0950012  10.6029997  37.3860016  34.1570015  10.3160000  37.6629982
  34.9290009  10.6110001  36.4099998  27.0259991   9.6510000  38.8559990
  27.7819996   9.8889999  38.2709999  27.3500004   8.8090000  39.2270012
  27.2019997  -0.1400000  38.3959999  27.0249996  -0.9840000  38.8619995
  26.2900009   0.1690000  38.1650009  47.2890015  14.4029999  36.4640007
  46.5029984  13.7390003  36.6759987  47.5769997  14.5489998  37.4049988
  28.6380005  13.4549999  34.6860008  29.4689999  13.1990004  35.0849991
  28.6240005  12.8479996  33.9150009  43.2039986   7.7129998  35.3639984
  42.4129982   7.1640000  35.2830009  43.3110008   8.0480003  34.4900017
  37.5979996   3.9579999  42.9729996  38.4339981   4.2080002  42.4770012
  37.1790009   4.8270001  43.0610008  53.2239990  13.8629999  50.3530006
  52.3540001  13.6499996  49.9319992  53.4189987  14.6459999  49.7960014
  42.1640015  19.2220001  25.6980000  41.2529984  19.3209991  26.0170002
  42.5909996  18.8299999  26.4599991  27.1040001  11.1149998  48.1370010
  27.2810001  12.1090002  48.0470009  27.1819992  10.8750000  47.2029991
  33.7309990  13.1400003  29.7549992  33.8979988  12.2150002  29.4090004
  34.2750015  13.0270004  30.5979996  34.6380005  18.8490009  45.0000000
  35.1399994  19.6860008  45.1329994  34.3289986  18.6469994  45.8989983
  28.3980007  11.3219995  33.2000008  28.1289997  11.3769999  32.2449989
  28.5259991  10.3640003  33.2509995  35.3510017  20.1499996  41.0699997
  36.1879997  20.5580006  41.2169991  34.8479996  20.7910004  40.5410004
  34.4830017   7.7820001  34.2669983  34.0620003   8.3260002  33.5439987
  35.3100014   8.2709999  34.3470001  34.1749992  14.3669996  42.0029984
  33.7229996  15.0570002  42.4620018  35.0530014  14.7410002  41.8520012
  32.3969994  18.0090008  51.2309990  33.0480003  18.6219997  51.5970001
  31.7269993  18.6369991  50.8899994  34.2299995  10.5649996  29.3939991
  33.6559982  10.0059996  28.8260002  35.1310005  10.2329998  29.1240005
  33.8759995   6.1059999  48.1889992  34.0159988   6.8449998  48.8409996
  34.6730003   6.2740002  47.6059990  32.5209999  -1.3049999  44.1920013
  32.1870003  -0.7860000  43.4570007  33.3170013  -1.7220000  43.7750015
  24.4260006  21.6329994  44.4510002  24.2530003  20.6819992  44.5610008
  24.6450005  21.8309994  45.4059982  35.6380005  13.6890001  37.1749992
  34.8569984  13.1239996  37.2700005  35.5629997  14.2500000  37.9669991
  36.9819984   6.7859998  42.6660004  37.4799995   6.9879999  41.8419991
  37.1800003   7.6339998  43.1949997  55.3149986  42.7490005  80.3560028
  54.8829994  42.8110008  81.2300034  54.6730003  42.1980019  79.8600006
  43.9259987   5.7300000  33.0029984  43.0960007   5.1989999  33.0890007
  44.4319992   5.5279999  33.7610016  33.6129990  16.3279991  34.5330009
  33.5680008  16.7980003  35.3940010  34.4269981  16.7029991  34.1339989
  30.4640007   3.8629999  50.7150002  31.0529995   3.2990000  50.1969986
  29.6250000   3.3540001  50.7290001  36.4049988   1.4370000  43.4690018
  36.6790009   2.3859999  43.2620010  37.1669998   1.2570000  44.0489998
  24.8540001  21.6399994  17.1350002  24.3509998  22.4580002  16.9860001
  24.6770000  21.5559998  18.1140003  43.1150017  20.1410007  19.3570004
  42.6269989  20.9750004  19.3619995  42.4230003  19.5690002  19.7229996
  51.1269989   9.7749996  43.7490005  50.4449997  10.4650002  43.8440018
  50.7500000   9.1470003  44.4830017  41.0979996  19.3290005  30.0189991
  41.1510010  18.9470005  30.8929996  41.9070015  19.8759995  29.9740009
  33.6529999  11.2969999  41.8310013  33.9650002  12.2320004  41.8400002
  34.5060005  10.8549995  41.8289986   9.7620001  65.6610031  28.6270008
   8.9130001  66.0299988  28.2619991  10.2080002  66.5569992  28.7490005
  43.8450012  10.8629999  44.1310005  43.6189995  11.0059996  45.0260010
  43.1409988  10.2550001  43.8139992  34.3660011   8.7180004  39.4959984
  34.2150002   8.1129999  38.7140007  33.5159988   9.1099997  39.7089996
  34.9420013   5.3870001  19.4699993  35.3619995   6.2709999  19.7399998
  35.5830002   5.1669998  18.7210007  18.7129993  23.1009998  30.3750000
  19.6019993  23.1959991  30.0139999  19.0079994  23.0750008  31.3840008
  29.0540009   9.3690004  41.9199982  29.9190006   9.7139997  41.5909996
  29.0760002   9.7340002  42.8339996  37.7680016  -1.7610000  35.4840012
  38.7540016  -1.7830000  35.2820015  37.7610016  -1.0310000  36.0900002
  36.1129990  -0.6110000  41.8590012  36.0530014   0.2320000  42.3540001
  37.0569992  -0.5330000  41.5499992  28.8029995  16.8419991  45.3709984
  28.5529995  15.8830004  45.3199997  29.7789993  16.7019997  45.2980003
  26.5930004   8.3400002  17.6420002  26.2639999   9.1199999  17.2019997
  26.6439991   8.5489998  18.5750008  24.6369991   6.6450000  41.8580017
  24.5370007   6.0260000  41.0989990  25.5009995   7.0710001  41.5550003
  21.2460003  69.3349991  24.9790001  21.3729992  68.4929962  24.4619999
  20.3630009  69.5999985  24.5030003  20.0209999  72.0770035  43.0999985
  19.0450001  71.9670029  43.0279999  20.1000004  71.8619995  44.0439987
  42.6320000   4.6830001  53.9780006  43.5779991   5.0339999  53.9329987
  42.7910004   3.7739999  54.2579994  33.3429985   9.1800003  32.1030006
  33.2130013   8.2860003  31.6200008  33.6370010   9.7279997  31.3649998
  30.9489994  22.5730000  45.0989990  30.5389996  21.6700001  45.1409988
  30.1289997  22.9969997  44.6329994  35.7970009   5.1729999  38.5909996
  35.9539986   4.2770000  38.8390007  34.8870010   5.1890001  38.2910004
  37.5009995  13.2320004  25.3990002  36.7859993  13.5839996  24.8099995
  37.1370010  13.6280003  26.2420006  20.3339996  65.3629990  26.4370003
  21.0720005  64.9469986  26.8980007  20.1049995  64.6660004  25.8250008
  35.1419983  -2.5500000  34.6839981  36.1479988  -2.6180000  34.6160011
  34.9949989  -1.8640000  33.9529991  21.2789993  13.7810001  34.4519997
  22.0000000  13.2480001  34.7309990  20.5380001  13.2589998  34.8310013
  38.2890015  13.0100002  29.0149994  38.8699989  13.4029999  28.3040009
  37.4770012  12.9519997  28.5160007  37.0600014  12.3050003  41.1529999
  37.0900002  11.3389997  40.9980011  37.5670013  12.6409998  40.3889999
  48.1809998   8.3579998  36.1739998  48.0950012   8.1510000  37.1609993
  48.7099991   7.5609999  35.9500008  44.9280014  -0.1090000  40.2929993
  45.1160011   0.7090000  40.8499985  45.8219986  -0.2460000  39.9679985
  26.8950005   8.3149996  30.8309994  27.2789993   8.8050003  30.0839996
  27.5680008   7.5330000  30.9209995  45.3909988  20.6959991  20.5209999
  44.5410004  20.4950008  20.0380001  45.1669998  21.6250000  20.8299999
  36.6370010  20.9009991  28.1019993  37.0089989  20.4909992  28.9160004
  37.4860001  21.1200008  27.6569996  24.6089993  11.4239998  45.0989990
  24.0760002  11.9080000  44.3370018  23.9850006  11.5860004  45.7779999
  41.9239998  19.3659992  54.7070007  42.2989998  18.9270000  55.5190010
  42.2509995  18.7350006  53.9920006  39.4480019   5.4080000  31.6630001
  39.5569992   5.8169999  30.7490005  38.6640015   5.9640002  31.8969994
  39.6720009  20.7609997  48.8100014  40.5950012  20.4200001  48.9129982
  39.1819992  19.9330006  49.1870003  43.9900017   8.6040001  29.5189991
  44.8429985   8.4989996  29.9829998  43.9300003   9.5649996  29.4899998
  35.3880005   1.4830000  26.8820000  35.3520012   1.3810000  25.9319992
  35.9300003   2.2690001  27.0540009  28.4680004  76.9469986  46.5519981
  28.9430008  76.0790024  46.2970009  27.6739998  76.7949982  46.0260010
  38.5909996  21.6140003  33.0299988  37.9729996  22.2049999  32.4780006
  38.2270012  21.8080006  33.9140015  40.3549995  23.5979996  24.8479996
  41.1010017  22.9519997  24.8570004  40.5449982  24.0489998  25.6889992
  32.5149994  25.3379993  12.5679998  33.0260010  26.0340004  12.0780001
  32.6100006  24.5620003  11.9370003  33.6069984  22.5499992  33.5029984
  34.3629990  23.0139999  33.9690018  33.5439987  21.7810001  34.0789986
  40.9020004  18.2320004  32.7760010  41.0480003  18.9489994  33.4389992
  41.5859985  17.6040001  33.0270004  40.3330002  29.8190002  22.5489998
  40.9910011  29.1550007  22.2460003  39.8870010  30.0739994  21.7049999
  46.6360016  15.0530005  34.0209999  46.8610001  15.0080004  34.9490013
  45.7890015  14.4870005  34.0260010  41.1570015  15.7760000  29.3299999
  40.6329994  15.5310001  30.0909996  42.0400009  15.3940001  29.5660000
  46.3330002  16.7819996  31.5779991  46.3059998  16.4699993  32.5050011
  47.0839996  16.2380009  31.2500000  45.1629982   7.9439998  20.0610008
  45.2000008   8.6350002  19.4449997  45.6360016   7.1840000  19.5820007
  43.5169983  14.7130003  30.2250004  44.3479996  14.4779997  30.6709995
  43.0569992  13.8339996  30.2199993  44.7490005  11.5880003  28.8379993
  44.9780006  11.9510002  27.9319992  43.8050003  11.6879997  28.8980007
  66.7170029  41.2470016  45.3680000  66.7320023  40.3409996  45.8230019
  66.1999969  40.9430008  44.5359993  69.1100006  42.3429985  28.0540009
  69.2460022  41.3969994  28.1469994  68.8430023  42.3129997  27.0939999
  68.8850021  39.7159996  40.8499985  69.6100006  39.7319984  40.2770004
  68.1470032  39.3540001  40.2840004  68.1119995  40.8050003  49.5680008
  68.3809967  41.6599998  49.1749992  68.7990036  40.6489983  50.2420006
  63.7890015  52.8019981  41.2999992  63.1479988  52.0660019  41.2630005
  64.3020020  52.6590004  40.4819984  58.6189995  47.2970009  32.6520004
  58.3610001  46.5130005  33.1389999  58.7369995  47.9519997  33.3429985
  63.6980019  47.7039986  43.7229996  63.7560005  47.4679985  44.6969986
  64.4250031  48.3370018  43.6839981  53.7919998  55.2290001  40.4780006
  54.5660019  54.6990013  40.8470001  53.1030006  54.5460014  40.5589981
   3.8090000  56.1699982  29.4869995   3.0430000  56.6220016  29.0900002
   3.7070000  55.2700005  29.1159992  64.8830032  65.3089981  44.2420006
  64.2679977  65.9440002  43.9080009  64.3180008  64.7340012  44.7599983
  57.0470009  64.0699997  49.8019981  56.2210007  64.4629974  49.7589989
  57.6969986  64.7939987  50.0509987  77.1090012  45.4339981  39.4690018
  78.1200027  45.3559990  39.5320015  76.8479996  44.8989983  40.1959991
  63.9259987  72.5510025  27.4130001  64.2170029  72.9950027  26.5580006
  63.1759987  72.0139999  27.0629997  76.1380005  46.0270004  45.4720001
  76.0179977  46.1879997  46.4160004  75.5810013  46.7719994  45.1170006
  78.1520004  60.0120010  27.8990002  77.8570023  60.5379982  28.6970005
  77.6179962  60.4840012  27.1980000  76.8789978  57.7739983  29.2700005
  77.4639969  58.4070015  28.7310009  76.0230026  58.0009995  28.8530006
  62.2050018  45.7529984  26.5179996  61.7519989  46.2200012  27.2600002
  61.6259995  45.9939995  25.7709999  63.1800003  47.7200012  33.4329987
  62.2490005  47.7229996  33.6879997  63.1710014  46.8530006  32.9550018
  70.4449997  39.5680008  33.2709999  71.1529999  40.1679993  33.6170006
  70.5940018  38.8499985  33.9869995  71.1210022  55.4939995  26.6630001
  71.9580002  55.1399994  26.4130001  70.6380005  54.7570000  27.0289993
  69.9749985  55.8750000  52.4080009  70.0540009  55.9930000  51.4780006
  70.5100021  55.0530014  52.5900002  56.5400009  52.9729996  34.8720016
  57.1990013  52.2809982  34.8759995  56.4430008  53.1710014  35.8230019
  70.6360016  48.2709999  41.8289986  70.5199966  48.5279999  40.9049988
  70.2929993  47.4150009  41.8549995  65.4629974  62.3339996  26.2010002
  66.3160019  62.0480003  25.7299995  65.6149979  63.2879982  26.2129993
  54.6580009  60.2690010  32.8510017  54.7480011  59.4700012  33.3779984
  54.5890007  60.9129982  33.6360016  61.5569992  46.7799988  40.5369987
  61.2579994  47.4729996  41.2229996  62.4440002  46.6059990  40.8510017
   0.8430000  38.1010017  35.6119995   0.3050000  38.8190002  35.2789993
   0.5210000  37.3530006  35.0209999  66.4280014  50.0070000  22.3929996
  66.5230026  50.5900002  21.6529999  67.0970001  49.3300018  22.2259998
  73.1559982  46.2010002  38.5629997  73.1520004  45.3260002  38.1139984
  73.3809967  45.8289986  39.4959984  62.8190002  52.5600014  44.2280006
  63.2039986  53.4930000  44.2750015  63.6100006  52.0439987  43.9469986
   1.8450000  48.6980019  29.2469997   1.6300000  47.8470001  28.7560005
   2.7890000  48.4679985  29.5030003  63.3250008  50.0900002  31.1350002
  62.6809998  49.5000000  31.5590000  64.0410004  49.4269981  30.9419994
  79.3679962  52.6080017  34.8219986  79.7180023  53.2140007  35.5070000
  79.3440018  53.2200012  34.0839996  72.1750031  50.2089996  32.7849998
  72.3629990  49.2719994  32.5219994  73.0849991  50.5519981  32.8479996
  72.2149963  66.1890030  26.4820004  71.6790009  66.9089966  26.0939999
  71.6640015  65.4209976  26.4829998  68.7720032  44.2540016  39.7299995
  68.2310028  43.6020012  39.2050018  69.6549988  43.8670006  39.4080009
  64.6399994  53.1870003  33.7099991  64.5780029  52.3860016  34.2739983
  65.5130005  53.5180016  33.9749985  58.7649994  55.4669991  37.4599991
  58.9300003  56.4239998  37.4290009  57.8289986  55.3779984  37.4749985
  73.4899979  67.4619980  39.6389999  73.7129974  67.7099991  40.6020012
  74.1510010  68.0729980  39.1889992  67.8199997  47.8320007  31.2099991
  68.3840027  47.0400009  31.2259998  68.1110001  48.3489990  30.4549999
   1.0450000  59.5429993  31.2119999   1.9809999  59.8569984  31.2619991
   0.6150000  60.2919998  30.8209991  65.8990021  58.4010010  48.9410019
  65.0520020  57.9640007  49.0060005  65.7229996  59.1419983  49.5460014
   2.9790001  46.9029999  56.1399994   2.4690001  46.3349991  56.7879982
   2.4219999  46.7599983  55.3240013  71.4130020  48.5349998  46.9609985
  70.8470001  48.3600006  47.7809982  71.2779999  47.6790009  46.5000000
  57.7820015  65.2969971  30.2049999  58.0870018  66.2409973  30.1970005
  56.8310013  65.4150009  30.4080009  58.7150002  49.7159996  22.2929993
  58.7890015  48.9860001  21.6609993  59.5130005  49.6349983  22.8090000
  64.9079971  52.4930000  55.6329994  65.2969971  52.0029984  54.8909988
  64.3109970  51.8779984  56.0009995  49.3120003  59.1599998  37.8899994
  49.0169983  59.5649986  38.7410011  50.2989998  59.2120018  37.9920006
  68.4229965  47.3619995  25.3969994  69.3539963  47.4700012  25.1770000
  68.3479996  47.6170006  26.3379993  61.8209991  50.7919998  47.0200005
  61.7299995  51.1669998  46.0810013  62.7299995  51.0849991  47.2220001
  70.0960007  46.9799995  35.6100006  69.4540024  46.8250008  36.2949982
  69.9759979  47.8820000  35.3549995  60.1199989  53.3120003  36.5089989
  60.6040001  53.7789993  35.7970009  59.8269997  54.0800018  37.0779991
  65.0329971  51.5340004  27.4979992  65.4599991  52.3520012  27.9160004
  65.2229996  51.7350006  26.5849991  67.1250000  48.8269997  33.5540009
  67.5479965  48.6069984  32.6730003  67.9290009  49.1290016  34.0439987
  67.8710022  50.0489998  29.6100006  68.4400024  50.8170013  29.7360001
  67.8990021  49.9609985  28.6110001  72.9339981  33.2060013  24.6359997
  73.1569977  33.9210014  24.0130005  72.0469971  32.9939995  24.3990002
  70.4469986  52.0970001  33.6780014  69.7249985  51.9440002  33.0009995
  71.0999985  51.4939995  33.3260002  67.7779999  42.7319984  30.6760006
  67.9879990  42.6749992  29.6919994  66.8600006  43.0029984  30.5869999
  72.8349991  51.2470016  40.3680000  72.5490036  51.6440010  41.2010002
  73.5920029  50.6699982  40.7200012  68.8440018  45.5550003  33.5279999
  68.0950012  45.2360001  34.1059990  69.4779968  45.8009987  34.2319984
  76.9430008  46.1240005  27.2259998  77.6429977  46.3199997  26.5890007
  77.4660034  45.9309998  28.0319996  61.8349991  61.6720009  30.8859997
  60.8639984  61.8979988  30.6919994  62.1910019  62.3779984  30.3360004
  77.4710007  48.3860016  48.9230003  77.4300003  47.8440018  49.6969986
  76.5960007  48.6040001  48.7270012  61.0719986  46.6940002  31.1060009
  61.7210007  46.2639999  31.7089996  60.4650002  47.0130005  31.8029995
  64.4339981  67.0609970  29.4169998  64.1999969  67.8610001  29.9710007
  63.4830017  66.7300034  29.2959995   2.9440000  58.3540001  42.6409988
   2.5869999  57.4609985  42.4140015   2.7270000  58.8250008  41.7960014
  69.1019974  46.0229988  41.7400017  69.1910019  45.4659996  40.9300003
  68.1110001  46.1860008  41.6710014  60.8310013  47.7610016  34.7690010
  60.1990013  48.5209999  34.6440010  60.7089996  47.5419998  35.6829987
   4.4619999  45.1590004  28.5769997   4.0070000  45.3689995  29.3740005
   4.4140000  45.9329987  28.0249996  59.0050011  52.7509995  31.3649998
  58.0480003  53.0270004  31.3330002  59.3400002  53.7120018  31.1320000
  61.6759987  63.1529999  22.2010002  62.4449997  62.5740013  22.0319996
  61.3849983  62.7379990  23.0540009  62.7290001  55.6199989  36.2659988
  62.2680016  55.3689995  37.0800018  63.2799988  56.3520012  36.6370010
  68.4410019  54.1370010  41.5410004  69.1159973  53.9449997  42.1660004
  68.8560028  53.7140007  40.7379990  65.9749985  46.0499992  31.9470005
  66.6460037  46.7729988  31.9720001  65.8860016  45.8489990  32.8829994
  61.5180016  47.2690010  37.5719986  61.5009995  46.4799995  38.0699997
  62.4370003  47.5740013  37.6780014  65.9580002  52.2570000  39.5089989
  65.6119995  52.7120018  38.6860008  66.7870026  52.6720009  39.6629982
  70.6819992  66.3550034  32.9169998  69.8750000  66.1610031  32.3530006
  70.2539978  66.9729996  33.5600014  71.7239990  51.6030006  37.3120003
  72.6299973  51.4389992  36.9210014  71.9440002  51.7830009  38.2249985
  61.4630013  53.6180000  25.9850006  60.7480011  52.9949989  26.0230007
  61.1129990  54.3190002  25.3220005   8.5459995  43.8460007  40.9879990
   7.8759999  43.3639984  41.5419998   8.2690001  43.5470009  40.0559998
  64.1979980  57.6389999  37.4249992  64.0589981  58.2760010  38.2089996
  65.1610031  57.5559998  37.4780006  57.8489990  58.9599991  51.3170013
  58.7809982  58.5690002  51.4319992  57.3199997  58.2220001  51.7340012
  63.9669991  49.6450005  38.7330017  63.2809982  50.1679993  39.1240005
  64.4800034  50.3079987  38.2130013  73.5210037  55.6739998  33.9900017
  72.9589996  55.0349998  33.5060005  72.8190002  56.2109985  34.3909988
  78.2819977  65.5390015  37.5779991  78.9769974  64.8180008  37.6650009
  78.6370010  66.1500015  38.2560005  69.3249969  68.4359970  34.6380005
  68.4309998  68.0319977  34.7109985  69.5260010  68.6439972  35.5760002
  58.6209984  58.1049995  32.0719986  58.8779984  57.2859993  32.5690002
  58.3909988  58.7029991  32.8400002  67.9660034  61.2179985  30.2560005
  68.4199982  62.0200005  29.9640007  68.7639999  60.6479988  30.4619999
   6.1880002  57.0740013  30.0270004   5.2870002  56.7700005  29.8430004
   6.3979998  56.6520004  30.8379993   2.7090001  66.5530014  47.2939987
   2.3499999  65.9349976  46.6279984   1.8820000  66.7659988  47.8260002
  65.0739975  45.3870010  48.3860016  65.7509995  44.9490013  47.8440018
  64.3420029  44.7410011  48.3330002  58.5979996  56.7210007  34.5400009
  58.4710007  57.1759987  35.4029999  59.5769997  56.5690002  34.5699997
  67.5360031  47.6030006  21.9080009  67.0019989  46.8540001  22.2630005
  67.2160034  47.5169983  20.9650002  76.2149963  64.6669998  43.0470009
  76.1610031  64.6549988  42.0859985  76.0220032  63.7779999  43.3320007
  62.7299995  61.4480019  49.6230011  63.5029984  62.0089989  49.5800018
  62.7719994  60.9840012  48.7729988  75.1370010  58.5239983  27.6669998
  74.8010025  59.4700012  27.7700005  75.4820023  58.5690002  26.7740002
  71.4179993  56.6549988  30.0720005  71.7789993  55.8050003  29.7980003
  70.9089966  56.4210014  30.8269997  73.3580017  60.7439995  49.7350006
  74.3079987  60.5699997  49.5180016  73.3170013  61.6839981  49.3930016
  64.3820038  61.4799995  37.4290009  63.4830017  61.6679993  37.1559982
  64.7020035  62.3779984  37.6870003  55.4249992  60.0610008  38.1339989
  55.0670013  59.4529991  38.8089981  56.3540001  60.1320000  38.3120003
  69.7710037  57.6660004  27.8519993  70.1930008  56.9169998  27.4400005
  70.4940033  58.2260017  28.0459995  67.9899979  49.0040016  39.3909988
  68.2519989  48.1139984  38.9700012  68.4929962  49.6269989  38.7999992
  74.8590012  65.0589981  21.0730000  74.0009995  64.5619965  20.9669991
  74.6429977  65.8779984  20.6590004  70.7200012  37.9900017  35.3180008
  71.5439987  37.8409996  35.8139992  70.1520004  37.2280006  35.4900017
  74.0120010  45.5709991  41.1940002  74.9110031  45.4729996  41.4550018
  73.5110016  44.8339996  41.6230011  60.3810005  63.8549995  33.9840012
  59.8569984  64.0000000  33.1920013  61.0929985  64.5759964  33.8489990
  69.7239990  65.1480026  21.0730000  70.1510010  66.0309982  20.8920002
  69.3720016  65.4329987  21.9570007  78.9089966  53.1469994  57.4739990
  79.5469971  52.6290016  57.9900017  78.2109985  53.2550011  58.1920013
  47.9560013  55.7529984  27.4699993  47.6430016  55.6819992  26.5580006
  48.4169998  54.8989983  27.6000004  55.7369995  66.6259995  46.8180008
  56.6710014  66.4499969  46.9150009  55.6479988  66.7580032  45.8680000
  62.3849983  65.9940033  47.6059990  61.8839989  65.5000000  48.2659988
  61.9790001  66.8420029  47.5979996  71.8649979  54.0800018  32.3219986
  71.4899979  53.3559990  32.9379997  71.0490036  54.6749992  32.3880005
  66.6439972  52.2999992  20.2689991  66.7180023  52.2280006  19.2940006
  65.7440033  51.8829994  20.3379993  72.3359985  58.8069992  28.8770008
  73.1510010  58.7179985  29.4160004  71.8610001  58.0419998  29.2010002
  62.8240013  62.8969994  19.1420002  62.1529999  62.1409988  19.2250004
  63.4169998  62.6640015  19.8290005  75.7450027  49.2229996  31.0559998
  74.9800034  48.7729988  30.5739994  75.3420029  50.0460014  31.3829994
  75.9729996  61.5110016  38.8269997  76.4250031  61.5309982  37.9659996
  75.3830032  62.3219986  38.6739998  78.1200027  50.1529999  38.2150002
  78.9420013  50.5979996  38.0229988  78.4150009  49.5079994  38.9160004
  66.1829987  42.7980003  34.2500000  65.3190002  43.0489998  33.7820015
  66.4800034  42.0719986  33.6360016  64.1470032  46.5139999  29.3859997
  63.2159996  46.5320015  29.1250000  64.4329987  47.4319992  29.5079994
  72.8359985  54.4109993  24.1770000  71.9759979  54.2420006  23.6580009
  72.9540024  53.4690018  24.4260006  65.3089981  47.2599983  37.5719986
  65.2460022  47.4780006  36.6150017  64.9690018  48.0730019  37.9430008
  66.0889969  57.5750008  33.7369995  65.9940033  56.8009987  33.1469994
  66.3639984  57.0699997  34.5209999  70.2839966  43.1959991  33.2470016
  69.4810028  43.5979996  33.4939995  70.5810013  42.7900009  34.1290016
   1.0430000  57.6180000  29.0499992   1.0369999  58.3740005  29.6299992
   0.6320000  58.0050011  28.2310009  75.7559967  58.9949989  33.8209991
  74.8909988  59.1380005  34.2579994  75.7770004  59.8149986  33.3149986
  75.5619965  44.7360001  25.3759995  75.2360001  45.4830017  24.8719997
  76.0729980  45.1839981  26.0990009  58.3989983  64.1289978  42.3600006
  58.8600006  64.0849991  43.2890015  58.5449982  63.1980019  42.0999985
  62.9529991  63.7630005  29.8829994  62.6069984  64.6760025  29.6760006
  63.1279984  63.9529991  30.8689995  56.6899986  62.0099983  31.9619999
  56.2159996  62.8870010  31.9869995  56.0110016  61.4459991  32.3889999
  69.4710007  59.9809990  38.4539986  69.6190033  60.1380005  39.3479996
  68.6289978  60.4029999  38.2519989  62.8300018  44.8100014  39.1320000
  62.1510010  45.3019981  39.6189995  63.6259995  45.2980003  39.4690018
   1.3010000  57.5009995  45.9259987   0.3280000  57.4370003  45.8069992
   1.6360000  57.5110016  44.9910011  75.6060028  42.6930008  50.0750008
  74.8150024  42.6090012  50.6339989  75.6859970  41.8190002  49.7140007
  59.5250015  60.4959984  28.0279999  58.8950005  59.9580002  28.5879993
  59.2639999  61.4109993  28.3579998  71.1100006  56.6310005  39.4990005
  71.7050018  55.9039993  39.8829994  70.6849976  56.9109993  40.2999992
  64.3259964  51.2330017  47.5709991  65.0390015  51.5649986  47.0250015
  64.9280014  50.9199982  48.3129997  77.2639999  49.2760010  43.5279999
  76.8270035  49.6380005  44.3380013  78.1380005  49.1549988  43.9269981
  62.6349983  51.0359993  35.7540016  62.1489983  51.1030006  34.9309998
  63.5110016  50.7669983  35.3940010   0.4570000  52.6599998  47.5139999
   0.6170000  51.7179985  47.3219986  -0.0280000  52.9300003  46.7029991
  60.4599991  51.1349983  25.8999996  59.7179985  50.5569992  26.1660004
  61.0169983  51.0190010  26.7070007  65.9919968  48.4459991  52.9029999
  66.5940018  48.1710014  52.1819992  65.3000031  47.7929993  52.7719994
  34.8820000  30.3470001  79.1110001  35.5740013  30.2539997  78.4130020
  35.0690002  29.4239998  79.5390015  67.5709991  46.3129997  43.9090004
  66.8750000  45.8110008  43.4319992  68.3560028  45.9539986  43.3520012
  24.3330002  -4.6250000  34.2599983  23.5259991  -4.1690001  34.0120010
  24.0849991  -5.5549998  33.9490013  65.0029984  57.3339996  43.4109993
  64.5469971  58.0260010  42.7939987  65.8830032  57.3499985  42.9210014
  70.6309967  41.3889999  30.4580002  70.8339996  42.2700005  30.0599995
  71.3720016  40.8699989  30.1369991  53.2700005  71.8339996  34.0320015
  52.3510017  71.6780014  33.8240013  53.6549988  70.9339981  33.8699989
  73.0830002  70.3369980  35.4560013  73.4560013  69.4280014  35.4749985
  73.5360031  70.7149963  34.6619987  69.9550018  49.5769997  37.2949982
  70.4929962  48.9389992  37.8580017  70.6200027  50.3429985  37.2470016
  63.3889999  55.8639984  23.3840008  62.9140015  56.6220016  23.7660007
  63.7179985  55.4720001  24.2250004  76.0879974  43.4309998  41.6220016
  76.1470032  42.4749985  41.3810005  75.4240036  43.2939987  42.3740005
  74.0479965  47.5820007  44.9430008  73.8379974  47.6710014  43.9539986
  73.5189972  48.3639984  45.2449989  78.8649979  55.0709991  39.4360008
  78.5029984  54.6710014  40.2309990  78.0459976  55.5309982  39.0919991
  65.4420013  51.3699989  61.9510002  65.8450012  50.5880013  61.5120010
  65.8160019  51.3089981  62.8680000  62.9739990  49.8419991  27.4549999
  63.3190002  49.3120003  26.6749992  63.6940002  50.5000000  27.4510002
  62.0390015  54.8079987  38.7420006  62.2039986  55.1619987  39.6599998
  61.9449997  53.8390007  38.9620018  67.4550018  53.4990005  25.1539993
  66.9420013  54.1240005  25.6910000  68.0790024  54.1619987  24.7530003
  69.6490021  49.4010010  34.5320015  69.6849976  49.7400017  35.4210014
  70.2460022  49.9099998  34.0139999  61.4000015  48.6870003  42.4620018
  60.6339989  48.6980019  43.0309982  62.0299988  48.2729988  43.0550003
  62.7809982  39.0730019  26.4880009  63.0190010  38.2159996  26.0590000
  63.2849998  39.0439987  27.2819996  73.4670029  43.8409996  29.9659996
  72.5189972  43.6459999  29.7500000  73.4120026  44.1370010  30.8640003
  79.5019989  41.3460007  37.8699989  78.4919968  41.2639999  38.1150017
  79.3209991  41.7480011  36.9790001  56.6520004  49.5289993  51.1469994
  57.5060005  49.7410011  51.4910011  56.0589981  49.8400002  51.8619995
  58.4920006  51.2299995  36.1940002  58.9889984  50.6139984  36.7700005
  59.0699997  52.0509987  36.3820000  65.4759979  47.1380005  34.7070007
  66.1429977  47.6529999  34.2050018  64.6520004  47.5419998  34.2960014
  64.6669998  57.0589981  28.9589996  65.3740005  56.9140015  28.2819996
  63.9690018  56.5439987  28.5890007  69.1959991  46.5660019  28.4939995
  68.3109970  46.6349983  28.1450005  69.1039963  46.4630013  29.4349995
  73.8369980  41.3559990  47.0760002  74.3300018  42.2169991  47.0979996
  74.5820007  40.7700005  47.2669983  56.1500015  55.2550011  37.9109993
  55.7610016  55.3699989  38.8330002  55.4070015  55.5130005  37.3440018
  71.6470032  61.4269981  43.8429985  71.9570007  61.6529999  42.9980011
  70.9189987  62.1230011  43.9500008  70.1100006  52.3120003  28.9220009
  70.6709976  52.0139999  29.6660004  70.5940018  51.9799995  28.1970005
  76.5059967  52.4860001  38.6020012  76.4079971  52.8580017  37.7229996
  76.9319992  51.6559982  38.4220009   2.1580000  49.2029991  47.5089989
   2.3599999  49.9280014  46.8289986   1.1680000  49.3190002  47.4879990
  73.6110001  43.2500000  38.1339989  74.5260010  43.2919998  37.8409996
  73.5910034  42.5540009  38.8009987   3.9840000  48.7470016  33.7910004
   3.2100000  49.3950005  33.8230019   4.2020001  48.7560005  32.8709984
  60.5639992  51.7439995  33.4150009  61.1389999  52.5359993  33.5180016
  59.9650002  52.0540009  32.6860008  62.9720001  49.6809998  50.3569984
  62.3059998  49.2579994  49.7109985  63.7680016  49.1599998  50.0600014
  61.6660004  54.0940018  34.0810013  61.3400002  55.0019989  33.9819984
  62.4980011  54.2029991  34.5559998  71.2389984  72.3160019  36.1980019
  70.3040009  72.0630035  36.0340004  71.6210022  71.4309998  36.0009995
  34.6879997  -0.6900000  32.5509987  35.4869995  -0.0950000  32.3870010
  34.0040016  -0.0070000  32.5690002  66.6070023  67.6490021  31.2770004
  65.7620010  67.7679977  30.8040009  66.3860016  68.0739975  32.1479988
  73.9079971  67.9899979  30.9270000  74.4179993  68.2649994  30.1359997
  73.5139999  67.1389999  30.5240002  60.2179985  73.5299988  37.6269989
  60.9379997  73.3460007  38.3120003  59.5730019  72.8470001  37.9550018
  65.2099991  73.0599976  29.6420002  65.5889969  73.9160004  29.3500004
  64.8700027  72.7519989  28.8099995  77.0800018  61.6129990  41.4679985
  76.3270035  61.2989998  42.0600014  76.7799988  61.3839989  40.5979996
  27.0240002  -5.4089999  25.3409996  26.5650005  -5.4010000  26.1840000
  26.7779999  -4.5520000  24.9659996  29.8040009  -3.3410001  28.0259991
  28.9330006  -2.9330001  27.6949997  30.0520000  -3.7969999  27.1609993
  70.6940002  74.2779999  28.6250000  71.0090027  74.1449966  27.6970005
  70.7710037  73.3560028  28.9829998  67.8229980  70.0970001  30.4899998
  67.7829971  69.1439972  30.3829994  68.0899963  70.1999969  31.4260006
   0.8870000  64.8539963  31.5849991   0.7530000  65.4229965  32.3540001
   1.8450000  64.8669968  31.4379997  70.2350006  59.8460007  41.2620010
  70.1139984  59.1199989  41.8510017  71.1490021  60.0740013  41.4259987
  71.7109985  61.0919991  37.1500015  70.8779984  60.7410011  37.4690018
  71.6139984  62.0600014  37.2169991  17.7609997   3.7449999  28.2910004
  17.7539997   3.7010000  29.2269993  17.0909996   3.1070001  27.9990005
  23.4029999   8.6250000  43.7989998  23.8959999   9.4110003  43.5169983
  23.9860001   7.9050002  43.4070015  72.0780029  70.3730011  32.5299988
  72.4700012  69.7180023  31.9279995  72.9489975  70.9339981  32.6599998
  60.0800018  67.3399963  34.1399994  59.6080017  67.1460037  34.9879990
  59.3489990  67.6920013  33.6160011  28.6250000  -1.6600000  41.5309982
  29.0450001  -2.2119999  42.2029991  28.2390003  -0.9420000  42.0730019
  17.0660000  62.2919998  37.5369987  17.0359993  62.8400002  38.4010010
  17.7150002  62.8190002  37.0489998  65.2399979  77.3150024  40.0810013
  65.7139969  76.9550018  40.8250008  64.4850006  76.6849976  39.9700012
  72.8970032  58.3930016  38.8450012  72.3600006  57.6279984  39.0089989
  72.2269974  59.0120010  38.4959984  79.3040009  57.8909988  53.5810013
  80.0770035  58.0610008  53.0449982  78.5940018  58.2420006  52.9679985
  60.9090004  63.8820000  48.4580002  60.1279984  63.4739990  48.1240005
  61.4059982  63.2630005  48.9420013  66.9079971  61.2019997  43.7490005
  66.5699997  61.9980011  43.3059998  66.9069977  61.4799995  44.6980019
  67.2860031  54.1759987  34.8320007  68.1790009  53.8139992  34.9669991
  67.5100021  55.1640015  35.0279999  70.3980026  61.6300011  47.2299995
  70.9309998  62.4379997  46.9720001  71.1510010  61.0229988  47.3419991
  66.6689987  75.3939972  33.7820015  67.4209976  75.9980011  33.8870010
  66.0569992  75.8649979  33.1860008   5.5380001  50.5800018  35.0379982
   5.2909999  49.9589996  34.3310013   4.9340000  51.3129997  34.8260002
  71.3470001  65.3820038  43.1110001  71.2500000  65.6460037  44.0349998
  72.1709976  65.8089981  42.8370018   7.8260002  57.9309998  43.8699989
   7.7989998  57.8040009  42.9249992   7.6110001  57.0460014  44.2130013
  24.2490005   1.5580000  48.7179985  24.7689991   0.9820000  49.3180008
  23.5470009   0.8790000  48.4920006  70.0419998  59.8610001  31.0510006
  70.8130035  59.7449989  30.5100002  70.3750000  60.4309998  31.7740002
  77.2009964  64.2870026  26.4109993  77.0439987  64.1729965  25.4470005
  76.4670029  64.9469986  26.6030006  27.3540001  -0.4890000  32.1399994
  27.0680008  -1.4220001  32.1349983  28.2639999  -0.6660000  32.4570007
  75.4189987  58.8740005  39.3219986  74.4550018  58.7529984  39.1259995
  75.5550003  59.8170013  39.1090012   4.5050001  53.6139984  31.8630009
   3.9110000  53.4080009  31.1350002   5.3820000  53.6679993  31.4759998
  17.5330009  -0.1160000  36.9500008  17.7070007  -1.0650001  36.7190018
  17.9090004   0.3500000  36.1629982  77.9919968  57.5320015  34.6780014
  77.0739975  57.7659988  34.7649994  78.4430008  58.3680000  34.5709991
  71.7269974  61.3800011  32.9290009  72.3690033  61.6660004  32.2610016
  71.5439987  62.2000008  33.4189987  21.9230003   0.6600000  30.9160004
  22.5760002   0.0080000  31.2019997  22.2059994   1.4220001  31.4640007
  15.6269999  59.9059982  38.0209999  16.3439999  60.6399994  37.9399986
  15.5850000  59.8660011  38.9850006  50.1829987  31.1660004  84.6490021
  49.9760017  31.2759991  85.5820007  49.4099998  30.7080002  84.3239975
  22.8799992   5.7610002  40.2070007  22.0109997   6.1960001  39.9269981
  22.9309998   6.1880002  41.1090012  71.4420013  72.9079971  40.6500015
  71.3069992  72.0500031  41.1839981  71.9619980  72.4960022  39.9490013
  72.9029999  52.1850014  43.3409996  73.5830002  51.5120010  43.1559982
  73.3590012  52.7420006  43.9910011  29.5599995  -5.6250000  37.2840004
  30.0529995  -4.9120002  37.7159996  30.2660007  -6.3330002  37.3390007
   5.6630001  59.1300011  31.8840008   5.9970002  58.6189995  32.6559982
   5.6929998  58.3820000  31.2490005  75.3089981  69.1679993  38.4129982
  74.8629990  69.4639969  37.6030006  76.2190018  69.0569992  38.1310005
   4.8579998  61.9900017  35.7249985   5.8119998  61.8160019  35.8569984
   4.5219998  61.7550011  36.6609993  71.4029999  58.7490005  48.4799995
  71.6719971  59.0690002  47.5620003  72.1920013  58.2480011  48.7270012
   5.4889998  54.1389999  48.3820000   5.6259999  53.3279991  47.8470001
   4.8140001  54.6250000  47.8950005  72.7590027  63.5419998  49.3069992
  72.2969971  63.5730019  48.4580002  72.0220032  63.5040016  49.9169998
   2.9949999  62.8149986  44.7999992   3.3850000  62.8040009  43.9029999
   2.8090000  63.7949982  44.9510002  71.5449982  63.6660004  37.2789993
  71.1900024  64.3740005  37.8540001  70.8499985  63.5579987  36.6290016
  31.6369991  -4.0910001  22.4389992  31.8859997  -3.7539999  21.5370007
  31.2719994  -3.2909999  22.8570004  58.0250015  77.5009995  35.2989998
  58.0680008  78.2880020  34.6920013  57.9850006  76.7649994  34.6850014
  76.2710037  64.9570007  40.4539986  75.8420029  64.3720016  39.8330002
  76.9160004  65.4580002  39.9539986  56.8460007  28.6259995  83.5250015
  56.1520004  28.0300007  83.9100037  56.7410011  28.3320007  82.5930023
   3.7920001  52.5690002  34.2179985   4.2350001  53.0159988  33.5180016
   2.8789999  52.8520012  34.1469994  75.4919968  63.9269981  55.5159988
  75.8519974  63.8320007  56.4539986  76.1510010  64.4960022  55.1220016
  66.9380035  60.7050018  37.1769981  67.1220016  60.4319992  36.2690010
  65.9509964  60.8619995  37.1360016  52.3260002  69.2340012  36.6549988
  53.0680008  69.0879974  37.2700005  52.7220001  69.2129974  35.7859993
  67.6039963  56.7750015  35.8149986  68.5510025  56.8240013  35.8230019
  67.3899994  56.9399986  36.7809982  78.5469971  63.2140007  44.3019981
  78.2799988  62.4350014  44.7350006  77.8170013  63.8540001  44.4259987
  54.2980003  58.0519981  30.7859993  54.2960014  58.1870003  31.7269993
  54.9850006  58.6609993  30.5189991  25.9860001  -5.7589998  44.4290009
  26.1359997  -5.4219999  45.3160019  26.9200001  -5.9870000  44.1479988
  78.0299988  56.3660011  31.2619991  77.5719986  56.7919998  30.4599991
  77.2330017  56.4259987  31.8509998  18.8530006   0.1910000  26.0830002
  19.6450005   0.2040000  26.6669998  19.1639996  -0.6090000  25.5569992
  64.7659988  65.2730026  37.3699989  65.0080032  66.1009979  37.8219986
  64.7050018  64.6729965  38.1459999   2.8039999  40.7659988  41.8199997
   2.8540001  39.9420013  42.3680000   2.7170000  40.3310013  40.9329987
   1.3860000  56.6389999  39.3909988   0.6830000  55.9620018  39.4150009
   0.8600000  57.4519997  39.3849983   1.7230000  50.4770012  33.4790001
   0.8000000  50.3510017  33.6559982   1.9640000  51.3160019  33.8889999
   1.4069999  66.6910019  25.5769997   0.9120000  67.5189972  25.4880009
   0.7710000  66.1709976  26.0730000  72.2770004  70.2009964  28.3269997
  71.6660004  70.5739975  28.9279995  72.4649963  70.9840012  27.7189999
   1.3350000  56.0180016  42.5740013   0.3570000  56.2550011  42.3790016
   1.1430000  55.2500000  43.1529999   0.7740000  57.7560005  48.6020012
   1.0230000  57.7869987  47.6689987   0.0130000  57.1010017  48.4980011
  69.5329971  69.9800034  46.4440002  69.1910019  69.4390030  45.6990013
  69.1129990  69.5130005  47.1959991  71.0500031  63.5429993  34.5340004
  70.1600037  63.9379997  34.1459999  71.6029968  64.2220001  34.1360016
   0.8300000  56.9290009  32.4620018   1.1650000  57.8040009  32.1990013
   0.1150000  56.7760010  31.8400002  62.6399994  76.2969971  37.3300018
  63.3930016  76.4039993  36.7130013  61.9570007  75.8750000  36.7690010
  11.8929996  11.5439997  34.3889999  11.2110004  10.8450003  34.5639992
  12.3950005  11.1379995  33.6860008  17.5699997   4.5679998  31.0909996
  16.8579998   5.2410002  30.8519993  18.3600006   5.1100001  30.7819996
  73.4150009  62.3160019  31.1560001  74.3399963  62.7500000  31.2989998
  73.6490021  61.8790016  30.3209991  69.2360001  70.0820007  41.2109985
  68.7180023  70.1660004  40.4010010  68.8769989  70.7389984  41.8170013
  68.7639999  62.8180008  40.4059982  69.4800034  62.2350006  40.7529984
  68.8280029  62.6510010  39.4280014  28.6040001  -2.2149999  49.4230003
  27.9330006  -2.7200000  48.9620018  29.2460003  -2.9070001  49.6679993
  26.3589993  -2.1819999  40.3009987  27.1940002  -2.0430000  40.7949982
  25.6959991  -2.2249999  41.0110016  76.4000015  61.1539993  36.1300011
  77.2119980  61.5629997  35.7700005  76.3229980  60.4339981  35.4210014
   2.7730000  68.5360031  32.7709999   1.9940000  68.6829987  32.2420006
   2.6180000  69.1679993  33.4920006  63.6790009  66.8570023  33.1920013
  64.3880005  67.4990005  33.3860016  63.5620003  66.5009995  34.0730019
  15.5860004   1.9590000  34.8759995  15.5200005   2.9240000  34.6899986
  16.4169998   1.7960000  34.2820015  71.9690018  57.2029991  35.3149986
  71.1470032  56.8489990  35.8160019  71.5390015  58.0400009  34.9700012
   7.0900002  54.7949982  32.0480003   6.7830000  54.9280014  32.9280014
   7.7280002  54.0060005  32.1889992  77.9830017  53.4239998  41.3860016
  78.7659988  52.9290009  41.6320000  77.6139984  52.9560013  40.6720009
  74.9089966  67.1370010  54.9239998  74.4059982  66.8610001  54.2029991
  75.6959991  66.5599976  55.0110016  72.3909988  63.8639984  20.9549999
  72.2480011  63.2809982  21.7000008  71.5780029  64.4300003  21.0779991
  13.9469995   8.6280003  37.9659996  13.7049999   7.7600002  38.3009987
  13.5760002   8.4820004  37.0359993  66.7460022  70.6009979  44.8419991
  67.5350037  70.9020004  45.3590012  66.2269974  70.0960007  45.4529991
  16.8169994   3.2930000  40.2519989  15.8610001   3.1949999  40.3779984
  17.1369991   2.3729999  40.3030014  68.5019989  71.5189972  35.7290001
  68.1480026  70.6340027  35.6800003  67.8020020  71.9339981  36.3489990
  26.5540009  -5.4559999  46.9589996  26.2880001  -5.4940000  47.9020004
  27.5109997  -5.5520000  47.0299988  56.2659988  73.9990005  37.5940018
  56.9319992  73.7210007  38.2470016  56.7249985  73.8509979  36.7820015
  65.3229980  74.9430008  35.9230003  64.8610001  75.8099976  35.9379997
  65.8799973  75.1959991  35.0870018  77.0800018  55.4080009  23.2609997
  76.6930008  54.7939987  23.8899994  78.0650024  55.2260017  23.3939991
  66.4850006  59.6889992  40.4659996  66.7300034  60.5730019  40.7900009
  66.8880005  59.1139984  41.2029991  56.5540009  26.8379993  80.9459991
  55.7519989  27.3309994  80.8489990  56.4749985  26.3050003  80.0680008
  39.8120003   9.2600002   9.4899998  39.7249985   8.4250002   8.9820004
  39.2050018   9.0880003  10.2410002  38.0429993  -1.9250000  21.7010002
  37.4090004  -1.1550000  21.6889992  37.9350014  -2.1980000  20.7600002
  51.7029991  31.4489994  79.8000031  51.1699982  30.6429996  79.7160034
  51.7960014  31.5639992  80.7419968  63.1259995  32.0960007  72.9619980
  62.6389999  32.9109993  72.6959991  62.2960014  31.4829998  72.9390030
  29.4190006   1.9650000  25.2980003  28.7380009   2.0160000  25.9939995
  28.9619999   1.4600000  24.6459999  27.9080009  13.7950001  24.4080009
  28.0510006  13.6949997  25.4039993  28.7049999  14.3900003  24.2660007
  60.1150017  39.8880005  77.7669983  60.4879990  40.7010002  78.1309967
  59.1980019  39.8919983  78.1709976  59.5449982  23.6860008  71.5439987
  60.2340012  23.8449993  72.2480011  58.9659996  24.3920002  71.6880035
  36.5929985   5.6880002  31.0510006  36.6650009   6.6710000  30.8299999
  36.9739990   5.3109999  30.2320004  14.4790001  71.0759964  22.9780006
  13.7170000  70.6419983  23.3059998  14.1169996  71.7239990  22.3449993
  53.8349991  33.8969994  77.5579987  54.4339981  34.5940018  77.3290024
  53.1839981  33.9399986  76.9059982  16.4769993  71.6259995  17.5279999
  16.1520004  72.4100037  17.0720005  15.9560003  71.5810013  18.3589993
  51.2400017   5.3270001  20.8419991  51.5270004   5.0890002  19.9529991
  51.9109993   5.9710002  21.1110001  31.5359993   1.9920000  17.8080006
  30.7759991   1.9620000  17.1790009  31.0779991   2.3989999  18.5760002
  11.6759996  67.4739990  21.0799999  10.8680000  66.9710007  20.7360001
  11.4560003  67.3919983  22.0370007   9.3059998  66.6259995  25.3829994
   9.9510002  66.5650024  24.6900005   9.8750000  66.5690002  26.1760006
  53.0480003  34.4640007  85.8619995  53.2980003  34.9770012  85.0429993
  53.4099998  33.5690002  85.6360016  30.4689999  -0.8910000  28.6289997
  31.1910000  -0.9410000  27.9899998  30.0429993  -1.7630000  28.4179993
  39.9529991   2.5569999  29.7789993  39.9620018   2.2920001  30.7019997
  40.4990005   3.3710001  29.7399998  59.9000015  33.5449982  83.7699966
  59.3750000  34.1899986  83.1490021  60.5009995  33.1910019  83.0780029
  40.5620003  -1.9299999  21.1550007  40.7840004  -0.9990000  21.3719997
  39.6209984  -2.0120001  21.4029999  46.9799995   2.3199999  30.3950005
  46.7140007   2.3620000  29.4699993  46.2249985   2.7520001  30.8120003
  17.3250008  74.0309982  35.6800003  16.4710007  74.4359970  35.9140015
  17.6900005  73.7620010  36.5149994  25.2450008  76.7570038  28.5590000
  24.7789993  76.4950027  27.7660007  24.9130001  77.6600037  28.6770000
  49.6100006   6.6100001  27.3220005  50.0070000   6.6510000  26.4139996
  49.3279991   7.5430002  27.4009991  39.7169991  19.7469997  11.9600000
  39.1199989  20.3689995  11.4390001  39.5060005  18.9270000  11.5109997
  20.8369999  72.7070007  25.2049999  21.4969997  72.4380035  25.8600006
  20.4370003  73.4810028  25.6450005  43.0649986  10.6879997  32.0359993
  43.4770012   9.7510004  31.9790001  42.7659988  10.6450005  33.0009995
  58.3460007  35.4659996  82.4960022  57.8699989  36.0579987  83.1009979
  59.0110016  36.0970001  82.1129990  47.6599998   3.4270000  20.3640003
  47.6660004   2.8699999  21.1340008  47.8740005   4.3039999  20.7420006
  35.7529984  69.5130005  30.1280003  36.3660011  68.7710037  30.4029999
  35.0690002  68.9089966  29.7280006  25.6779995  72.8209991  31.0550003
  25.4389992  73.7600021  30.8150005  24.7730007  72.4110031  30.9799995
  54.4900017   4.5430002  21.0259991  54.8720016   4.4349999  21.9319992
  55.1619987   4.9819999  20.5230007  38.0649986  10.4820004  26.0200005
  37.7210007  10.0080004  25.2360001  37.8030014  11.4280005  25.8379993
  31.2169991  71.4810028  32.8979988  32.2319984  71.4779968  32.9910011
  31.2180004  70.6800003  32.3149986  49.2949982   5.9619999  35.2019997
  48.4560013   5.6110001  34.8390007  49.7439995   6.2490001  34.4379997
  36.8190002   5.2449999  17.5750008  36.7500000   6.0440001  17.0149994
  36.5089989   4.5380001  16.9850006  31.1930008  15.0489998  21.4799995
  31.3220005  14.5179996  20.6189995  30.1860008  14.8730001  21.4549999
  46.7179985   5.0339999  15.7729998  47.2729988   5.4959998  15.1429996
  46.7529984   4.1009998  15.4469995  20.5699997  74.5059967  45.1889992
  20.9029999  74.7030029  46.0629997  19.6900005  74.9410019  45.2919998
  26.6849995  73.0210037  14.1239996  26.0289993  72.5350037  14.6639996
  26.4150009  73.9130020  14.3509998  26.9650002  65.8939972  34.6870003
  27.8430004  65.6880035  35.1389999  27.3820000  66.3690033  33.9269981
  61.9399986   7.9229999  28.7859993  61.0550003   8.1840000  29.0119991
  61.9819984   8.1470003  27.8069992  28.1469994  71.3170013  39.8019981
  28.5799999  72.2040024  39.8940010  28.7910004  70.8119965  39.2400017
  44.2949982  12.0349998   8.0240002  44.9550018  11.3269997   8.0570002
  43.5239983  11.6479998   8.4779997  56.3889999  11.7570000  26.5520000
  55.4550018  11.9010000  26.3439999  56.3330002  11.0030003  27.1469994
  28.6599998  69.8809967  27.5060005  27.9979992  70.5049973  28.0049992
  29.0849991  69.5169983  28.2609997  50.3610001   4.4010000  17.2889996
  50.1430016   3.6090000  17.8230000  51.2270012   4.6339998  17.6919994
  23.1630001  72.1139984  44.7369995  23.9669991  71.9049988  44.2500000
  22.6940002  72.6549988  44.0880013  24.9300003  75.4810028  25.8859997
  25.5879993  76.0690002  25.4029999  24.5139999  75.0989990  25.0709991
  45.9199982   2.2869999  41.4280014  46.8380013   2.5690000  41.6510010
  45.4850006   2.2030001  42.2470016  40.9599991  17.7180004  23.3320007
  41.3759995  18.1389999  24.0699997  41.5719986  16.9510002  23.2199993
  67.2119980   9.6359997  29.9400005  67.6809998   8.7880001  29.7450008
  66.5009995   9.2869997  30.5170002  13.0400000  66.4530029  29.5020008
  12.3769999  66.3960037  28.7210007  12.9770002  65.5360031  29.7970009
  22.3309994  72.7580032  36.5929985  22.0930004  71.9479980  37.0559998
  23.2630005  72.5220032  36.2919998  47.9389992  12.6470003  32.6020012
  46.9589996  12.7889996  32.2999992  48.0279999  13.5290003  33.0639992
  44.0559998  16.3029995  10.4790001  43.5670013  15.7069998   9.8260002
  43.4059982  16.9150009  10.6980000  18.9839993  72.8590012  21.6009998
  19.3449993  71.9899979  21.3029995  18.0839996  72.5800018  21.8400002
  37.9469986  13.7740002  11.8769999  37.6170006  14.3090000  12.6590004
  38.5900002  14.4010000  11.5019999  36.8470001  13.0000000  34.9090004
  37.3260002  12.2469997  35.3089981  36.3440018  13.3470001  35.6489983
  42.8870010   1.8470000  34.5429993  43.5219994   1.7630000  35.2820015
  42.0779991   1.4650000  34.9319992  46.5229988   8.6370001  30.7709999
  46.8610001   9.2639999  30.1110001  47.0740013   8.8439999  31.5310001
  45.7620010   6.1279998  37.9720001  45.6730003   5.3920002  38.5610008
  46.3880005   6.7399998  38.4459991  31.8150005  75.6900024  36.5029984
  31.9540005  75.1309967  35.7220001  31.2210007  75.0889969  37.0159988
  11.5559998  69.4240036  23.4729996  12.1689997  69.5810013  24.2169991
  10.7139997  69.5149994  23.8889999  50.4469986   3.8870001  23.0279999
  50.6640015   4.3130002  22.1420002  51.1489983   3.2300000  23.1219997
  37.0260010  79.0979996  21.6620007  37.7420006  78.5800018  22.0650005
  36.5550003  79.3830032  22.5620003  42.3089981   2.3989999  25.7110004
  41.4220009   2.8360000  25.6030006  42.1049995   1.5310000  26.0030003
  28.3910007  76.7559967  24.1180000  29.3320007  76.5169983  23.8829994
  28.4389992  77.5479965  24.6270008  19.7570000  74.6819992  26.6539993
  19.1620007  74.8010025  27.3950005  19.2630005  75.0080032  25.8920002
  43.8409996   1.8730000  21.7700005  44.6139984   2.5050001  21.8180008
  44.2280006   1.2029999  21.1870003  67.5800018  44.0229988  68.2689972
  68.3069992  43.5830002  68.7969971  67.3290024  43.2470016  67.7320023
  41.0620003  22.9449997  14.0290003  41.5400009  22.7950001  14.8610001
  41.7649994  23.1030006  13.4239998  16.6450005  65.1409988  30.4909992
  17.3670006  64.8460007  29.9099998  15.9139996  64.5820007  30.0569992
  16.4659996  72.2170029  20.8810005  16.1919994  71.3499985  20.5699997
  15.5600004  72.6360016  20.9020004  54.9029999  12.0760002  18.5669994
  54.4449997  12.0150003  17.7259998  54.2999992  11.4580002  19.0979996
  49.7789993  17.9680004  13.7989998  49.0779991  18.5160007  14.0819998
  49.4980011  17.7070007  12.8999996  49.2680016   3.1559999  25.7570000
  49.2099991   3.9890001  25.2299995  50.2319984   3.1910000  25.9829998
  42.4560013   7.2059999  26.1200008  41.9179993   6.4460001  25.8810005
  42.1749992   7.3579998  27.0359993  20.2719994  73.1729965  29.8349991
  19.6329994  73.3860016  29.1539993  19.8859997  73.6949997  30.5839996
  55.5820007  10.3870001  15.2799997  54.8149986  10.9580002  15.4510002
  55.4879990   9.7209997  15.9919996  55.5110016   3.7530000  39.4230003
  55.0760002   3.9150000  38.5559998  54.7830009   3.9260001  40.0419998
  34.0660019  12.5419998  19.7259998  33.3940010  13.3009996  19.6730003
  33.4790001  11.8649998  20.0499992  19.4750004  68.0090027  26.9480000
  19.7089996  67.0970001  26.8190002  19.1730003  68.3229980  26.0779991
  64.6340027   7.3509998  23.5629997  65.4189987   7.6680002  23.1240005
  64.9449997   6.4150000  23.7880001  45.6619987   3.7420001  22.6830006
  46.4609985   3.3740001  23.0939999  45.8540001   4.7170000  22.8230000
  41.1259995  10.0920000  27.6329994  42.0320015   9.9729996  27.3160000
  40.6059990  10.2040005  26.8220005  18.0419998  71.4629974  37.9000015
  18.7639999  71.2340012  37.2900009  18.5559998  71.3619995  38.7519989
  46.6489983   1.7720000  15.1850004  47.2709999   1.2400000  15.7240000
  46.6790009   1.2500000  14.3090000  23.6009998  68.0449982  20.4909992
  23.8610001  67.3970032  19.8059998  23.9829998  67.6969986  21.2940006
  18.4220009  68.4260025  35.6250000  18.5809994  67.5820007  35.1539993
  17.4360008  68.4820023  35.4430008  40.1870003  14.6160002  39.2630005
  40.0190010  14.3699999  40.1710014  39.9410019  15.5780001  39.2509995
  53.0289993   4.7839999  32.8370018  53.5439987   4.1250000  32.3889999
  53.1279984   5.5920000  32.2500000  19.2159996  71.1699982  40.2260017
  18.5830002  71.6320038  40.8300018  19.1749992  70.2710037  40.5649986
  29.4669991  75.1660004  21.4419994  29.3939991  75.8450012  22.1420002
  28.7840004  74.5559998  21.6860008  71.1179962  45.7669983  68.7089996
  71.0319977  45.6720009  67.7269974  70.4150009  46.3889999  68.9089966
  46.7280006   8.7200003  22.4139996  46.3440018   8.6210003  21.5330009
  47.3429985   7.9879999  22.4389992  44.0270004   6.1799998  44.0970001
  43.8790016   6.2090001  43.0970001  44.5180016   6.9879999  44.1790009
  50.6549988   7.9200001  23.5639992  50.7869987   7.3790002  24.4179993
  51.5419998   7.8309999  23.1609993  16.2150002  69.8140030  37.1679993
  15.7519999  70.6340027  36.9669991  17.1700001  70.2429962  37.2750015
  41.2519989  11.9659996  38.9210014  41.2490005  12.9549999  39.0999985
  42.0719986  12.0030003  38.2939987   9.7320004  70.1460037  38.1580009
  10.2700005  70.4240036  37.3670006   9.7989998  70.9899979  38.6870003
  39.4319992  14.8640003  31.3850002  39.6479988  14.3599997  32.2200012
  38.7589989  14.3039999  31.0319996  40.0970001   4.6750002  21.5569992
  40.9220009   4.6139998  22.1219997  39.8779984   5.6310000  21.7600002
  36.3530006   7.3010001  26.3519993  36.0270004   7.3610001  25.4510002
  36.0470009   6.4120002  26.5750008  31.2889996   5.6830001  21.7460003
  31.4960003   5.3350000  20.8020000  31.3969994   6.6339998  21.5510006
  36.7010002   0.3940000  21.3530006  37.0019989   1.2900000  21.5990009
  37.0530014   0.3880000  20.3850002  38.4780006  16.6590004  39.0439987
  38.0130005  17.3239994  39.5769997  37.8260002  16.4449997  38.3969994
  36.3769989  16.1280003  30.3349991  37.2490005  16.5100002  30.5160007
  35.7620010  16.8640003  30.5699997  44.5180016  13.5509996  33.6689987
  44.7330017  12.6780005  34.0940018  44.6850014  13.2399998  32.7120018
  40.6949997  -0.5630000  17.7859993  41.4729996  -0.3890000  18.4529991
  40.7949982  -1.5829999  17.8929996  40.0690002  10.9119997  42.5190010
  40.3040009  10.0469999  42.9650002  40.1780014  10.6389999  41.6100006
  45.2910004  15.8039999  24.6079998  45.7210007  15.6359997  23.7339993
  46.0660019  15.5279999  25.1700001  23.9899998  74.5510025  23.3950005
  24.3519993  75.1419983  22.7250004  23.0389996  74.5279999  23.1310005
  42.8089981   8.9320002  21.0240002  42.4399986   8.6739998  21.9160004
  43.6230011   8.4040003  20.9260006  49.2379990  10.4329996  22.8430004
  48.9389992  10.0979996  21.9599991  49.8190002   9.6949997  23.1019993
  52.9420013   7.2610002  29.2530003  53.4179993   6.6520000  28.7129993
  52.1819992   6.7639999  29.5209999  39.6800003   7.8899999  20.3330002
  39.7579994   8.6479998  19.7059994  40.5299988   7.4439998  20.0919991
  40.6279984   5.1620002  13.9670000  40.9179993   5.7170000  13.2559996
  41.4580002   4.7040000  14.2430000  28.1749992   6.7360001  21.6429996
  28.5160007   7.3000002  22.4239998  28.1989994   5.8540001  22.0709991
  48.0089989  14.2089996  12.1610003  47.0279999  14.3760004  12.1510000
  48.2760010  15.0699997  11.8129997  36.6269989   8.3179998  30.2040005
  36.6969986   8.6330004  29.2439995  36.8680000   9.1669998  30.6369991
  47.9280014   9.1949997  42.7729988  48.5550003   8.4729996  42.5589981
  48.5569992   9.9480000  42.5810013  21.3209991  70.1129990  14.1969995
  20.7779999  70.3669968  14.9399996  20.9239998  70.6600037  13.4980001
  49.4830017   3.5490000  29.0340004  49.0660019   3.5560000  28.0869999
  48.8510017   2.8659999  29.3929996  24.3969994  69.6289978  31.6620007
  23.4500008  69.5429993  31.7900009  24.3959999  69.8560028  30.7150002
  47.2220001  10.7340002  29.1940002  47.5439987  11.6709995  29.4480000
  46.3180008  11.0260000  28.9260006  33.5859985   0.0020000  16.7900009
  34.3230019   0.5190000  17.2600002  32.8260002   0.4950000  17.0720005
  45.9070015   5.8629999  18.1210003  46.2570000   5.3950000  17.3069992
  45.0660019   6.1729999  17.6809998  59.1640015  28.1240005  73.4270020
  59.3880005  27.9470005  72.5380020  58.2350006  27.8330002  73.4509964
  58.0369987   4.6050000  31.8869991  58.8839989   5.0530000  32.1660004
  57.6059990   5.3290000  31.4209995  39.0120010   7.4330001  26.4440002
  38.0209999   7.4359999  26.5310001  39.0320015   7.8559999  25.5540009
  62.3139992   6.0669999  26.1490002  63.1329994   5.5630002  26.1609993
  62.6279984   7.0009999  26.0149994  50.7509995   8.7840004  33.7669983
  50.1580009   9.3959999  33.3100014  50.5410004   7.9310002  33.3880005
  30.1630001  73.0800018  30.9829998  30.7830009  72.5390015  31.4839993
  29.3010006  72.8809967  31.4720001  50.6290016  10.5909996  30.2089996
  51.2879982  10.1960001  30.8279991  51.1040001  10.4239998  29.3460007
  44.7360001   3.7279999  31.0620003  45.2290001   4.5270000  30.9720001
  43.9830017   4.0669999  31.5429993  33.6469994  78.6460037  15.9820004
  33.8030014  79.1230011  15.0920000  33.3930016  77.7789993  15.6040001
  35.4039993  23.9669991  34.8269997  35.1259995  24.3509998  35.6959991
  35.5979996  24.7950001  34.3050003  42.4259987  17.6940002  28.0510006
  42.0909996  18.2579994  28.7019997  42.0050011  16.8670006  28.3160000
  38.3839989  11.1450005  35.8979988  38.8919983  10.4060001  35.5950012
  39.1090012  11.7760000  36.1959991  45.1489983   3.2219999  18.9969997
  45.4389992   4.1050000  18.6819992  45.9739990   2.9920001  19.4790001
  39.1699982  21.6369991  27.0930004  39.2620010  20.7040005  26.7500000
  39.9420013  21.9950008  26.5879993  54.4490013  13.4659996  43.3230019
  55.2210007  13.1920004  42.7840004  54.0070000  12.6239996  43.4669991
  50.2680016   2.9310000  37.5359993  50.8129997   3.3629999  36.8250008
  50.1539993   2.0200000  37.1090012  43.1489983   4.0640001  15.0520000
  43.6660004   3.4510000  15.5830002  43.5859985   4.0200000  14.1980000
  28.2199993  77.5770035  31.5259991  29.1170006  77.5309982  31.9099998
  27.8540001  76.7190018  31.6959991  54.2680016   7.4540000  32.4210014
  53.7789993   8.2370005  32.0239983  54.2570000   7.7170000  33.3470001
  24.5970001  71.9700012  24.2460003  24.0990009  71.6949997  25.0580006
  24.2320004  72.8359985  24.0520000  54.9589996   9.4820004  41.5839996
  54.3409996   9.0500002  42.2500000  55.7970009   9.0410004  41.8400002
  43.0999985  17.2840004  19.3190002  43.9090004  17.5650005  19.8010006
  43.4350014  16.4340000  18.9449997  35.2849998   8.2550001  23.3080006
  35.5149994   9.1990004  23.5319996  36.0919991   8.0740004  22.7049999
  48.8989983   6.5739999  21.9009991  49.4510002   6.2960000  21.1310005
  49.5649986   6.8870001  22.5240002  46.2739983   5.8800001  30.6380005
  46.0909996   6.8220000  30.8419991  46.5870018   6.0200000  29.7140007
  51.8849983  14.2819996  11.8699999  52.0110016  13.7580004  11.0920000
  51.1349983  14.8669996  11.6309996  53.8199997  11.6330004  25.3980007
  53.4480019  11.1750002  24.6040001  53.0859985  12.2580004  25.6030006
  49.8839989   6.1589999  32.4580002  50.2000008   6.1310000  31.5730000
  49.1189995   5.5590000  32.4239998  39.5019989  13.9469995  20.3640003
  39.6629982  14.0730000  21.2929993  40.3600006  13.6400003  20.0009995
  31.9880009  23.1529999  28.3689995  31.9419994  22.3250008  28.8899994
  32.8489990  23.0839996  27.9440002  26.9829998   8.9630003  20.1509991
  26.2779999   9.1770000  20.8360004  27.4449997   8.2550001  20.6079998
  34.3619995  -2.5150001  42.6230011  34.9809990  -3.2470000  42.3750000
  34.9210014  -1.7410001  42.4059982  21.6709995  20.4780006  34.7680016
  22.0499992  21.3759995  34.5559998  21.5349998  20.6049995  35.7360001
  34.4000015   4.8620000  45.2690010  35.3419991   4.6799998  45.4020004
  34.4449997   5.7849998  44.9319992  33.3250008  16.7880001  20.7840004
  32.4970016  16.3500004  20.9740009  33.4760017  17.3859997  21.5259991
  36.8839989   1.0880001  32.2869987  37.2099991   1.6470000  33.0029984
  36.3790016   1.7350000  31.7490005  45.2369995  12.3389997  31.4360008
  45.0200005  12.1400003  30.5130005  44.5480003  11.7449999  31.8980007
  42.5379982  14.4619999  35.6609993  42.4679985  15.1470003  34.9230003
  42.9490013  13.7880001  35.0719986  68.5960007  12.8409996  26.6940002
  67.9380035  12.3160000  27.2919998  69.3799973  12.2989998  26.8239994
  33.6640015  73.2139969  10.2729998  34.0900002  74.0849991  10.0310001
  33.0460014  73.0999985   9.5539999  37.4319992   7.9400001  16.5009995
  37.8440018   8.7700005  16.9109993  38.2290001   7.6939998  15.9519997
  55.8419991  13.2209997  12.5000000  56.0489998  13.1009998  11.5649996
  55.5890007  12.2370005  12.6949997  42.4399986   4.1199999  22.9629993
  42.8730011   3.3659999  22.5869999  42.5540009   3.9660001  23.8810005
  33.8680000   0.4510000  36.8800011  34.4280014   0.6900000  37.6640015
  34.3050003   0.9990000  36.2360001  36.7639999   3.4349999  46.1279984
  37.7229996   3.3889999  46.3930016  36.5229988   2.5170000  46.0540009
  46.6809998   7.4109998  40.8549995  45.7719994   7.1939998  41.1139984
  47.0120010   7.8000002  41.7060013  36.0099983  18.7180004  24.5510006
  36.6080017  19.1450005  23.9150009  36.4049988  17.8490009  24.6030006
  44.3549995  19.9979992  10.0039997  44.2369995  19.7329998   9.0810003
  43.6759987  19.3700008  10.4180002  50.4020004  17.1910000   6.0510001
  50.6119995  18.1119995   5.8160000  49.4640007  17.1889992   5.6980000
  56.2900009  14.2349997  17.9629993  55.6150017  14.7069998  17.3640003
  55.7239990  13.4820004  18.1900005  61.6599998  21.0699997  23.5529995
  61.8530006  21.1000004  24.5249996  61.3880005  20.1100006  23.4920006
  62.5139999  15.8699999  30.1380005  63.4879990  15.7390003  30.0060005
  62.5359993  16.7150002  30.6989994  53.5779991  23.2220001   9.4740000
  53.8050003  24.1550007   9.4010000  54.2420006  22.8269997   8.8430004
  46.3269997   2.8750000  27.9130001  45.7290001   2.7409999  27.1730003
  47.1640015   2.5320001  27.5839996  61.8359985  18.4669991  11.2980003
  61.6090012  17.5149994  11.3070002  61.8209991  18.6280003  10.3520002
  33.8110008  75.5080032  33.2879982  32.8880005  75.2949982  33.2760010
  34.2050018  74.9390030  32.5649986  52.9790001   5.0320001  17.7049999
  53.3919983   4.7849998  16.8719997  53.0960007   5.9800000  17.7280006
  43.4269981   9.6800003  26.1289997  44.2680016   9.3830004  26.5200005
  43.0800018   8.7519999  25.9529991  64.2119980  10.7329998  30.4489994
  63.7519989  11.0930004  29.7119999  64.6289978  11.4969997  30.9150009
  58.0299988  13.9209995  20.1270008  57.4830017  14.0200005  20.9549999
  57.3400002  14.1540003  19.4810009  59.5089989  18.3990002  32.7360001
  60.3619995  17.9260006  32.7719994  59.6739998  19.0860004  33.4469986
  10.7419996  53.7779999  72.8499985   9.8809996  53.7430000  73.3809967
  10.3439999  54.0670013  72.0029984  48.6739998   9.1370001  27.3959999
  48.2050018   9.5509996  28.1229992  49.5660019   9.5190001  27.4529991
  55.6599998  17.4659996  17.7980003  56.3370018  16.9309998  18.2810001
  55.3149986  16.8099995  17.1970005  45.3440018  12.2539997  26.4750004
  45.7210007  11.7840004  25.6509991  45.2309990  13.0939999  26.1520004
  72.3909988  18.6329994  32.3829994  71.6689987  18.9699993  31.8209991
  72.4150009  17.7129993  32.0470009  56.9360008  11.1639996  46.9099998
  57.0649986  10.5200005  47.7089996  57.8810005  11.3739996  46.7610016
  44.8230019  23.1009998  21.7749996  44.0050011  23.2590008  21.2460003
  45.4459991  23.5960007  21.2570000  59.9510002   8.7550001  45.1899986
  59.6930008   8.1459999  44.3899994  59.1209984   9.2609997  45.1609993
  33.8720016  74.7949982  18.7989998  34.0610008  74.2809982  18.0380001
  34.5750008  74.4929962  19.3840008  49.4290009  15.8809996  20.4440002
  49.3979988  15.8330002  19.5139999  49.3610001  16.8439999  20.5680008
  52.5769997  13.6269999  20.8390007  53.2039986  12.9169998  21.1590004
  52.3979988  13.1899996  19.9559994  66.9250031  18.1119995  19.8169994
  67.0520020  18.0000000  18.8409996  67.3550034  17.2700005  20.1310005
  58.1370010  16.6879997  22.5930004  58.3050003  15.7889996  22.8069992
  58.0950012  17.1459999  23.4319992  57.6380005   3.9660001  21.3630009
  57.0900002   4.3169999  20.6480007  58.0859985   3.1830001  20.9839993
  71.1190033  15.7259998  18.4740009  71.4260025  14.8020000  18.5429993
  70.3519974  15.5640001  17.7970009  55.0219994   9.0830002  23.1590004
  55.7820015   8.9659996  22.5599995  55.4710007   8.9379997  24.0419998
  30.9890003  75.8529968  23.8400002  31.1490002  74.9329987  24.1539993
  31.3139992  75.7289963  22.9480000  58.9739990  14.5030003  16.7369995
  58.2779999  13.9390001  17.1359997  58.6769981  14.4729996  15.7889996
  62.8139992   8.8199997  26.3010006  62.3250008   9.5850000  25.9260006
  63.6839981   9.2089996  26.4340000  54.7949982  31.3530006   6.8699999
  54.4860001  30.7880001   7.6120000  54.0180016  31.9890003   6.8239999
  36.7750015  79.4639969  15.4370003  36.8870010  80.0009995  16.2759991
  36.7360001  80.1009979  14.7419996  54.1980019  19.0149994  15.5520000
  53.9440002  18.1359997  15.9799995  53.2809982  19.2970009  15.3260002
  63.5099983  12.3889999  26.9239998  62.5180016  12.2980003  26.9519997
  63.6689987  11.9270000  26.0690002  65.9229965  14.2900000  17.0660000
  66.3109970  13.4639997  16.6000004  66.3389969  15.0240002  16.5330009
  45.8429985  15.5419998   6.7150002  45.2550011  15.4969997   7.4480000
  45.7249985  14.5740004   6.4200001  65.1679993  27.1480007  16.9880009
  65.1309967  27.4759998  16.0830002  64.4919968  27.6919994  17.4080009
  49.3639984  18.5279999  21.3169994  48.9010010  19.2350006  20.7779999
  50.1080017  19.0219994  21.6420002  50.9329987  21.2709999  12.3690004
  51.2949982  21.2509995  11.4390001  49.9760017  21.1380005  12.1639996
  50.5719986   5.8460002  29.7399998  50.3629990   4.8950000  29.4659996
  50.3429985   6.2100000  28.8269997  27.6089993  76.7129974  37.3069992
  27.7989998  76.7460022  36.2890015  27.5990009  77.6399994  37.5130005
  71.7470016  24.5030003  27.3999996  72.0009995  23.7129993  27.9020004
  70.8209991  24.2609997  27.1340008  57.5820007  17.4659996  20.0620003
  57.6650009  17.1359997  20.9780006  57.4650002  18.3840008  20.0949993
  51.7999992  20.0370007  16.5270004  51.8740005  20.6219997  17.3309994
  51.4720001  20.7810001  15.9130001  53.0929985  12.0459995  32.4440002
  53.5940018  12.5710001  33.0400009  53.2039986  12.5880003  31.5860004
  51.6479988  10.1730003  27.7360001  52.3740005   9.7419996  27.2989998
  51.4770012  10.8900003  27.0849991  60.7999992  14.2580004  20.5039997
  60.9910011  15.1739998  20.2420006  59.9189987  14.1149998  20.1630001
  69.7929993   9.1499996  33.4659996  69.1559982   8.4180002  33.1920013
  70.0120010   9.4639997  32.5209999  56.8069992  12.7939997  32.4819984
  56.3440018  11.9160004  32.1969986  56.2760010  12.9750004  33.2449989
  44.6139984  22.7199993  24.6049995  45.4339981  23.1809998  24.9080009
  44.5970001  22.8880005  23.6469994  48.4000015  15.4370003  30.8880005
  48.4780006  14.5690002  30.4559994  49.4099998  15.6650000  30.8260002
  39.3349991   5.6110001  28.7520008  39.3660011   6.3750000  28.2000008
  38.4370003   5.2160001  28.5380001  49.3829994  13.8730001  14.7130003
  49.0699997  14.4829998  14.0349998  48.7200012  14.0769997  15.3900003
  59.2130013   4.6729999  23.4960003  58.4910011   4.3720002  22.9249992
  59.0489998   4.0009999  24.2299995  48.6730003  15.8129997  23.5489998
  48.0649986  16.2600002  22.9300003  49.3139992  15.4560003  22.8869991
  43.8190002  13.3690004  22.0550003  44.8030014  13.4480000  22.2819996
  43.5999985  12.6079998  22.6000004  50.3909988  10.1940002  39.5359993
  50.5349998   9.2410002  39.5849991  51.2980003  10.5129995  39.9290009
  49.0509987  10.2550001  32.3219986  49.6119995  10.3230000  31.5349998
  48.8199997  11.2550001  32.4609985  53.7379990  12.1479998  16.0730000
  53.1650009  11.7849998  15.3100004  53.0859985  12.8990002  16.2660007
  47.6180000  15.6149998   3.6080000  46.8800011  16.0419998   3.9920001
  47.3520012  15.6409998   2.6570001  61.5439987  13.3620005  23.0130005
  61.0620003  13.6339998  22.1620007  62.1049995  14.1490002  23.1060009
  55.0219994   9.9099998  30.3710003  55.4990005   9.3750000  29.6830006
  54.1300011   9.5640001  30.3169994  72.1989975  14.6210003  24.8029995
  71.7030029  14.5340004  23.9740009  73.0260010  14.1470003  24.5830002
  51.7739983  22.0790005  21.1819992  52.2620010  22.8980007  21.3180008
  50.8759995  22.4009991  20.9379997  63.6430016  14.9160004  15.8540001
  64.3789978  14.6239996  16.4470005  62.8580017  14.8369999  16.4379997
  55.5060005  10.5590000  32.8429985  55.4510002   9.9930000  32.0190010
  54.5260010  10.8160000  32.8839989  49.3540001  12.6890001  24.3330002
  49.7459984  13.1680002  23.5949993  49.3009987  11.7889996  23.8409996
  61.4830017  17.1019993  27.5310001  62.2649994  17.6989994  27.7439995
  61.5639992  16.4680004  28.2639999  50.1879997  13.9160004  21.9829998
  51.0769997  13.5369997  21.7500000  50.0060005  14.5570002  21.2700005
  30.9370003  77.0510025  17.3069992  30.8640003  76.5250015  16.4820004
  30.9610004  76.3290024  17.9599991  58.6959991   8.7469997  31.5230007
  58.1769981   7.9120002  31.3419991  59.1129990   8.8879995  30.6919994
  31.9360008  69.4049988  27.7789993  32.2490005  69.8809967  26.9829998
  31.3500004  68.7040024  27.3889999  64.6859970  16.3279991  13.7290001
  64.0289993  16.0809994  14.4080000  64.1429977  17.0599995  13.3030005
  66.8150024  15.8859997  15.2670002  66.5240021  16.6679993  15.7989998
  66.0589981  15.8870001  14.6199999  57.7060013  21.7000008  14.2259998
  58.4210014  21.3180008  14.7740002  56.9729996  21.6180000  14.7810001
  63.0060005   8.3730001  31.2859993  62.6839981   8.3100004  30.3950005
  63.5089989   9.2049999  31.2539997  69.5199966  13.5520000  32.3289986
  69.7740021  13.8999996  33.2210007  68.8610001  12.8430004  32.6279984
  67.7570038  16.0249996  22.2450008  67.7030029  15.2049999  21.7719994
  67.3109970  15.8249998  23.0289993  71.5889969  11.4219999  23.6630001
  71.6240005  11.8690004  24.5249996  72.4479980  10.9370003  23.7490005
  50.3199997  24.3129997  12.1289997  50.8380013  23.6630001  11.6389999
  49.3940010  24.0720005  12.0609999  54.0369987   8.5550003  35.0000000
  54.2690010   9.2250004  35.7029991  53.1259995   8.3230000  35.3089981
  35.3320007  79.6370010  23.7819996  35.1899986  80.3150024  24.4360008
  34.4599991  79.6729965  23.3339996  26.7560005  73.7860031  27.3950005
  27.1919994  74.3199997  28.1350002  26.4260006  74.5619965  26.8799992
   9.8750000  51.5340004  70.9169998   9.6890001  52.4770012  70.7170029
   9.2950001  51.0730019  70.3550034  18.4580002  43.4189987  75.4359970
  17.9160004  42.8199997  75.9810028  19.0839996  43.7630005  76.0429993
  67.6669998   7.7300000  33.1119995  67.2080002   7.0170002  33.6430016
  67.0220032   7.7579999  32.3520012  56.8499985   8.9600000  25.0279999
  57.5519981   8.4259996  24.6910000  56.7159996   8.6560001  25.9610004
  38.2220001  75.4690018  25.1679993  37.5559998  74.8410034  25.5440006
  37.5769997  76.2340012  24.9799995  75.8600006  14.2869997  25.5489998
  75.6819992  15.0909996  25.0330009  76.0059967  14.5909996  26.4519997
  59.0600014  14.6709995  28.9009991  58.1430016  14.8780003  28.8029995
  59.3230019  14.7270002  27.9379997  57.7000008   4.5400000  16.8579998
  58.6489983   4.2249999  16.8090000  57.3339996   3.6789999  17.2670002
  69.7350006  25.8299999  16.5000000  68.9010010  25.5249996  16.9799995
  69.6309967  26.7840004  16.7929993  57.5349998  20.2080002  20.5170002
  58.2879982  20.1130009  19.9090004  57.9669991  20.5000000  21.3379993
  38.9430008  18.2199993  28.6520004  39.6320000  18.7709999  29.1299992
  38.1590004  18.4069996  29.2010002  38.5270004   2.2869999  22.5349998
  39.2220001   1.6950001  22.3349991  38.7890015   3.0960000  22.0410004
  37.8510017  79.4219971  38.2869987  37.0219994  79.8089981  38.5890007
  38.0730019  78.8649979  39.1160011  45.5820007  11.0430002  34.4449997
  46.4729996  11.1219997  34.9319992  45.7299995  10.1379995  34.1290016
  65.8270035  30.8990002  24.4400005  65.3499985  30.7940006  23.6000004
  65.7870026  30.0259991  24.7919998  65.5130005  34.9690018  19.4619999
  64.7220001  35.3370018  19.8560009  65.3679962  34.0289993  19.4419994
  66.5400009  37.7999992  30.0349998  66.9919968  38.3530006  30.7229996
  67.2289963  37.1949997  29.7999992  63.8219986  42.8079987  13.2100000
  64.2500000  43.4140015  13.8990002  63.9360008  41.9970016  13.7139997
  65.0299988  32.2130013  19.3460007  64.9830017  32.1139984  20.3050003
  64.0979996  32.2029991  19.1130009  71.7779999  25.3840008  23.0109997
  71.3440018  24.6389999  23.4489994  72.6640015  25.3680000  23.4099998
  64.1719971  48.6809998  14.0000000  63.2630005  48.7010002  13.5839996
  64.6610031  49.2420006  13.3070002  69.6800003  28.5599995  23.0680008
  70.3489990  28.8379993  23.7420006  69.1979980  27.8579998  23.5860004
  60.4710007  34.4580002  17.1809998  60.3240013  35.3310013  16.8129997
  59.5320015  34.2529984  17.5680008  63.2140007  28.8430004  17.6870003
  62.5250015  29.0030003  16.9720001  62.6689987  29.1770000  18.4160004
  72.0780029  24.7310009  30.3600006  71.9110031  23.8640003  30.7119999
  71.2419968  24.9659996  30.0000000  52.4510002  31.6299992  17.9729996
  52.8569984  31.8500004  17.0960007  53.1850014  31.2749996  18.4330006
  71.7779999  38.6940002  31.1399994  72.4960022  38.0589981  31.5119991
  71.2170029  38.6559982  31.9659996  74.0009995  19.4909992  16.9619999
  73.5960007  18.6650009  16.6140003  73.4589996  20.1359997  16.4260006
  61.0830002  32.1609993  16.0440006  60.8030014  33.0470009  16.4209995
  60.4860001  32.2179985  15.1980000   0.0720000  32.4620018  18.6459999
  -0.8670000  32.6500015  18.6830006   0.2350000  32.4519997  17.6919994
  71.5100021  32.4529991  15.3310003  72.1050034  32.0989990  14.6520004
  70.7389984  31.8680000  15.2810001  73.3190002  40.2159996  34.1389999
  73.1640015  39.2999992  33.7540016  73.9240036  40.5079994  33.3540001
   0.3880000  35.0139999  28.7310009   0.2150000  34.1440010  29.0660000
  -0.5490000  35.2809982  28.5480003  72.3170013  32.9360008  34.9589996
  72.8259964  32.1430016  34.5880013  71.4420013  32.4920006  35.0229988
  76.1959991  23.8700008  22.8309994  75.5080032  24.1529999  22.1580009
  76.9690018  23.9300003  22.2940006  66.2200012  39.1180000  14.9540005
  67.0029984  39.1539993  14.3500004  65.6679993  38.5229988  14.4670000
  71.7539978  26.5750008  20.7390003  71.7350006  26.1119995  21.6660004
  71.0100021  27.1830006  20.8509998  76.0739975  22.3369999  46.2999992
  75.7819977  21.3840008  46.2000008  77.0380020  22.1299992  46.0880013
  73.6849976  21.7420006  19.1650009  73.8580017  21.3710003  20.0769997
  73.7409973  20.8500004  18.7150002  62.6329994  37.4679985  21.9109993
  62.6599998  37.2579994  22.8810005  63.5699997  37.6549988  21.7789993
  72.1740036  44.8400002  32.2410011  71.4570007  44.3330002  32.7140007
  72.5729980  45.3190002  32.9749985  66.5279999  15.2100000  19.4699993
  67.0859985  14.4350004  19.8199997  66.2170029  14.7840004  18.6469994
  69.4150009  27.1480007   9.7690001  69.9380035  27.9740009   9.6730003
  68.5839996  27.4769993  10.0979996  74.7350006  29.7700005  18.4799995
  75.4899979  29.1000004  18.4389992  74.3499985  29.6119995  17.5930004
  67.5370026  42.1539993  25.6709995  66.7099991  42.4739990  26.0909996
  67.2350006  41.4150009  25.1130009  67.9300003  34.9609985  20.4340000
  67.0879974  35.2859993  20.0489998  67.5110016  34.4210014  21.1790009
  67.1200027  32.9860001  25.0130005  66.5500031  32.1829987  24.9340000
  67.3769989  33.1699982  24.0879993  70.9860001  20.7500000  13.1639996
  70.7539978  21.4699993  12.6260004  70.5319977  19.9880009  12.7170000
  70.0490036  32.5449982  25.2500000  69.0989990  32.6990013  25.4969997
  70.0490036  33.0419998  24.4190006  79.4899979  35.2290001  25.7019997
  78.6480026  35.6300011  25.6009998  79.9430008  35.8610001  26.2740002
  75.4649963  26.4869995  16.4200001  74.9520035  27.2719994  16.7700005
  74.8219986  25.7619991  16.3999996  66.4110031  33.2120018  22.3110008
  67.1129990  32.5789986  22.1490002  65.6869965  32.6520004  22.5809994
   2.0460000  27.6639996  30.7000008   2.8269999  28.0660000  30.3290005
   1.7800000  28.2560005  31.3880005  72.2819977  25.3479996  39.9129982
  72.1070023  26.2369995  40.3120003  71.4069977  25.0970001  39.5610008
  66.5559998  36.0089989  22.8309994  66.4710007  35.0460014  23.0200005
  67.2750015  36.0610008  22.2000008  70.2799988  40.7599983  15.9049997
  69.9010010  40.1259995  15.2340002  70.2300034  40.1920013  16.7000008
  52.1529999  35.7999992  15.7910004  52.7400017  36.2150002  15.1049995
  52.9020004  35.2620010  16.2350006  60.4889984  39.6889992  25.4629993
  61.3079987  39.4510002  25.9549999  60.6959991  40.6380005  25.3069992
  70.8840027  29.3509998  15.7139997  70.2470016  28.9680004  16.3110008
  70.5009995  29.1900005  14.7980003  68.1510010  36.1450005  28.4389992
  68.0429993  35.2220001  28.0209999  67.9229965  36.6910019  27.6089993
  69.6190033  36.8429985  32.5639992  68.7880020  36.4280014  32.7630005
  69.4710007  37.8419991  32.5929985  76.8470001  40.9319992  28.3929996
  77.5159988  41.4589996  28.8309994  76.0960007  41.4749985  28.2089996
  57.5559998  44.0180016  13.9130001  58.4580002  43.6969986  13.7419996
  57.5120010  44.5940018  13.0740004  59.9910011  37.0169983  24.2849998
  59.9049988  37.3100014  25.2210007  61.0000000  36.8769989  24.2549992
  65.0690002  27.3859997   7.0869999  65.7949982  27.8260002   6.6149998
  64.6600037  26.9050007   6.3369999  72.6650009  38.8359985  37.5099983
  73.3779984  38.3170013  37.9770012  71.8700027  38.2999992  37.8419991
  58.1969986  28.2520008  14.4099998  58.9350014  28.2539997  13.7550001
  57.4679985  28.1189995  13.7760000  55.5540009  22.6730003  19.7779999
  55.5079994  23.2740002  19.0230007  56.4399986  22.7749996  20.1240005
  70.8239975  36.8510017  29.2530003  69.9309998  36.6010017  29.0709991
  70.5680008  37.8149986  29.5259991  63.9500008  37.9589996  29.9790001
  64.9400024  37.8510017  29.8409996  63.7610016  37.0579987  30.3910007
  59.9620018  45.9949989  17.2240009  59.7290001  45.2649994  16.6359997
  60.5670013  45.5279999  17.8400002  68.6529999  30.9890003  22.4290009
  69.4100037  31.5370007  22.0359993  69.2220001  30.2600002  22.7910004
  77.2389984  38.4819984  36.4930000  77.2900009  39.1910019  37.1769981
  77.0120010  39.0060005  35.7400017  77.1259995  38.2809982  22.8050003
  77.9029999  38.6180000  23.2849998  77.4120026  38.0979996  21.9200001
  70.5260010  33.2290001  22.4750004  70.8740005  34.0209999  22.0209999
  70.8929977  32.5229988  21.8799992  71.0419998  27.9650002  25.5170002
  71.6999969  27.4729996  26.0839996  71.2330017  28.8889999  25.8309994
  67.8939972  30.8110008  27.4169998  66.9530029  30.7390003  27.4379997
  68.0709991  30.3160000  26.5879993  73.0729980  60.5349998  22.3419991
  73.3259964  60.3040009  21.4230003  73.1589966  59.6220016  22.7329998
  60.5349998  32.0079994  21.9850006  59.8790016  32.4379997  21.3740005
  61.0719986  32.8320007  22.2040005  68.9960022  44.3549995  24.1860008
  68.1660004  44.7410011  23.9319992  68.7669983  43.4059982  24.4270000
  69.6399994  40.5480003  45.8699989  69.4660034  40.2869987  44.9189987
  69.3769989  41.4889984  45.8460007  70.4079971  39.0480003  24.7910004
  70.4800034  38.2330017  24.2660007  69.6579971  38.7309990  25.4060001
   9.9080000  33.2360001  23.3279991   9.6219997  33.5909996  22.4529991
   9.0590000  32.8349991  23.6609993  73.5729980  37.7280006  32.9189987
  72.9589996  37.0309982  33.1529999  74.4479980  37.3829994  33.2179985
  79.2480011  38.8930016  30.3029995  80.0490036  38.8650017  30.9239998
  78.6750031  38.2529984  30.8330002  21.6889992  53.9480019  81.7990036
  21.2070007  53.1030006  81.8690033  21.3379993  54.2589989  80.9150009
  71.7490005  37.6180000  16.0170002  71.6480026  37.2430000  16.8959999
  71.6169968  36.9339981  15.4189997   9.4519997  27.3299999  19.1410007
   9.6099997  27.0750008  18.2189999   9.2360001  28.2369995  19.0760002
   1.6320000  37.4140015  15.6780005   1.0850000  36.7859993  15.1669998
   2.0699999  37.8909988  14.9250002  75.8229980  39.9720001  15.6639996
  74.7939987  39.7319984  15.5799999  75.7829971  40.1580009  16.5879993
  68.1019974  49.9410019  26.9659996  68.5299988  50.6349983  26.4300003
  67.3000031  49.7970009  26.4570007  52.5029984  36.9480019  30.0319996
  52.8009987  37.0299988  29.0839996  51.7929993  37.6479988  30.0249996
  69.4830017  41.4290009  43.1660004  69.2679977  40.9720001  42.3590012
  68.8889999  42.2519989  43.0660019  70.5199966  36.7369995  23.5599995
  71.1350021  36.0219994  23.2150002  70.1019974  37.0820007  22.7390003
  61.4659996  41.6300011  20.9519997  62.3120003  41.2029991  20.9489994
  61.4990005  42.2019997  21.7570000  73.5770035  17.0559998  48.9269981
  73.4869995  16.8360004  47.9850006  74.1029968  16.3250008  49.2420006
  77.6500015  24.1520004  31.6650009  77.1480026  24.8460007  32.1520004
  76.8789978  23.5389996  31.5060005  69.5299988  25.4360008  29.6009998
  68.9830017  25.4549999  28.7800007  69.5149994  24.5060005  29.7910004
  74.3619995  37.3279991  22.2689991  74.0479965  37.7970009  21.4699993
  75.2480011  37.6459999  22.3649998  68.5869980  22.6560001  19.1860008
  67.9929962  22.1130009  18.6180000  69.2509995  21.9720001  19.4190006
  62.5159988  25.8579998  15.9519997  63.0499992  26.5869999  15.5909996
  61.7280006  26.3220005  16.2689991  72.9619980  26.8479996  27.4960003
  72.8190002  27.1399994  28.4389992  72.5350037  25.9430008  27.6159992
  71.2890015  11.3050003  27.0119991  71.3160019  10.5290003  27.6100006
  71.9309998  11.9010000  27.4340000  26.2350006  61.5070000  79.9759979
  25.4279995  61.9269981  79.5429993  25.7759991  60.6360016  80.1880035
  73.5569992  35.8330002  13.8909998  74.2279968  35.1790009  14.1459999
  74.0810013  36.6710014  13.8940001  78.5360031  30.8269997  23.8160000
  79.3290024  30.7029991  24.3430004  77.9390030  31.3419991  24.3789997
  67.9069977  32.9490013  16.4729996  67.5159988  33.7809982  16.1060009
  67.7529984  33.2169991  17.4330006  77.9410019  32.3219986  34.5890007
  78.1539993  32.1940002  33.6399994  78.5380020  31.6410007  34.9840012
  30.2590008  58.8300018  79.2109985  30.4899998  59.1829987  78.3379974
  30.1089993  59.6030006  79.7470016  70.8040009  31.4200001  20.5650005
  70.6439972  31.6930008  19.6140003  71.5230026  30.7590008  20.3929996
  55.1699982  24.7570000  17.9799995  56.1240005  24.6669998  17.7749996
  54.9469986  25.6809998  17.7110004  64.3939972  17.7719994  21.1989994
  63.7470016  17.0400009  21.2490005  65.1529999  17.2989998  20.8230000
  61.8670006  14.0889997  13.4709997  61.6209984  15.0120001  13.2510004
  62.2989998  14.2060003  14.3490000  73.6220016  41.2130013  26.5049992
  74.2460022  41.8339996  27.0030003  73.1890030  40.8209991  27.2929993
  67.1529999  25.1340008  17.5629997  66.8030014  24.7210007  16.7450008
  66.6999969  26.0259991  17.4500008  74.8150024  41.6090012  21.0680008
  73.8440018  41.5120010  21.1669998  75.0719986  41.2529984  21.9519997
  48.6300011  79.8290024  25.9169998  49.5690002  79.6669998  25.7070007
  48.2550011  79.9639969  25.0160007   5.2309999  23.8610001  32.1980019
   5.1510000  23.5450001  31.2840004   4.3779998  24.3220005  32.3180008
  69.6839981  37.0579987  20.9740009  69.9059982  37.4970016  20.1040001
  68.9670029  36.4650002  20.6539993  74.7679977  37.3759995  16.7530003
  74.8300018  37.3230019  15.7629995  73.7910004  37.3120003  16.7929993
   1.4470000  54.5060005  20.7900009   1.1100000  54.3390007  21.6910000
   0.7370000  53.9790001  20.2970009  62.5890007  35.2420006  20.2959995
  62.0349998  34.8810005  21.0049992  62.6380005  36.1780014  20.5949993
  73.8539963  13.3750000  23.1480007  74.7070007  13.5769997  22.7570000
  73.8369980  12.3999996  23.0470009  69.3750000  43.0519981  20.3080006
  70.0360031  42.3230019  20.3579998  69.8659973  43.7999992  20.7490005
  71.5260010  41.9729996  12.8970003  70.5319977  41.9770012  12.9139996
  71.6320038  42.3800011  13.7939997  67.1750031  21.2520008  12.5559998
  66.2990036  21.6499996  12.5509996  67.7070007  21.8700008  12.0430002
  67.6370010  22.1849995  15.1820002  67.6070023  21.6910000  14.3549995
  67.1279984  22.9960003  14.9119997  75.6090012  46.5410004  34.3870010
  75.6510010  46.5690002  35.3759995  74.6269989  46.6339989  34.3019981
  70.7949982  14.6899996  22.3820000  69.8300018  14.5769997  22.2420006
  70.9309998  15.5000000  21.8449993   5.4910002  53.1660004  17.7220001
   5.3520002  52.5509987  17.0130005   4.8779998  53.9020004  17.3349991
  72.0619965  35.4189987  33.7169991  72.0490036  34.5180016  34.0470009
  71.0820007  35.5209999  33.5509987  26.4370003  -6.8880000  32.2159996
  26.6679993  -7.5000000  32.9659996  25.5209999  -6.6989999  32.3810005
   8.3039999  46.4150009  31.9640007   7.8400002  46.4269981  32.8610001
   7.5850000  46.9720001  31.4680004  58.6329994  55.5929985  18.7819996
  58.8320007  56.1590004  18.0410004  57.9140015  56.0940018  19.2240009
  50.7299995  17.2080002  76.5899963  51.3190002  16.5160007  76.8799973
  51.1660004  17.6749992  75.8840027  42.2140007  32.1879997  85.0950012
  42.2010002  33.0929985  84.7620010  41.5229988  32.2750015  85.8059998
  66.5859985  53.2319984  28.8199997  66.3629990  53.4939995  29.7530003
  67.3529968  52.6549988  28.9249992  58.9420013  54.2299995  14.4209995
  58.9039993  54.0289993  13.4490004  58.1829987  54.7739983  14.5690002
  68.2839966  49.6240005  13.1379995  68.1610031  48.7750015  13.6190004
  68.9479980  50.0429993  13.7130003  76.7269974  40.8759995  34.3849983
  76.0849991  40.7669983  33.6580009  76.6100006  41.8479996  34.5559998
  52.6300011  15.4160004  77.7269974  52.4290009  14.4940004  78.0009995
  53.2690010  15.6569996  78.4120026  61.1910019  54.9080009  20.9500008
  61.9319992  55.4070015  21.3290005  60.4449997  55.4199982  21.3360004
   4.7600002  47.4099998  27.0699997   4.1180000  48.1310005  26.9099998
   5.5630002  47.7770004  26.6270008   1.4620000  35.7779999  23.5540009
   0.6600000  35.3979988  23.9710007   1.8480000  35.0029984  23.1049995
   6.4889998  41.5810013  26.3069992   6.5489998  41.7560005  27.2649994
   5.5180001  41.4990005  26.2049999  67.8259964  33.6769981  27.4589996
  67.5049973  33.4430008  26.5769997  68.1880035  32.7509995  27.6840000
   3.8250000  38.6110001  20.8920002   3.9549999  37.8779984  21.5170002
   3.4579999  39.3079987  21.4190006   1.7120000  40.2620010  28.0340004
   0.9690000  39.7750015  27.6420002   1.4809999  40.2169991  29.0139999
  79.0479965  50.0559998  13.5270004  78.7559967  49.8639984  12.6470003
  79.5449982  49.2290001  13.7229996  75.2509995  32.1780014  28.3740005
  75.0110016  31.7169991  27.4510002  75.1940002  33.0929985  27.9510002
   0.5700000  30.4729996  35.8940010   0.8230000  30.4260006  36.8170013
   1.0810000  31.3029995  35.6870003   5.8210001  51.6059990  29.5319996
   6.6129999  51.3580017  29.0569992   5.8429999  52.5299988  29.7019997
  76.6940002  40.8499985  38.2350006  76.0510025  40.8580017  37.5159988
  76.1460037  40.6119995  38.9780006   3.3889999  43.3349991  32.3180008
   3.9660001  43.1739998  33.1389999   2.5280001  43.3269997  32.7779999
  74.8649979  41.0810013  32.2099991  74.8960037  42.0289993  31.9979992
  74.8769989  40.7299995  31.2609997  76.5500031  43.6040001  31.3479996
  76.8330002  42.7099991  31.1189995  77.1780014  44.1329994  30.7609997
   8.3590002  51.8120003  28.3479996   8.8920002  51.9519997  27.5370007
   8.5900002  52.6819992  28.7840004  72.3170013  50.8829994  23.8980007
  72.3339996  49.9269981  23.6520004  73.2750015  51.1409988  23.9200001
  72.5660019  48.4749985  22.6149998  71.7389984  48.2220001  22.2250004
  72.9369965  47.6710014  22.9680004  73.5439987  43.6300011  43.1990013
  72.8199997  43.1500015  43.6899986  74.0370026  43.9860001  43.9480019
   0.5230000  42.7519989  33.5180016   0.6060000  43.7599983  33.6139984
   0.2840000  42.5800018  34.4650002   2.0620000  46.8370018  25.0680008
   2.4820001  46.4140015  24.2719994   2.4080000  47.7430000  24.9029999
  79.1149979  49.9070015  35.3199997  78.1900024  50.1230011  35.6809998
  79.4599991  50.8040009  35.2239990  65.3949966  49.9239998  43.2010002
  65.6640015  50.8689995  43.0239983  65.5699997  49.5489998  42.2779999
  72.2389984  54.5999985  19.2630005  71.4889984  54.9700012  19.7679996
  72.8980026  55.2070007  19.4099998  72.4810028  42.7039986  21.9090004
  71.7639999  42.0750008  22.1149998  72.7389984  43.0110016  22.8390007
  75.2870026  34.5830002  27.3470001  74.5169983  34.9630013  27.8899994
  74.8330002  34.6990013  26.4480000  77.6920013  51.9000015  21.1599998
  77.5820007  51.1440010  21.8199997  78.7259979  51.7789993  21.1130009
   2.8050001  44.0289993  37.5219994   1.9130000  44.1940002  37.1349983
   2.9660001  44.8470001  37.9720001  75.0729980  54.7060013  38.9339981
  75.6470032  53.9169998  39.0040016  75.1009979  54.8330002  37.9710007
  77.5309982  61.6290016  30.1250000  76.9329987  61.4249992  30.8560009
  78.3679962  61.7340012  30.6369991  68.1839981  56.5519981  19.3680000
  68.9390030  56.0550003  19.7900009  67.8759995  57.1119995  20.0970001
  72.5250015  54.2729988  40.2140007  73.3830032  54.1730003  39.7280006
  72.8339996  54.1969986  41.1279984  77.8479996  31.9099998  28.2329998
  76.9619980  31.9069996  28.5970001  78.4029999  31.3869991  28.8010006
  66.7440033  45.9739990  24.0149994  66.0360031  46.3429985  24.5890007
  67.4929962  46.5569992  24.3880005  72.2720032  39.7050018  10.0050001
  72.2429962  39.9389992  10.9379997  71.3150024  39.6399994   9.7889996
   5.8309999  32.2470016  20.3889999   6.1050000  31.5090008  21.0300007
   5.2249999  31.7970009  19.8490009  79.0110016  45.6679993  25.5690002
  79.8470001  46.1329994  25.5049992  79.1539993  45.0629997  24.7910004
  79.4670029  38.0009995  27.7579994  78.6640015  37.4269981  27.7099991
  79.4449997  38.1520004  28.7619991   4.9169998  45.2179985  25.0020008
   4.4840002  45.9189987  25.5170002   5.6040001  44.9440002  25.5750008
  74.4690018  58.2350006  17.6989994  73.5360031  58.4440002  17.8059998
  74.3089981  57.1879997  17.5990009  70.2300034  51.6380005  14.0550003
  70.7450027  52.3260002  14.4180002  69.6589966  51.3610001  14.8199997
   3.6159999  45.9230003  22.5090008   4.3950000  46.5419998  22.3309994
   4.0939999  45.3569984  23.1930008  75.1460037  33.8359985  14.3820000
  74.5500031  33.4189987  13.7370005  75.0940018  33.1349983  15.0920000
  51.2480011   3.8510001  69.9690018  50.4560013   4.0310001  69.4059982
  51.8849983   4.5029998  69.6139984  67.7050018  67.2269974  18.6940002
  66.9229965  67.7659988  18.9559994  68.4000015  67.8649979  18.6439991
  71.0309982  44.7980003  12.5000000  70.8960037  43.8349991  12.4309998
  71.8960037  44.7540016  13.0059996   8.8879995  50.2760010  12.4589996
   7.9829998  50.1899986  12.2100000   8.9029999  51.0839996  12.9930000
  77.1650009  47.4319992  13.9519997  78.1579971  47.1959991  13.9200001
  77.2570038  47.9550018  14.8090000  70.4290009  57.1329994  22.8600006
  70.0749969  57.8190002  22.2999992  71.3079987  57.5229988  23.1320000
  66.3840027  37.8720016  26.6720009  65.4929962  37.7579994  26.2649994
  66.1940002  38.0849991  27.5690002   3.4909999  53.2970009  23.2700005
   3.1350000  54.1819992  23.4810009   3.8820000  52.9710007  24.0799999
  -0.0230000  47.2519989  22.0289993   0.8500000  47.2789993  21.5240002
   0.0600000  46.3129997  22.3820000  68.8430023  66.1839981  31.0860004
  68.0090027  66.6689987  31.2689991  69.2809982  66.7669983  30.4179993
  73.3359985  38.8950005  25.1320000  72.3590012  38.8359985  25.0849991
  73.4509964  39.5449982  25.8659992  63.0519981  35.4830017  16.7919998
  63.1320000  34.9570007  15.9659996  62.4529991  34.8740005  17.3199997
  75.6549988  56.3359985  32.6759987  74.7839966  56.0859985  33.1119995
  75.7829971  57.2150002  33.0620003   0.3520000  46.7260017  31.5300007
   0.2240000  46.2599983  32.3670006  -0.4100000  47.3740005  31.5580006
   5.2049999  43.2350006  22.7530003   5.0390000  43.4900017  23.6450005
   6.1040001  42.9150009  22.7889996  75.8779984  45.2060013  17.5550003
  76.7020035  44.7919998  17.8570004  75.3010025  44.3779984  17.5370007
  66.3059998  39.3549995  18.0529995  65.9420013  38.5270004  18.3010006
  66.0619965  39.4410019  17.1100006   2.0580001  47.2579994  34.8160019
   1.8620000  47.5670013  35.7039986   2.9210000  47.6780014  34.6170006
  72.8369980  46.6669998  34.4000015  72.1230011  46.8079987  35.0120010
  72.6620026  47.3540001  33.7099991   8.1070004  50.9599991  19.7299995
   9.0039997  50.5349998  19.6149998   7.6190000  50.2420006  19.2269993
  55.0789986  19.3129997  78.7659988  55.4179993  19.9209995  79.4359970
  54.7229996  18.5690002  79.3310013   1.8600000  51.4000015  30.3770008
   1.7460001  50.4949989  29.9599991   1.7280000  51.1590004  31.3360004
   1.8260000  46.4749985  27.8409996   2.0490000  46.7879982  26.9330006
   1.4480000  45.5989990  27.6930008  71.2060013  50.8899994  26.5359993
  71.4410019  50.6899986  25.6170006  71.0999985  49.9309998  26.8020000
  76.1689987  34.0079994  35.6679993  76.7799988  34.5349998  36.2140007
  76.8140030  33.4980011  35.0919991  72.5380020  65.2689972  23.5219994
  73.0589981  64.4609985  23.4130001  72.2279968  65.1989975  24.4309998
  70.4420013  34.6269989  19.1429996  70.5719986  33.8079987  18.5709991
  69.6740036  34.3699989  19.6359997  62.1510010  43.9080009  29.9570007
  61.6640015  44.7239990  30.2059994  61.5900002  43.5979996  29.2250004
  72.4430008  36.2490005  43.4160004  72.0699997  35.5940018  42.7560005
  73.3659973  35.9609985  43.4090004   9.2329998  62.6930008  28.1910000
  10.0179996  62.2900009  28.5699997   9.5150003  63.5789986  27.9260006
  78.1429977  44.1590004  18.4389992  78.9449997  43.5870018  18.2010002
  77.6539993  43.4220009  18.9139996  72.0660019  45.3950005  27.0270004
  71.3580017  45.4319992  26.3570004  71.7160034  44.7120018  27.6450005
   3.8169999  62.4550018  28.7409992   4.1999998  62.9039993  27.9880009
   2.8510001  62.7410011  28.5820007   7.2570000  58.4529991  24.1940002
   6.4819999  58.9529991  24.1270008   7.9130001  59.1990013  24.4069996
   4.7420001  34.5690002  23.8190002   5.6230001  34.3750000  24.2229996
   4.1989999  34.7270012  24.5939999   1.8180000  50.1100006  26.7789993
   2.6810000  50.5200005  26.7430000   1.6450000  50.0029984  27.7019997
  77.0810013  58.1170006  18.5949993  76.3290024  58.0730019  18.0459995
  77.0410004  59.0779991  18.9179993  79.4309998  52.6749992  29.2169991
  80.0879974  52.2270012  29.8360004  79.6320038  53.6469994  29.4459991
  78.6579971  47.2490005  35.4290009  79.0640030  48.1329994  35.2630005
  77.7350006  47.4930000  35.1949997  69.1539993  45.4760017  30.9549999
  69.4319992  45.5070000  31.9120007  68.9219971  44.5180016  30.8980007
  48.1409988  27.0650005  77.3750000  47.8300018  26.6320000  78.2350006
  48.2999992  26.2280006  76.9089966  78.9169998  40.1720009  23.7339993
  78.6449966  40.0460014  24.6959991  78.5039978  41.0070000  23.5540009
  52.7060013  26.8139992  85.8750000  52.9249992  27.0629997  86.7890015
  51.8300018  27.2870007  85.7539978  72.8710022  39.8349991  28.8840008
  73.7129974  39.7050018  29.2970009  72.2610016  39.2869987  29.4850006
   0.4340000  35.7809982  34.4900017   1.1150000  35.1349983  34.8009987
   0.2860000  35.3919983  33.5839996  64.9869995  42.1570015  26.9179993
  64.7610016  41.5610008  27.7049999  64.1019974  42.5940018  26.8530006
  76.9860001  60.0209999  22.5550003  77.3740005  59.1069984  22.4020004
  76.2220001  59.9519997  21.9340000   0.5790000  35.8639984  31.6660004
  -0.2680000  36.3180008  31.7660007   0.6780000  35.7210007  30.6879997
  67.3990021  42.1430016  38.5060005  67.1230011  41.7340012  39.3680000
  67.9580002  41.3959999  38.1910019  74.6709976  47.6139984  17.8729992
  74.7399979  48.0750008  18.6940002  75.1529999  46.7999992  17.9669991
  77.1350021  60.6800003  19.2980003  78.1129990  60.8740005  19.4290009
  76.7949982  61.6180000  19.3050003   6.0289998  38.1419983  29.2530003
   5.8130002  37.5569992  30.0060005   5.1980000  38.2229996  28.8150005
   4.2210002  31.2970009  25.4029999   5.1640000  31.3460007  25.4689999
   3.8789999  32.0340004  25.8910007  67.8949966  22.3190002  33.0400009
  67.9960022  21.7129993  33.7949982  66.9660034  22.6970005  33.1809998
  75.1389999  40.7400017  23.5930004  74.3239975  40.8800011  24.1870003
  75.3820038  39.8110008  23.9599991  67.5680008  42.2840004   8.0489998
  68.0920029  43.0419998   7.7880001  67.2509995  42.5950012   8.9340000
  70.5049973  40.9710007  22.8969994  69.6149979  40.9129982  22.5259991
  70.5439987  40.4879990  23.6849995  75.3310013  39.5299988  29.9200001
  75.7109985  38.6290016  30.1070004  76.1060028  39.8120003  29.3190002
   2.4270000  37.1040001  25.5869999   2.3729999  37.9539986  25.1790009
   2.2420001  36.5070000  24.8139992  72.6610031  47.7779999  31.5680008
  72.9800034  48.1809998  30.7609997  72.9309998  46.8730011  31.5009995
  77.8730011  39.7379990  26.2119999  77.4800034  40.2700005  26.9810009
  78.4560013  39.1399994  26.7329998   7.5510001  40.2939987  19.9790001
   6.9600000  39.5989990  20.2210007   7.4140000  40.9939995  20.7110004
   0.4530000  45.3250008  33.8050003   0.9860000  46.0349998  34.1689987
  -0.4570000  45.5890007  34.0769997  70.0999985  60.9370003  25.7479992
  69.1869965  60.6679993  25.7469997  70.1259995  61.2260017  24.7689991
  76.6520004  53.4329987  24.9570007  76.2590027  53.4970016  25.8710003
  76.6289978  52.5299988  24.7630005  65.9950027  68.4459991  20.9279995
  65.4680023  67.7210007  20.5130005  66.2389984  68.0159988  21.7660007
  70.9459991  46.4640007  14.8800001  70.5559998  45.6829987  14.5539999
  70.3349991  47.1629982  14.7519999   3.2309999  51.9370003  13.5190001
   2.4519999  51.8530006  14.0959997   2.8210001  51.7000008  12.6210003
  71.0339966  43.7659988  29.2169991  70.3399963  43.2879982  28.7019997
  70.5940018  44.4959984  29.7099991  48.5769997  19.2180004  74.9639969
  48.5760002  18.7430000  74.1760025  49.4710007  19.5599995  75.0839996
  77.6569977  37.4519997  31.7409992  77.3150024  37.5149994  32.6580009
  76.7969971  37.1780014  31.3260002  68.1139984  52.9049988  12.4770002
  68.5930023  52.2000008  12.9630003  67.8330002  53.4370003  13.2570000
   5.3569999  36.4329987  31.8719997   4.4200001  36.4609985  32.1759987
   5.6859999  37.3829994  32.1049995   8.2349997  39.7400017  29.6760006
   7.8150001  40.4469986  30.2929993   7.3709998  39.2470016  29.4979992
   5.9140000  18.8549995  24.7469997   5.4710002  18.7059994  23.8549995
   6.4380002  17.9909992  24.7689991  52.7859993   8.9020004  72.2149963
  52.9290009   8.8050003  73.1819992  51.7379990   9.0070000  72.2710037
   5.4200001  48.0000000  22.2339993   5.5780001  48.7649994  22.7929993
   5.2290001  48.3250008  21.3589993  68.9189987  40.2169991  37.3549995
  69.2399979  39.7140007  36.5909996  68.7669983  39.4990005  38.0029984
  75.9000015  39.2949982  18.6089993  75.0979996  39.2680016  19.1949997
  75.5739975  38.6240005  17.9519997  76.2990036  49.5019989  36.5499992
  76.9380035  49.9589996  37.1399994  76.3629990  48.5859985  36.7939987
  76.9469986  36.2239990  24.5170002  76.9589996  37.0139999  23.9689999
  76.1470032  36.3600006  25.0130005  72.6689987  43.2579994  24.7709999
  73.4749985  43.6489983  25.0489998  72.5830002  42.4500008  25.2970009
   1.6240000  42.4090004  24.1480007   2.2670000  41.6419983  24.2000008
   1.2730000  42.1930008  23.2479992   3.3169999  45.9869995  31.2070007
   3.2950001  45.0379982  31.4939995   2.4600000  46.2709999  31.6420002
  69.5120010  38.9480019  13.9840002  68.8679962  39.2159996  13.3090000
  70.3079987  38.7820015  13.4680004  74.1419983  45.7070007  21.6739998
  75.0530014  46.0859985  21.5790005  74.0780029  45.6259995  22.6860008
   0.7310000  49.2179985  42.0110016  -0.0460000  48.6479988  41.8320007
   0.8610000  49.0340004  43.0019989  66.2519989  53.2649994  31.6310005
  65.4140015  53.1269989  32.0449982  66.3669968  54.2010002  31.7509995
  59.3149986  44.6839981  30.6200008  59.9449997  45.4589996  30.7240009
  58.4920006  45.1090012  30.8129997  74.6979980  51.3470001  33.0209999
  75.0159988  52.2639999  33.1459999  74.3639984  51.1170006  33.9300003
  67.3130035  59.9210014  34.7410011  67.0930023  60.4990005  33.9449997
  67.0579987  59.0530014  34.3450012  65.5250015  53.2989998  37.0180016
  64.9479980  54.0950012  37.0169983  66.1699982  53.5779991  36.3429985
  64.9209976  42.0130005  30.9750004  64.3820038  42.3180008  31.7970009
  65.5670013  41.4790001  31.4960003   7.6329999  60.3470001  45.3660011
   7.7170000  59.5960007  44.7360001   6.7570000  60.6870003  45.1320000
  70.2770004  47.6510010  21.2859993  70.6859970  46.7690010  21.5100002
  69.3799973  47.5509987  21.5879993  68.1389999  53.5470009  22.1399994
  67.4010010  54.0760002  22.5240002  67.6539993  53.1889992  21.3799992
  49.8969994  25.7630005  84.3880005  50.1189995  26.5830002  83.8170013
  49.3689995  26.2240009  85.0849991  74.0729980  18.8010006  27.7310009
  73.3109970  18.2159996  27.9740009  74.6979980  18.0680008  27.4769993
  75.1269989  32.2659988  32.1759987  74.9039993  33.2410011  32.0120010
  74.7210007  32.1660004  33.0449982  74.4329987  55.8699989  20.0979996
  74.8209991  55.0589981  20.4880009  74.6320038  56.5460014  20.7250004
   3.1819999  53.5660019  29.2250004   2.6350000  52.8380013  29.5279999
   2.7349999  53.7770004  28.3409996   4.4920001  57.6240005  34.9469986
   5.4010000  57.6259995  34.5830002   4.1339998  56.8810005  34.4360008
  69.2109985  64.0729980  24.7269993  68.3629990  64.3359985  25.1669998
  69.3089981  64.8919983  24.1910000   8.9099998  58.0050011  29.8220005
   7.9580002  57.8699989  30.1200008   8.8199997  58.1959991  28.8820000
   1.2380000  60.3230019  22.4920006   1.6980000  59.4430008  22.3740005
   1.9990000  60.8660011  22.7189999   0.6780000  56.7420006  35.9589996
   0.9210000  57.6619987  35.8989983  -0.2000000  56.7809982  35.4869995
  24.5890007   0.2450000  37.9939995  23.7169991   0.6770000  37.7719994
  24.3470001  -0.3040000  38.7249985  54.3909988  32.3839989  84.6399994
  55.2159996  32.3639984  84.0540009  54.4990005  31.3990002  84.9100037
   6.2519999  43.1710014  29.2290001   6.7810001  44.0190010  29.3740005
   5.5650001  43.5870018  28.6700001  40.3730011  25.4850006  73.5889969
  40.3559990  24.8759995  74.3929977  39.4160004  25.4160004  73.3919983
  65.8209991  68.8740005  33.5000000  65.4240036  69.7129974  33.2630005
  66.3980026  69.1110001  34.2610016  74.2829971  56.5859985  24.8670006
  73.7279968  55.9150009  24.4909992  74.3239975  56.2360001  25.7700005
  53.6969986  33.3680000  68.6760025  53.5299988  32.4589996  69.0390015
  53.1629982  33.8549995  69.4110031   3.8199999  58.0750008  18.2080002
   3.0710001  57.7659988  18.7700005   4.5749998  57.6399994  18.6809998
  42.6259995  22.5879993  76.6979980  42.3950005  21.8470001  77.3170013
  42.9360008  23.2989998  77.3720016  21.9270000  -3.7049999  30.1280003
  21.8840008  -3.5610001  31.0730000  21.8099995  -4.6230001  29.9850006
   5.2770000  52.7820015  40.7319984   5.2839999  52.2519989  39.9169998
   4.7709999  53.5610008  40.4669991  67.0719986  60.7239990  24.6669998
  66.1389999  60.4210014  24.5330009  67.4039993  59.8170013  24.9179993
  12.3780003  43.0569992  73.5690002  12.5839996  42.4720001  72.7959976
  13.2790003  43.2319984  73.8489990  52.8790016  10.2980003  20.0049992
  53.3849983   9.4890003  19.6439991  51.9900017  10.0609999  19.7150002
  31.0979996  73.6620026  25.6560001  32.0629997  73.4670029  25.6420002
  30.9480000  73.9449997  26.5650005  62.5670013  10.6280003  16.0279999
  63.4959984  10.7440004  15.5979996  62.8190002   9.9870005  16.7150002
  45.6320000  18.0389996  20.6889992  45.7869987  19.0410004  20.9510002
  45.8909988  18.1060009  19.7779999  33.4659996  73.3600006  15.5880003
  32.6699982  72.9100037  16.1030006  33.0390015  73.2969971  14.6999998
   5.9749999  43.4900017  66.3030014   6.7230000  43.0629997  65.8730011
   5.2389998  43.1720009  65.6859970  52.6599998   2.4670000  13.9469995
  52.4860001   2.2140000  13.0240002  51.8079987   2.9530001  14.0760002
  54.4700012   3.7739999  15.5340004  53.7449989   3.5880001  14.9060001
  54.8950005   2.9110000  15.5900002  17.7840004  52.8440018  75.6299973
  17.3999996  53.5730019  75.2379990  17.3120003  52.0519981  75.2740021
  53.9339981   7.8680000  18.9769993  54.6870003   7.5240002  18.4780006
  53.9850006   7.3239999  19.7730007  28.0039997  73.9759979  11.3360004
  27.4099998  73.7139969  12.0310001  27.5610008  74.7939987  11.0299997
  67.5920029  13.3940001  13.2019997  67.2870026  13.7080002  14.0719995
  67.0339966  13.9610004  12.6260004  41.2029991  -0.0040000  26.8579998
  40.2309990  -0.3190000  26.8640003  41.3289986  -0.1700000  27.8190002
  61.6010017  13.7670002  10.7819996  62.0999985  13.0740004  10.3009996
  61.9329987  13.6829996  11.7240000   6.7040000  43.6910019  74.4840012
   5.9010000  44.2400017  74.7160034   6.8360000  44.0019989  73.5380020
  57.3520012   7.2370000   9.7830000  56.9430008   6.3249998   9.8339996
  57.2729988   7.5079999  10.7430000  19.3320007  73.3339996  15.4930000
  18.4750004  73.7500000  15.6680002  19.6329994  73.8509979  14.7040005
  19.2919998  70.6699982  16.1919994  18.4839993  70.7829971  16.7180004
  19.3190002  71.5500031  15.7340002  62.3720016  11.2570000  24.5839996
  62.1259995  10.4490004  24.0760002  61.9189987  11.9160004  23.9440002
  56.3440018   8.7200003  17.4179993  56.8919983   9.4510002  17.6959991
  56.8149986   8.4219999  16.6210003  19.3889999  39.8959999  75.3339996
  19.5489998  40.7509995  74.8440018  18.7040005  40.2280006  75.9700012
  64.0690002  20.1580009   8.0839996  64.3030014  20.0499992   7.1630001
  64.9089966  19.9890003   8.4840002  45.6559982  83.0490036  22.1049995
  46.2099991  83.2539978  22.8430004  46.0159988  82.2620010  21.7150002
  69.0619965  21.3449993  22.1450005  68.7819977  20.3920002  22.0990009
  69.9749985  21.3050003  22.2360001  61.5149994  15.9549999   8.9969997
  61.5209999  15.2700005   9.7209997  60.5509987  16.0610008   8.9239998
  61.6520004  11.8059998  29.2859993  61.2449989  11.9820004  28.3850002
  61.0480003  11.0839996  29.5480003  71.0319977  22.3010006  28.9529991
  70.3020020  21.7189999  28.5410004  70.4240036  22.7609997  29.5680008
  61.6230011  15.4890003  17.8099995  60.6930008  15.2910004  17.5730000
  61.4790001  16.2830009  18.3859997  64.9749985  11.0369997  24.1679993
  64.1050034  11.1260004  24.4979992  65.3889999  10.3260002  24.7469997
  20.5289993  51.9510002  58.1080017  20.2089996  52.3759995  57.3450012
  19.8950005  51.2779999  58.3190002  19.7759991  44.2200012  77.7009964
  20.2910004  44.6080017  78.5049973  18.8740005  44.5550003  77.9349976
  61.5489998   9.1870003  23.1289997  62.2169991   8.4860001  22.9090004
  60.9780006   8.7049999  23.8600006  70.3799973  18.7469997  24.9389992
  69.7070007  18.6949997  25.6369991  69.9380035  18.5849991  24.1289997
   9.1250000  59.9679985  60.8349991   9.6280003  59.6389999  60.0509987
   9.7119999  60.6559982  61.1049995  27.0489998  48.5620003  84.9899979
  27.0569992  47.9230003  85.7809982  27.8920002  49.0530014  85.1979980
  22.3029995  52.2159996  77.8320007  21.6469994  51.9609985  77.1389999
  22.3540001  51.4319992  78.3899994   6.3429999  47.7970009  70.3590012
   6.4730000  48.6380005  70.8619995   6.4899998  48.0730019  69.4570007
  61.0340004  19.9330006  20.8150005  61.4379997  20.7450008  21.1940002
  61.1479988  19.3190002  21.6140003  57.1399994  11.0780001  19.2609997
  57.5509987  11.8249998  19.6130009  56.2340012  11.4119997  19.1350002
   1.4130000  36.2809982  67.8700027   0.7270000  35.5550003  67.9369965
   0.9890000  36.9109993  68.5149994  64.5380020  21.6669998  11.8079996
  63.8009987  22.2210007  12.2600002  64.5550003  22.1560001  10.9390001
  55.4589996  13.6840000  21.4109993  55.3619995  13.3990002  22.3199997
  54.7879982  14.4370003  21.3670006  75.9700012  15.2570000  35.0999985
  76.1200027  14.4420004  35.6829987  75.7310028  14.7709999  34.2719994
  61.7179985   8.2180004  14.3750000  62.5800018   7.7410002  14.1879997
  61.8829994   9.0010004  13.8129997  16.5330009  48.8040009  65.0149994
  17.0599995  49.6090012  64.9710007  17.1429996  48.0719986  65.1029968
  20.0610008  61.1850014  73.4720001  20.9139996  61.0130005  73.0339966
  19.8680000  60.2500000  73.7900009  33.7270012  70.7710037  21.3260002
  34.4230003  71.4700012  21.4950008  34.1940002  70.1589966  20.7450008
  49.1160011  83.6689987  22.0359993  48.3610001  84.2109985  21.7660007
  48.8330002  83.3789978  22.8959999  69.5439987  26.2670002  13.8490000
  70.4430008  26.1650009  13.4160004  69.7050018  26.1200008  14.7869997
  68.4769974   8.7799997  26.3579998  69.2220001   8.6359997  25.7259998
  68.7600021   9.6580000  26.7310009  71.8069992  20.9950008  22.0820007
  72.7160034  20.7159996  21.9619999  71.6719971  20.9150009  23.0249996
  60.3019981  21.2950001  15.2639999  60.6209984  22.2140007  15.3319998
  60.7089996  20.9570007  16.0830002  11.6630001  50.0680008  75.8399963
  10.9429998  49.5390015  75.3970032  12.0190001  50.4420013  74.9670029
   7.6129999  46.6759987  72.7799988   7.3490000  47.3400002  72.1110001
   6.9510002  45.9510002  72.5640030  13.6300001  53.3909988  66.7320023
  13.7220001  52.4239998  66.6829987  13.7620001  53.4939995  65.7360001
  15.9820004  41.6879997  76.4039993  16.6100006  41.3569984  77.0459976
  15.5609999  40.8610001  76.1460037  67.9380035  18.7119999  13.7080002
  67.6210022  18.1749992  12.9110003  67.9349976  19.5970001  13.3260002
  29.2490005  47.7260017  71.2490005  29.6650009  47.0550003  70.6760025
  28.9960003  47.2239990  72.0599976  18.7479992  52.1619987  79.8470001
  17.9570007  52.4720001  80.4420013  19.3460007  51.8549995  80.6050034
  10.7370005  36.5180016  73.4759979  10.2939997  35.6529999  73.2630005
  11.1569996  36.6669998  72.5139999   0.7480000  11.3579998  28.0030003
  -0.0740000  11.5780001  28.4979992   0.4760000  10.9949999  27.1480007
  59.8600006   7.6950002  24.6420002  59.4280014   6.9369998  24.2700005
  59.8330002   7.4610000  25.5610008  44.9599991  71.1989975  12.4259996
  45.7039986  71.7269974  12.4049997  44.1699982  71.7570038  12.4130001
  17.0960007  50.1059990  78.6940002  16.4099998  50.7050018  78.3919983
  17.7420006  50.6910019  79.1679993  61.3639984  19.8649998   4.0980000
  61.1370010  20.8010006   4.4390001  62.3260002  19.9610004   3.9519999
  19.3859997  52.2080002  69.2369995  19.1639996  52.9099998  69.8460007
  20.3139992  52.0579987  69.4869995  16.5009995  47.4780006  79.4089966
  16.7210007  48.3829994  79.0530014  15.5439997  47.5639992  79.4059982
  16.1529999  40.2939987  69.4039993  16.6790009  39.4140015  69.4459991
  16.6849995  40.7719994  70.1009979  30.9169998  63.2579994  78.4660034
  30.0930004  62.8810005  78.0299988  31.3349991  63.6479988  77.6220016
  48.5029984   5.8740001  13.8879995  49.1570015   6.5980000  14.0590000
  47.9930000   6.2230000  13.0970001  64.0770035  19.2290001  12.7830000
  63.3069992  19.0620003  12.1879997  64.4960022  20.0480003  12.4150000
  78.5989990  14.1590004  31.7999992  77.7559967  13.9709997  32.2150002
  79.1019974  14.3360004  32.6570015  58.7639999  16.3260002   8.9230003
  58.3670006  17.0060005   9.4820004  58.0029984  15.7729998   8.6940002
  58.6829987  19.7469997   3.6280000  59.6559982  19.7770004   3.8130000
  58.3460007  19.9209995   4.5479999   9.1379995  54.1100006  70.5410004
   8.2379999  54.2579994  70.8499985   9.0769997  54.4199982  69.6439972
  65.8079987  16.7339993   9.4379997  65.0759964  16.5669994   8.7749996
  65.3030014  16.7420006  10.1940002  25.9080009  53.6010017  79.8450012
  25.7509995  54.5929985  79.8669968  26.8759995  53.6199989  79.7939987
  58.7760010  11.2209997  25.2439995  58.0200005  11.5740004  25.7099991
  58.4860001  10.2670002  25.0820007  14.7910004  61.2190018  67.4300003
  15.2180004  60.8380013  66.6600037  15.0120001  62.1529999  67.2539978
  71.4840012  17.1779995  21.0919991  71.2919998  16.7999992  20.2320004
  72.4319992  17.3199997  20.9969997  49.7529984  16.2140007   8.5590000
  49.8129997  16.6800003   7.7049999  49.3759995  15.3559999   8.2770004
  60.2249985   9.2679996  10.5950003  59.7999992  10.1140003  10.8610001
  60.1129990   9.3640003   9.6140003  58.6040001  10.2500000  15.6079998
  57.6419983   9.8769999  15.4919996  58.6269989  10.9219999  14.9329996
   4.0170002  50.8479996  68.6019974   4.6500001  51.5470009  68.8339996
   3.5550001  50.6899986  69.4300003  30.5419998  73.2829971  28.2140007
  30.0489998  73.7399979  28.9860001  30.0160007  72.4540024  28.2150002
  75.9059982  27.4430008  23.8129997  75.6149979  28.3889999  23.9120007
  75.9440002  27.2409992  24.7759991  77.2620010  41.7379990  69.3199997
  77.0569992  41.1240005  68.5380020  76.3440018  41.8660011  69.6350021
  19.6019993  58.3860016  74.9940033  19.1049995  57.8810005  75.6210022
  19.6340008  57.8100014  74.2020035  66.4459991   8.7480001  18.0410004
  66.9810028   9.5539999  18.1299992  65.5559998   9.2069998  18.3139992
  41.0219994  77.3369980  21.2040005  40.8260002  76.5080032  20.7189999
  41.9700012  77.4100037  21.1849995  58.0820007  14.4049997  14.3030005
  58.3279991  15.1809998  13.7360001  57.2690010  14.1210003  13.8950005
  73.5830002  24.6320000  16.0389996  73.3030014  24.6420002  16.9519997
  72.7099991  24.5219994  15.5979996  67.3450012   8.0299997  22.3880005
  67.8310013   7.2410002  22.7670002  68.0469971   8.3520002  21.8069992
  59.7639999   6.7110000  16.6760006  59.8419991   6.2560000  17.5599995
  60.2080002   6.0700002  16.1310005  26.4319992  75.2369995  15.5089998
  26.9650002  75.3949966  16.3439999  26.3349991  76.1110001  15.1650000
  71.5410004  21.2229996  24.7989998  72.2310028  21.3139992  25.5270004
  71.0879974  20.4050007  25.1350002  64.0070038  19.2679996  15.5000000
  64.8310013  18.6800003  15.5539999  64.0100021  19.4050007  14.5559998
  19.5879993  53.7610016  77.8079987  19.3759995  53.2290001  77.0029984
  19.2719994  53.0810013  78.4869995  64.0400009   9.9980001  18.8850002
  63.3440018  10.5799999  19.3460007  64.5869980   9.8649998  19.7630005
  48.5620003  26.0020008  18.1289997  49.4090004  26.1450005  17.7399998
  48.9189987  25.8990002  19.0809994  74.7289963  11.9700003  26.1660004
  74.1660004  12.4040003  26.7929993  75.1100006  12.7500000  25.7040005
  19.7950001  39.7840004  70.2539978  20.0240002  39.0909996  69.5550003
  18.9039993  39.4949989  70.4250031  17.5750008  51.7570000  71.8710022
  16.8320007  51.8209991  71.2099991  17.8400002  52.6780014  71.8580017
  64.4380035  21.0960007  18.9099998  64.6299973  21.5030003  18.0799999
  63.6419983  21.5349998  19.2670002   2.7509999  11.4879999  23.0440006
   2.7309999  12.3959999  22.7390003   3.2290001  10.9720001  22.3419991
  70.2679977  12.0869999  18.0240002  70.7770004  11.6149998  17.3299999
  70.8430023  11.8979998  18.8090000  11.7670002  40.7080002  77.2740021
  11.1940002  41.2659988  76.6979980  11.3599997  41.0550003  78.1429977
  60.7200012  12.5860004  27.0750008  60.0750008  12.0319996  26.5690002
  60.3720016  13.4879999  26.8190002  53.6329994   4.3400002   7.8540001
  52.7560005   3.8989999   7.7049999  54.1930008   3.5550001   7.8520002
  12.8920002  41.3969994  71.3140030  12.7690001  40.6049995  71.8499985
  12.5579996  41.0559998  70.4400024  36.4049988  74.4089966  26.8509998
  36.5400009  73.4690018  27.0440006  35.4059982  74.4410019  27.0060005
  64.7330017  19.5139999  23.2329998  64.5189972  18.8740005  22.5000000
  65.2659988  20.1450005  22.7660007  30.8290005  75.0749969  14.9580002
  30.9470005  74.4010010  15.6949997  30.2520008  74.6460037  14.3739996
  54.2770004  20.0359993  11.4759998  54.8429985  19.2110004  11.6180000
  53.7260017  19.9759998  12.2939997  37.1290016  75.5479965  12.1549997
  37.4879990  75.1989975  12.9949999  37.4309998  76.4980011  12.2740002
  54.7299995  15.8870001  10.3699999  54.8699989  16.7229996  10.8339996
  55.4550018  15.8160000   9.7620001   5.3520002  40.6170006  68.6579971
   5.7370000  39.7249985  68.8330002   6.1339998  41.1720009  68.8399963
  58.1469994  14.2650003  23.8980007  58.7680016  13.4790001  24.1280003
  57.4010010  13.7399998  23.6889992  26.9979992  68.1309967  16.7530003
  27.7070007  67.5110016  16.4689999  26.8279991  67.7659988  17.6270008
  60.2929993  17.1650009  19.3680000  59.2830009  17.2520008  19.3099995
  60.4010010  17.6429996  20.2320004  16.7080002  50.6730003  74.3379974
  16.9480000  49.7070007  74.3610001  17.1130009  50.8820000  73.4550018
  14.3070002  59.1489983  71.1640015  14.3290005  58.2150002  71.4069977
  13.4429998  59.1819992  70.7269974  27.9909992  51.9910011  76.5810013
  27.0769997  51.6790009  76.8229980  28.2240009  51.1450005  76.0419998
  67.5380020  39.3950005  12.1689997  67.7519989  38.8639984  11.3120003
  66.6409988  39.7299995  11.8610001  73.9059982  32.2809982  18.2029991
  74.2919998  31.5109997  18.6429996  74.3389969  32.2130013  17.3180008
  55.0629997  27.1159992  16.7530003  54.8470001  28.0459995  16.8899994
  54.4710007  26.8649998  15.9910002   3.2079999  31.7479992  13.5530005
   3.2040000  30.8439999  13.8789997   4.1079998  31.9300003  13.3800001
  64.0130005  40.9510002  24.0039997  64.2379990  39.9539986  23.9190006
  64.0660019  40.9640007  24.9869995  67.1340027  30.5450001  15.2799997
  67.7210007  31.2929993  15.5530005  66.4639969  30.5869999  16.0119991
  69.5260010  15.0089998  16.3619995  69.1610031  14.0749998  16.3279991
  68.7549973  15.4879999  15.9969997  66.9010010  29.7049999  20.8990002
  67.5690002  30.1420002  21.4750004  67.4840012  29.0289993  20.4839993
  26.7399998  65.0910034  66.3580017  26.2080002  65.8799973  66.0400009
  27.2240009  65.5690002  67.1149979  76.7180023  19.8700008  36.1040001
  77.2730026  19.7900009  35.2960014  76.4530029  20.8199997  35.9339981
  31.6250000  55.5979996  71.7880020  31.6089993  55.5120010  72.7450027
  31.2870007  56.5540009  71.6660004   6.1209998  21.1790009  19.6830006
   5.7700000  22.0070000  19.4459991   7.0419998  21.3020000  19.3449993
  72.4889984  25.0559998  18.3729992  72.4769974  25.9050007  18.9640007
  71.8649979  24.5590000  18.8889999  29.1520004  54.0750008  78.0220032
  28.7159996  53.2929993  77.5670013  29.1910000  53.7369995  78.9280014
  31.8369999  67.4150009  71.5270004  32.7820015  67.2200012  71.5800018
  31.6620007  67.7089996  72.4700012  69.7190018  31.7089996  12.4799995
  68.8470001  32.1440010  12.6059999  69.5790024  30.8040009  12.7030001
  66.5240021  18.4470005  15.7720003  67.1159973  18.4710007  14.9519997
  67.0989990  18.9449997  16.4249992  22.4559994  49.0690002  76.4489975
  23.0970001  48.4160004  76.7440033  22.1469994  49.3610001  77.3399963
  63.4760017  25.2530003  13.4799995  62.9760017  24.5149994  13.0699997
  63.0139999  25.3160000  14.3559999  19.1830006  55.2449989  63.9220009
  19.3600006  54.3089981  63.8569984  19.4580002  55.5480003  63.0019989
  77.3690033  33.7980003  23.3360004  77.2590027  34.6980019  23.6380005
  77.3420029  33.2449989  24.1930008  14.6140003  44.3889999  74.6500015
  14.7259998  45.2369995  75.1370010  14.9029999  43.7239990  75.3479996
  20.4349995  55.2080002  79.7190018  20.7859993  55.9739990  79.2289963
  20.1879997  54.6380005  78.9089966  72.1289978  36.5139999  18.5900002
  72.7929993  35.8069992  18.9130001  71.3270035  35.9749985  18.8490009
  30.7889996  67.5530014  61.5400009  29.8379993  67.5810013  61.4469986
  31.0779991  68.4359970  61.1959991  24.9050007  59.2519989  80.3820038
  24.2859993  59.4700012  81.0670013  24.3910007  58.7070007  79.7750015
  78.5260010  12.3199997  24.9419994  77.8789978  12.9080000  24.6429996
  78.9560013  12.9180002  25.6119995   0.0090000  27.2730007  18.7369995
  -0.0650000  26.6569996  18.0119991   0.8770000  27.0090008  19.1270008
  77.0559998  43.1139984   9.5749998  77.4830017  42.3260002   9.2399998
  76.2720032  43.0639992   8.9169998  29.8999996  57.3510017  82.0780029
  29.1790009  57.7120018  81.5319977  30.0119991  58.0610008  82.7549973
  68.9860001  27.8150005  20.6819992  68.6480026  26.9160004  20.9500008
  69.2289963  28.1709995  21.5289993  65.6380005  30.1110001  17.4039993
  64.6660004  29.9990005  17.4529991  65.8600006  30.6639996  18.1529999
  28.3040009  61.2690010  78.1890030  28.8220005  60.9500008  78.9260025
  27.5839996  61.6969986  78.6520004  67.4759979  28.3640003   5.9889998
  67.4069977  29.1550007   6.5599999  68.4039993  28.0400009   6.2410002
  77.7770004  30.4810009  16.7269993  78.6389999  30.0020008  16.5580006
  77.5130005  29.9510002  17.5160007  76.6309967  27.7320004  13.8959999
  76.5419998  27.4669991  14.7989998  76.6139984  26.9109993  13.4410000
  71.8799973  32.0639992  11.0330000  71.8000031  33.0130005  10.7469997
  71.0790024  31.9699993  11.5740004  23.1819992  65.9160004  71.4160004
  23.9360008  65.5899963  70.8659973  22.4410000  65.5179977  70.8259964
   8.8830004  59.3320007  65.3850021   9.7700005  58.9339981  65.4710007
   8.3269997  58.5120010  65.3700027  42.0359993  80.6969986  22.8589993
  42.5900002  80.8840027  22.1009998  42.5439987  80.0999985  23.3859997
  75.6060028  48.7980003  12.1450005  76.2389984  48.4029999  12.8039999
  74.7470016  48.5369987  12.5670004  75.7229996  35.7599983  10.2019997
  76.0139999  34.9129982   9.8260002  76.1389999  35.7029991  11.0520000
  73.4929962  31.3020000  13.5330000  73.5230026  30.3190002  13.4820004
  73.0579987  31.4960003  12.6429996  25.3409996  66.8639984  73.7910004
  24.5890007  66.8600006  74.4100037  25.8920002  67.5609970  74.1890030
  74.4830017  31.5160007  10.0670004  74.3639984  30.7369995   9.4600000
  73.6050034  31.8759995  10.0570002  75.3170013  22.6580009  16.0389996
  74.7149963  23.4239998  15.9329996  74.6989975  21.9200001  16.0629997
  29.3190002  58.6749992  76.4980011  29.2950001  58.1819992  75.6650009
  28.9270000  57.9500008  77.0970001  66.0869980  24.2329998  14.4289999
  66.5859985  24.6959991  13.7110004  65.1490021  24.4769993  14.1479998
  49.2249985   3.4419999  60.9650002  48.9360008   4.1729999  60.3370018
  49.1800003   2.6949999  60.4099998  10.5089998  61.5750008  67.0910034
   9.8950005  62.1129990  67.5780029  10.1960001  60.6780014  67.1220016
  18.7250004  48.4099998  81.0439987  18.2490005  47.9440002  80.2649994
  19.4790001  48.7610016  80.4540024  69.9349976  29.1700001  13.1160002
  69.6149979  28.2210007  12.9169998  70.7500000  29.2010002  12.5760002
  73.0759964  39.9819984  15.9259996  72.3710022  40.4910011  15.5609999
  72.6110001  39.0909996  15.9189997   0.2750000  30.1599998  20.1520004
   0.0110000  29.4589996  19.5839996   0.3310000  30.9069996  19.5300007
  76.9840012  20.1749992  22.4419994  77.2890015  19.3959999  22.9839993
  77.8140030  20.3990002  21.9969997  25.7679996  72.1709976  69.1699982
  26.4109993  72.2239990  68.4120026  25.0270004  72.7119980  68.9130020
   3.3940001  26.2210007  16.4190006   3.2690001  26.3829994  15.4510002
   2.5810001  25.7500000  16.6580009  55.7900009  24.8619995  15.0579996
  56.2760010  25.5109997  15.6090002  56.0200005  25.2000008  14.1320000
  63.4379997  28.0300007  11.9560003  63.3590012  27.0599995  12.0279999
  64.0000000  28.0380001  11.1750002  59.1240005  36.1479988  11.7880001
  58.1920013  36.1189995  11.4230003  59.6030006  36.2220001  10.9270000
   7.0279999  36.2639999  20.8470001   7.0580001  36.8979988  20.1219997
   6.2080002  35.7610016  20.6970005  17.0690002  41.7840004  71.4850006
  16.6019993  42.6020012  71.7860031  17.0230007  41.3209991  72.3489990
  70.8509979  18.4570007  18.0240002  71.1470032  17.5359993  18.1569996
  70.6559982  18.4220009  17.0760002  70.2549973  20.6650009  19.3969994
  70.6240005  20.0189991  18.7390003  70.6900024  20.2199993  20.1770000
   7.8109999  38.8759995  17.4160004   7.9790001  39.3030014  18.2940006
   6.9070001  38.5149994  17.6019993  77.4950027  25.2450008  17.7639999
  77.0670013  24.4190006  18.1459999  76.6949997  25.6490002  17.3850002
   5.0050001  12.2650003  26.0429993   5.4330001  11.4259996  26.0669994
   4.9590001  12.4600000  25.0919991   2.6619999  28.1469994  14.4499998
   2.3690000  27.6970005  13.5670004   3.5780001  28.3320007  14.2080002
  78.2030029  18.5179996  19.3959999  77.5820007  18.8069992  18.6490002
  78.8389969  19.2999992  19.3269997  29.8230000  65.5699997  74.8939972
  30.1429996  65.2529984  74.0159988  29.8889999  66.5279999  74.8580017
  68.6259995  28.2329998  17.0580006  67.8539963  28.2399998  16.4790001
  68.3550034  28.8950005  17.7150002  18.3540001  56.1870003  76.5299988
  18.8279991  55.3730011  76.7939987  17.8180008  55.8390007  75.7669983
  68.9889984  24.7250004  20.7390003  69.9369965  24.7749996  20.8999996
  69.0619965  24.1200008  19.9410000   3.1900001  30.9150009  22.9759998
   3.6210001  30.1739998  22.5319996   3.5460000  30.8360004  23.9099998
  77.0210037  42.1020012  13.2159996  76.0839996  42.0369987  13.3950005
  77.3759995  41.5180016  13.9460001  70.9369965  35.1940002  14.9239998
  71.0039978  34.2309990  14.9589996  71.7659988  35.4550018  14.5229998
   4.9320002  44.2879982  11.0690002   5.4340000  43.9000015  10.2939997
   4.0900002  44.5050011  10.6149998  66.5380020  37.1459999   7.8150001
  66.4120026  37.8880005   7.2399998  67.1100006  36.5390015   7.2880001
   9.2609997  14.3240004  25.3360004  10.2609997  14.3330002  25.3579998
   9.0930004  14.2900000  26.2919998  49.8909988   2.4979999  64.6190033
  49.3619995   2.0490000  63.8699989  49.2260017   2.5369999  65.2900009
  31.6910000  52.6819992  80.5930023  31.0669994  51.9459991  80.3430023
  31.3910007  52.9809990  81.4580002  64.6449966  23.5380001   5.7909999
  64.3789978  24.3999996   5.4410000  65.0569992  23.1119995   5.0570002
  74.3479996  31.4039993  25.7759991  73.4219971  31.0839996  26.0100002
  74.0130005  32.1669998  25.2290001  70.2860031  18.5049992  15.3839998
  70.9580002  18.9810009  14.8710003  69.5189972  18.5550003  14.7639999
  70.7699966  23.3190002  16.0720005  69.8470001  22.9820004  15.8999996
  70.5749969  24.1420002  16.5359993  78.4260025  29.5590000  12.8800001
  77.5540009  29.1399994  13.0270004  78.7689972  28.9920006  12.1650000
  67.6460037  17.5970001  11.3430004  67.2229996  17.4799995  10.4709997
  67.7760010  16.6889992  11.6000004  73.5749969  21.5979996  29.7010002
  72.7419968  21.9069996  29.2880001  73.7939987  20.9529991  29.0079994
  60.0960007  28.1849995  11.9580002  60.0499992  27.2579994  12.2880001
  59.8800011  27.9699993  10.9700003  64.5159988  28.3959999  14.3800001
  63.8499985  28.3320007  13.6450005  65.3079987  28.6770000  13.8100004
  78.6129990  42.3320007  30.1180000  79.3590012  42.9420013  29.7929993
  79.0350037  42.1129990  30.9580002  59.7309990  27.5020008  16.4440002
  60.2270012  28.3339996  16.2940006  59.0130005  27.7099991  15.8240004
  66.7450027  39.5359993   6.7040000  66.7600021  40.1850014   7.4190001
  67.6259995  39.6250000   6.2800002  59.7150002  10.3020000  18.5310001
  59.5400009   9.8249998  19.3479996  58.8650017  10.7720003  18.4239998
  77.4810028  35.8689995  28.3379993  76.8420029  36.1640015  29.0550003
  76.7929993  35.3979988  27.7460003  49.3400002   8.9919996  69.8280029
  49.5390015   9.1980000  70.7779999  50.1500015   9.3380003  69.4570007
  76.4449997  22.8360004  18.4559994  75.5719986  22.6329994  18.8540001
  76.1770020  22.8530006  17.5039997   0.3250000  16.4950008  30.6130009
  -0.1580000  15.6800003  30.6490002   1.0480000  16.3490009  31.2199993
   8.1339998  45.0270004  17.9629993   8.2950001  45.6710014  18.6980000
   7.5320001  45.5699997  17.4209995   4.8499999  42.0229988  16.7770004
   5.2649999  42.4609985  17.4960003   4.8779998  42.8040009  16.1259995
  23.7369995  58.8300018  68.4199982  24.4130001  58.0960007  68.4489975
  23.4449997  58.7840004  69.3410034  69.0859985  33.0940018   4.5809999
  69.3199997  32.9480019   5.5170002  69.1640015  32.1769981   4.2519999
  52.3979988   4.4380002  72.9670029  52.1699982   4.8829999  72.0989990
  53.3019981   4.8400002  73.0510025  26.4230003  64.5899963  73.0090027
  25.9909992  65.3889999  73.3789978  27.0400009  65.0029984  72.3730011
   3.8399999  37.0139999  23.1469994   2.9340000  36.6609993  23.3269997
   4.3340001  36.1559982  23.1980000   0.2340000  37.8989983  17.9230003
   0.6740000  37.9410019  17.0330009  -0.5540000  37.3889999  17.6240005
  67.0130005  46.0579987   9.2119999  67.7900009  45.7330017   8.6660004
  67.3079987  45.7770004  10.0740004  16.4610004  60.4039993  64.8750000
  17.1299992  59.6710014  65.0179977  16.9850006  60.8940010  64.1979980
   4.6139998  50.9630013  27.0930004   4.8499999  51.1910019  27.9950008
   5.2560000  50.2560005  26.8740005   4.2389998  43.9510002  20.2000008
   4.5489998  44.0859985  21.1119995   5.0120001  43.4259987  19.8220005
  53.5620003  24.2870007  78.8339996  52.9869995  24.7140007  79.4749985
  53.5779991  23.3990002  79.2149963  77.6289978  36.5019989  16.7269993
  77.6959991  35.6020012  17.1620007  76.6539993  36.4609985  16.5879993
  74.8779984  39.5579987  11.7489996  75.3330002  39.6020012  10.8629999
  75.0139999  40.4840012  12.0550003  78.0400009  38.4440002  20.1609993
  77.3550034  38.8230019  19.5839996  78.8720016  38.6090012  19.6310005
  26.9570007  69.1380005  74.0729980  27.5620003  69.7160034  74.5960007
  26.3430004  69.8450012  73.7330017   5.2420001  44.3129997  15.4460001
   5.4640002  45.2540016  15.3839998   5.8660002  43.9519997  14.8149996
   3.8320000  38.2480011  27.6889992   3.2579999  39.0709991  27.8339996
   3.2780001  37.7719994  27.0230007  69.0220032  29.2140007  74.0670013
  69.3830032  29.0470009  74.9899979  69.8030014  29.0909996  73.5279999
  13.7700005  37.9690018  63.0410004  13.6949997  36.9790001  62.9809990
  12.8999996  38.1450005  63.4370003   6.2770000  39.8810005  65.4720001
   6.7300000  40.7379990  65.3789978   6.5860000  39.5439987  66.2919998
  22.2450008  75.5839996  16.6389999  22.8110008  76.0139999  17.3090000
  22.8630009  74.8799973  16.3290005  77.8580017  38.4029999  62.7729988
  78.6650009  38.1040001  62.3650017  77.4079971  37.4980011  62.8530006
   5.4480000  44.7709999  49.5530014   6.4130001  45.0410004  49.5569992
   5.0170002  45.6100006  49.3740005   4.4029999  30.0340004  44.4869995
   4.9159999  30.8969994  44.3919983   4.7600002  29.7609997  45.3540001
  10.1949997  40.6759987  55.1030006  10.1610003  41.6370010  54.8160019
  11.0419998  40.6489983  55.5789986  51.8019981  13.3780003   4.1999998
  51.8219986  14.2939997   3.8840001  51.9210014  12.9399996   3.3050001
  74.6419983  42.3549995  69.8639984  73.9899979  42.4309998  70.5979996
  74.0619965  42.6539993  69.1470032  72.3199997  32.6790009  60.7229996
  72.4189987  32.2509995  61.5999985  72.5220032  33.5779991  60.9179993
  23.7080002  75.5910034   8.6949997  24.5890007  75.6569977   8.3179998
  23.1569996  75.4209976   7.8870001   5.9990001  38.0379982  69.9499969
   5.0339999  38.2459984  69.9769974   5.9559999  37.0760002  69.8649979
   5.7309999  35.5289993  69.2649994   5.0440001  35.1990013  69.8700027
   6.4070001  34.8300018  69.4100037   8.3380003  37.1269989  54.4669991
   7.7729998  36.3400002  54.3440018   9.2329998  36.6730003  54.4269981
  76.1080017  39.9309998  67.7050018  75.7020035  39.0250015  67.7490005
  76.4319992  39.9109993  66.7720032  78.4229965  44.4539986  47.3370018
  77.6930008  44.7299995  47.9739990  78.2129974  43.5070000  47.2550011
   7.8820000  54.8530006  60.5299988   7.5250001  55.7709999  60.5309982
   7.3839998  54.5470009  59.6720009   8.0530005  70.6780014  55.4630013
   8.2910004  69.7990036  55.9910011   7.4270000  71.0719986  56.1209984
   4.3080001  38.5359993  61.1259995   4.4340000  38.6930008  60.1720009
   4.1529999  37.5099983  61.1090012   1.6320000  52.2400017  66.1080017
   0.7370000  51.9319992  65.9059982   1.9270000  51.5110016  66.7259979
  55.0950012  29.6860008  -5.3899999  56.0849991  30.0709991  -5.2750001
  54.7869987  30.1910000  -4.5689998  18.4020004  50.2039986  58.5719986
  17.4869995  50.0260010  58.2799988  18.3230000  49.9959984  59.5470009
  76.4329987  56.1349983  43.9119987  77.2639999  56.4659996  43.4490013
  76.8150024  55.3269997  44.3120003  54.6389999  17.1299992   2.6429999
  53.8889999  17.6250000   2.1889999  54.8079987  16.4939995   1.9570000
   8.6470003  42.8330002  58.5900002   9.1129999  42.4599991  59.4179993
   8.2869997  41.9780006  58.3030014  10.5799999  52.4269981  55.6230011
  10.4069996  52.4160004  56.5820007  10.3629999  51.5530014  55.3079987
  12.2840004  56.9790001  55.6129990  12.3350000  55.9659996  55.7910004
  11.4209995  57.0260010  56.1500015   6.4140000  43.3940010  51.7500000
   5.8350000  43.8660011  51.1559982   6.4889998  44.0489998  52.4850006
   9.0920000  46.8440018  63.8779984   9.9069996  47.0439987  63.4319992
   8.8439999  47.7890015  64.2200012  58.1040001  27.1149998  -2.7460001
  58.1839981  26.9349995  -1.8000000  57.1160011  27.1870003  -2.8299999
  48.9580002  11.3629999   6.0590000  47.9799995  11.1619997   6.0159998
  48.9879990  12.0249996   5.3340001   4.6580000  61.1320000  62.2529984
   4.5240002  61.7430000  63.0390015   5.0469999  60.3650017  62.7120018
   3.7690001  42.4690018  64.9250031   3.8570001  41.8569984  64.2060013
   2.8910000  42.9029999  64.7360001   9.7500000  49.9280014  54.1549988
   9.3579998  49.0169983  54.3670006  10.4280005  49.5929985  53.4790001
  75.2330017  55.7739983  47.6370010  75.1689987  55.9869995  46.7319984
  75.2220001  54.8079987  47.6739998  52.0880013   9.1450005   6.5669999
  51.9589996   9.4329996   7.4920001  52.5419998   8.2819996   6.7550001
  25.8570004  58.4570007  64.7570038  25.6770000  58.0070000  63.8870010
  26.1690006  57.6749992  65.2610016   3.3570001  57.5050011  60.5209999
   3.0590000  58.4090004  60.8479996   2.8690000  56.9350014  61.0550003
   4.9169998  39.6730003  56.2949982   5.0469999  39.0999985  55.5190010
   3.9340000  39.7439995  56.3269997  11.6850004  47.3619995  62.8650017
  11.3039999  47.5340004  62.0419998  12.5590000  47.8460007  62.7949982
   7.4000001  62.9980011  52.4809990   7.3130002  63.0449982  53.4819984
   6.7030001  62.3120003  52.2820015  15.8479996  49.9420013  62.4000015
  16.1219997  49.2420006  63.0870018  15.1669998  49.4770012  61.9259987
   4.2220001  35.7789993  61.0559998   4.9310002  35.5439987  61.7649994
   3.5150001  35.1259995  61.3139992  13.7150002  63.5569992  65.3669968
  14.1190004  64.2730026  65.9199982  14.2910004  63.6609993  64.5790024
   9.6389999  49.4850006  61.1619987  10.2220001  48.7760010  60.7500000
  10.3059998  50.1669998  61.3460007  52.9199982  22.7119999   6.1560001
  52.8460007  22.7040005   5.1420002  52.9739990  21.7649994   6.2859998
   9.2760000  44.3139992  68.0899963  10.0439997  44.5040016  68.6110001
   9.6700001  43.5870018  67.5019989  53.5820007   7.8790002  11.6949997
  53.9659996   7.2059999  11.0780001  54.0890007   7.7259998  12.4960003
  10.5570002  35.6080017  62.5839996  10.2390003  34.7550011  62.2690010
  10.2030001  36.1969986  61.8930016   0.8710000  51.6689987  51.3730011
   0.5910000  50.7779999  51.1920013   1.6930000  51.7869987  50.9720001
  19.8929996  71.8330002  56.2109985  20.7600002  71.5670013  56.7130013
  19.5410004  72.4110031  56.9249992   7.1329999  62.6199989  58.0600014
   6.5500002  63.3870010  57.8689995   6.4819999  62.1069984  58.6450005
   7.9569998  61.1940002  55.7879982   7.1339998  60.7200012  56.0639992
   7.6500001  62.0999985  56.1250000   2.7670000  43.5740013  46.5550003
   3.1280000  43.2589989  45.7039986   2.6559999  44.5340004  46.2879982
  52.6549988  12.4899998   1.6790000  53.5950012  12.1619997   1.7550000
  52.4239998  11.8299999   0.9010000  12.8140001  56.6320000  62.6269989
  12.8959999  57.5429993  63.0000000  13.7220001  56.3310013  62.5870018
  11.3590002  57.8730011  65.3130035  11.8669996  58.3110008  64.5780029
  12.1330004  57.4420013  65.7770004   7.1279998  39.7220001  60.4939995
   7.1570001  40.2309990  61.3180008   6.9150000  38.8349991  60.7789993
   6.1520000  50.5649986  56.5489998   5.4699998  50.2490005  55.9840012
   5.6529999  51.3190002  57.0079994   5.2090001  61.6739998  45.7169991
   4.4359999  61.9280014  45.1809998   5.7579999  62.4550018  45.7179985
   5.5640001  48.3629990  63.3820000   6.1139998  47.8969994  62.7239990
   4.8090000  47.7690010  63.4210014  60.4840012  11.4969997  13.7119999
  61.2280006  11.4980001  14.2729998  60.4679985  12.4630003  13.5240002
  57.3160019  27.0750008   3.1380000  57.4469986  26.1180000   3.3380001
  57.1839981  27.0179996   2.1760001  55.4879990  34.8100014  -4.2410002
  55.7159996  34.3639984  -5.1100001  56.1520004  35.5639992  -4.3579998
   3.3139999  52.9199982  51.5629997   4.3099999  53.0849991  51.4560013
   2.9740000  53.3250008  50.7480011   7.1770000  47.5239983  61.1940002
   7.2639999  47.8419991  60.2760010   7.9949999  47.0550003  61.3810005
   0.8510000  56.6990013  62.4529991   1.7390000  56.3730011  62.7649994
   0.4390000  56.8899994  63.3440018   5.6950002  58.3730011  58.1500015
   4.7490001  58.5859985  58.1279984   6.0089998  59.1030006  58.8069992
  59.7350006  17.0410004   6.4310002  59.4599991  17.9370003   6.3220000
  59.7739983  16.9300003   7.4089999   8.9270000  54.4620018  54.4790001
   9.4759998  55.1860008  54.7680016   9.4469995  53.6629982  54.6580009
   5.0739999  57.3499985  47.1170006   4.7560000  58.2779999  47.1230011
   5.6510000  57.3400002  47.8740005  11.7770004  40.6539993  69.1259995
  11.9119997  39.7319984  68.8420029  11.3760004  41.0900002  68.3939972
  56.2249985  25.0769997  12.3450003  57.0289993  24.8470001  11.8149996
  55.5730019  24.4249992  12.1750002   2.7600000  63.0629997  48.2550011
   2.4389999  62.3950005  47.6320000   2.4830000  62.7159996  49.1170006
  18.2810001  58.5859985  65.5680008  19.1910000  58.3390007  65.2969971
  17.8600006  57.6930008  65.6579971   7.2440000  58.3450012  62.3320007
   7.1069999  57.8330002  61.4980011   7.8049998  59.0699997  62.0820007
   8.4519997  50.2299995  69.1750031   8.8120003  50.7709999  68.4329987
   7.5149999  50.1699982  68.8830032  12.2089996  32.8190002  53.0260010
  12.4829998  32.5579987  52.1360016  12.9289999  33.4029999  53.3409996
  11.9960003  56.0509987  49.3600006  12.0200005  55.7169991  48.3889999
  12.2259998  56.9720001  49.1059990   4.6980000  40.0569992  45.5880013
   5.1139998  39.9990005  46.5019989   4.9310002  39.1430016  45.2869987
  60.5849991  22.0070000   5.4520001  61.3940010  22.1590004   6.0910001
  59.9220009  22.1669998   6.0949998  11.6250000  48.2480011  67.1679993
  10.6599998  48.3660011  67.2389984  11.9320002  48.4939995  68.0540009
   7.0130000  57.5519981  66.0179977   6.4970002  57.2700005  66.8109970
   6.4410000  57.2820015  65.2529984   8.8420000  47.3820000  54.1090012
   9.4469995  46.5769997  53.9300003   8.2830000  47.2249985  53.2589989
   2.2509999  41.0239983  60.4570007   3.1150000  41.0880013  59.9900017
   2.4489999  40.2779999  61.0470009  13.5900002  57.3759995  67.0510025
  14.1599998  57.2400017  67.8889999  14.1619997  57.0330009  66.3629990
   2.9089999  61.8409996  50.9329987   2.5500000  60.9599991  50.7700005
   2.6350000  62.0229988  51.8129997  11.0909996  51.6300011  61.2179985
  12.0109997  51.9070015  61.4160004  10.7240000  52.4319992  60.8230019
  77.6149979  58.7610016  51.6559982  77.3820038  58.1749992  50.8670006
  76.7249985  58.9070015  52.0410004  15.4370003  54.9780006  62.6910019
  15.0459995  54.3209991  63.3199997  15.6619997  54.3390007  61.9700012
  58.2159996  19.3829994   6.4540000  57.5989990  18.6490002   6.5450001
  57.9710007  19.9759998   7.1890001   9.2390003  55.3779984  65.4929962
   9.2399998  56.3059998  65.1350021   8.6210003  54.9570007  64.8880005
  22.4459991  38.1879997  64.4039993  22.4599991  38.4129982  63.5050011
  21.7740002  37.4620018  64.4960022   4.8460002  60.7789993  54.8510017
   5.0980000  60.6959991  53.8849983   4.7570000  59.8680000  55.0919991
  18.3929996  41.0810013  77.6969986  18.8929996  41.8820000  77.6890030
  18.8419991  40.6069984  78.4609985   7.0370002  44.6689987  63.2340012
   6.6450000  44.6119995  64.0510025   7.8319998  45.2789993  63.4099998
  16.1900005  65.4229965  60.9059982  17.0230007  64.9100037  60.9930000
  16.5949993  66.3300018  61.0589981  35.9980011  -2.1329999  45.5699997
  36.5589981  -2.3629999  46.3470001  36.3269997  -2.7770000  44.8950005
  60.1790009  21.7040005   8.4910002  60.8919983  22.1299992   7.9439998
  60.5760002  20.8129997   8.6009998  12.7170000  68.7770004  60.5670013
  12.9069996  69.7030029  60.8540001  13.0959997  68.9140015  59.6329994
  17.4489994  44.2470016  65.7490005  16.5349998  44.4510002  66.0630035
  18.0100002  44.6370010  66.4749985  12.9499998  50.3359985  59.4920006
  12.6470003  49.9230003  58.6889992  12.1250000  50.7480011  59.8250008
   9.4549999  35.8569984  65.2939987   9.0839996  34.9930000  65.2089996
   9.5509996  36.1510010  64.3700027  16.4549999  57.3969994  62.4500008
  15.8710003  57.4440002  61.7200012  16.3180008  56.4620018  62.7599983
   1.7270000  59.4059982  50.4169998   1.2570000  58.6899986  49.8409996
   2.4150000  58.8260002  50.8139992  12.4239998  47.2360001  53.5229988
  11.9230003  46.4230003  53.4070015  11.9250002  47.8720016  52.9939995
   0.2310000  36.8120003  64.9700012  -0.1370000  36.6110001  65.8010025
   0.5930000  37.7019997  65.0070038   8.9510002  46.7239990  47.2919998
   8.0360003  46.6870003  46.9970016   9.4359999  46.4700012  46.4990005
  18.1889992  37.8899994  53.4189987  19.1380005  37.5260010  53.1809998
  18.1019993  37.4249992  54.2610016   4.6719999  38.1710014  49.5690002
   5.0040002  39.0919991  49.4000015   3.6819999  38.4389992  49.5260010
  11.1770000  49.0540009  52.0419998  11.7849998  49.7949982  51.8069992
  10.6709995  48.8950005  51.2480011  15.8509998  39.5050011  59.7859993
  15.2980003  39.7080002  60.5919991  16.4570007  40.2999992  59.8989983
  17.4029999  60.4119987  57.6640015  17.9920006  61.2420006  57.6160011
  18.0230007  59.8820000  58.2220001  74.7310028  58.1819992  44.3689995
  75.1729965  57.3359985  44.0940018  75.2890015  58.4350014  45.1559982
  10.5380001  39.6669998  61.2989998   9.9949999  39.0149994  60.7970009
  10.4460001  39.2949982  62.2200012   9.0100002  45.4580002  60.5400009
   8.9180002  44.4799995  60.6110001   8.3649998  45.6329994  59.8269997
   8.1879997  55.1440010  68.0660019   8.7040005  55.1529999  67.2310028
   8.2609997  56.0769997  68.3399963  12.3950005  62.6790009  44.5960007
  12.2159996  62.1220016  45.3489990  11.6300001  62.5130005  44.0060005
   7.3829999  57.3440018  56.5340004   6.8169999  56.5800018  56.3499985
   6.7630000  57.8559990  57.1110001  79.2760010  36.8559990  50.9160004
  79.9179993  36.9220009  51.6430016  79.5000000  36.0499992  50.4809990
   6.4800000  33.2820015  49.4860001   6.6389999  32.7560005  48.6930008
   6.2319999  34.1679993  49.1119995  16.6089993  67.9219971  68.4520035
  17.3479996  67.4049988  68.7740021  15.9680004  67.2730026  68.1740036
  60.7929993  29.5830002  -1.4690000  60.8110008  29.5930004  -0.4750000
  61.6520004  29.0620003  -1.6040000  44.0849991   0.7400000  56.5480003
  44.1360016   1.0960000  57.4280014  43.4900017  -0.0640000  56.7000008
  15.2930002  65.7509995  66.9899979  15.9750004  65.8099976  66.2590027
  14.6549997  66.3960037  66.7030029  42.2809982   0.9610000  60.2319984
  41.7560005   0.8300000  59.4039993  42.8919983   0.1360000  60.1040001
  33.8699989  67.6419983  51.5979996  34.6220016  67.2990036  51.0649986
  34.1980019  67.3600006  52.4850006  20.5879993  71.2200012  63.3709984
  19.6289997  70.8840027  63.4059982  21.0109997  70.4810028  63.9099998
  64.8809967  28.4190006   9.4809999  65.2089996  28.0699997   8.5959997
  64.2180023  29.0219994   9.1800003  27.3080006  58.4199982  81.4599991
  26.3829994  58.6199989  81.2939987  27.3090000  58.4160004  82.4479980
  35.0190010   0.8470000  50.6500015  34.6069984   0.7760000  49.7910004
  34.2410011   0.8330000  51.2579994  19.7999992  52.5970001  63.5800018
  20.5499992  52.1930008  63.9080009  20.0149994  52.7500000  62.6380005
  17.7070007  65.0569992  65.6490021  18.3490009  65.0820007  64.9120026
  18.2420006  64.8899994  66.4280014  17.4009991  51.2799988  64.5999985
  17.4589996  51.7669983  65.4100037  18.2199993  51.4970016  64.1269989
  42.7060013   4.9640002  49.8320007  43.1189995   5.4340000  49.0589981
  43.3510017   5.3530002  50.5279999  25.6630001  67.4879990  65.4049988
  26.4160004  67.9420013  65.7300034  24.8939991  68.0260010  65.7770004
  19.9400005  72.3919983  53.6759987  20.0240002  72.1149979  54.6250000
  18.9750004  72.1439972  53.5730019  23.4890003  62.4790001  56.6100006
  23.8129997  62.6940002  55.7449989  24.2560005  62.0289993  57.0219994
  17.9249992  -0.9680000  52.0070000  17.0599995  -1.2200000  52.3549995
  18.4099998  -0.7840000  52.8590012  16.1840000  54.3230019  68.0719986
  15.9980001  55.2680016  68.3349991  15.2489996  54.0250015  67.8300018
  23.6480007  66.4649963  68.4120026  23.6790009  65.8399963  67.6050034
  24.2520008  65.9430008  68.9789963  24.4200001  62.9459991  73.6409988
  25.0370007  62.2109985  73.5299988  25.0389996  63.6850014  73.3820038
  64.3710022  23.3719997   9.6940002  65.0950012  23.6490002   9.1669998
  63.8359985  24.1930008   9.6960001  23.6369991  69.8619995  50.6419983
  23.9720001  69.9580002  49.7550011  22.9260006  70.4329987  50.7120018
  24.5139999  66.0810013  58.6640015  23.9720001  66.0559998  59.5159988
  25.0349998  65.2330017  58.8019981  23.5909996  60.5550003  59.7949982
  23.9449997  59.6969986  60.1010017  24.1660004  60.6790009  59.0110016
  63.2280006  29.7530003   4.6690001  64.0709991  30.1429996   4.9800000
  62.8059998  29.6030006   5.5710001  15.9099998  71.0309982  48.1090012
  16.2800007  71.6200027  47.4360008  15.0330000  70.8539963  47.8510017
  23.9510002  60.9480019  62.6459999  23.7150002  61.3600006  61.7519989
  23.2299995  60.3089981  62.6150017  15.4320002  59.8820000  56.0769997
  16.1840000  60.0289993  56.6780014  14.8909998  60.7190018  56.2050018
  21.5359993  58.5629997  60.1269989  21.2080002  58.9370003  60.9749985
  22.2740002  59.1380005  59.9430008  17.9109993  65.8980026  69.7779999
  17.3610001  65.3369980  70.3629990  18.3610001  65.1510010  69.2180023
  22.1359997  60.2989998  72.3069992  22.7520008  60.0239983  72.9609985
  22.1359997  59.5629997  71.6959991   8.9209995  63.5830002  63.2799988
   9.6809998  63.2060013  63.7709999   8.2950001  62.8660011  63.3160019
  14.8889999  52.6230011  64.1100006  14.5319996  51.7570000  64.4120026
  15.8319998  52.3699989  64.0429993  41.4020004   2.8369999  48.5000000
  41.5180016   3.7460001  48.8839989  42.2080002   2.3929999  48.9230003
  28.4209995  56.7890015  70.1539993  28.8320007  57.5079994  70.7340012
  29.1289997  56.8540001  69.4499969  28.5510006  68.4570007  66.3170013
  29.4150009  68.9759979  66.6309967  27.9300003  68.9110031  67.0309982
  63.2309990  27.4400005   3.1320000  63.1809998  28.1429996   3.8299999
  63.6809998  27.9669991   2.4410000  71.3259964  34.7060013  10.3170004
  72.0459976  34.8590012   9.6339998  71.3209991  35.5810013  10.7220001
  23.5349998  63.5099983  76.1460037  23.6159992  62.5970001  76.5029984
  23.5540009  63.3180008  75.2109985  25.3519993  51.3820000  61.5789986
  26.0030003  52.1329994  61.6609993  24.6949997  51.6180000  62.3139992
  63.0159988  34.4029999   2.8729999  63.2319984  33.5149994   2.5769999
  63.6290016  34.9529991   2.3260000  16.8160000  61.9990005  49.9259987
  16.7520008  61.7910004  50.9049988  16.4680004  61.1310005  49.6010017
   5.3210001  64.6760025  57.9129982   4.4289999  64.6050034  57.5349998
   5.5900002  65.5009995  57.5159988  21.4729996  66.6060028  56.4860001
  22.3579998  66.9629974  56.8429985  21.8460007  65.9769974  55.8380013
  30.8509998  59.8950005  64.8820038  31.2199993  60.4430008  64.1610031
  30.4890003  60.5569992  65.4769974   5.9060001  62.7529984  60.5509987
   5.7430000  63.6290016  60.9780006   5.4330001  62.1699982  61.2120018
   6.1630001  50.8849983  65.7949982   6.6190000  51.5870018  66.2580032
   5.2810001  51.2400017  65.5690002  21.7880001  74.1119995  59.1100006
  22.7409992  74.1940002  59.2169991  21.6840000  73.2340012  59.5279999
  26.5000000  74.2360001  55.2280006  26.9559994  73.8330002  54.4630013
  27.0149994  75.1029968  55.2000008  24.4979992  68.5390015  60.1180000
  24.8999996  67.7119980  59.7840004  24.6760006  69.1490021  59.3580017
  14.9879999  57.0029984  65.0520020  15.7819996  56.4280014  65.3000031
  15.4589996  57.7919998  64.6640015  30.1359997  70.5889969  70.8140030
  29.7509995  71.0989990  71.5410004  30.1690006  71.2740021  70.1240005
  19.5090008  66.1279984  60.8149986  20.2189999  66.7129974  61.1990013
  18.7070007  66.6510010  61.0960007  11.0120001  66.6419983  65.8489990
  11.9969997  66.7929993  65.7659988  10.7570000  66.3280029  65.0090027
  62.2500000  22.9239998  12.7200003  61.7159996  22.6919994  13.4899998
  61.6119995  23.0209999  12.0299997  20.7110004  65.7630005  64.6579971
  21.3929996  65.0849991  64.6880035  20.9839993  66.3919983  65.3539963
  24.8250008  58.3810005  60.8110008  25.5030003  57.8390007  60.3339996
  24.7409992  57.8689995  61.6489983  66.3359985  30.0909996  12.5400000
  66.7490005  30.0930004  13.4619999  66.5609970  31.0450001  12.3439999
  35.0180016   2.8629999  61.6080017  34.5929985   3.2950001  60.8390007
  34.9570007   1.9299999  61.3580017  11.3959999  61.4840012  62.1440010
  11.3090000  61.9729996  62.9869995  11.4219999  62.1889992  61.4930000
  10.7379999  53.9339981  67.0770035  10.4270000  54.4609985  66.3339996
  11.6809998  53.9059982  66.8610001   4.1220002  55.0330009  65.2710037
   4.2729998  54.8720016  66.2490005   4.4590001  55.9510002  65.2109985
  16.5389996  66.7360001  57.7739983  17.4430008  66.4509964  57.6679993
  16.6560001  67.6859970  57.8709984  25.7089996  67.7669983  71.2149963
  25.9300003  67.0719986  70.6080017  25.5219994  67.3209991  72.0670013
  56.1599998  21.5380001  -0.9460000  55.7970009  20.9489994  -0.2410000
  56.4879990  22.2940006  -0.4350000  62.5559998  22.3010006   7.1659999
  63.2910004  22.7959995   6.6300001  63.1020012  21.8379993   7.8130002
  19.7000008  70.1900024  67.7890015  20.1049995  69.3960037  68.2799988
  19.3020000  70.6289978  68.5879974  15.0620003  52.8779984  56.7470016
  14.2760000  53.3930016  56.5929985  14.8409996  52.4280014  57.6119995
  29.3640003  74.2760010  45.3289986  30.2220001  73.9319992  45.7459984
  28.8820000  73.3720016  45.3689995  21.6429996  72.1539993  66.8740005
  20.9150009  71.4970016  66.9260025  21.3719997  72.7050018  67.6399994
   8.2889996  27.9640007  13.0629997   9.1250000  27.5569992  12.7729998
   7.8460002  28.1310005  12.2290001  66.7570038  33.8240013   9.7349997
  66.4069977  34.6780014  10.0780001  67.5400009  34.1640015   9.2089996
  56.6080017  24.9139996  -0.4920000  55.9510002  24.9279995   0.2350000
  57.2080002  25.6630001  -0.2180000  57.6049995  24.4249992   3.6989999
  56.9729996  23.8080006   3.1880000  57.1539993  24.2910004   4.5920000
  23.1040001  53.1559982  63.0499992  23.0529995  53.4609985  63.9370003
  22.8139992  53.9140015  62.5019989  19.8560009  47.1739998  65.8079987
  19.1159992  47.1110001  65.1910019  19.6679993  46.5480003  66.4729996
  14.3479996  65.3300018  58.9309998  15.0100002  65.5739975  58.2410011
  14.8979998  65.5839996  59.7379990  63.1489983  30.8600006   8.9849997
  62.4819984  31.0410004   9.6770000  63.7249985  31.6439991   9.0769997
  31.5070000  61.8499985  54.4029999  31.9559994  61.6440010  55.2540016
  30.6270008  62.0589981  54.7529984  37.4099998  -2.9590001  47.9179993
  36.9570007  -3.8380001  48.0970001  38.2430000  -3.0739999  48.4819984
  75.5189972  31.5499992  16.0049992  75.4980011  31.4680004  15.0570002
  76.2369995  30.9680004  16.2819996  11.9309998  60.0699997  55.1790009
  12.2580004  59.1450005  55.3250008  12.6470003  60.5730019  55.6269989
  29.6849995  62.3440018  66.0220032  29.3129997  62.9860001  65.3050003
  29.3010006  62.7639999  66.8089981  73.2740021  25.9290009  10.2720003
  73.2870026  25.0009995   9.9680004  73.9960022  26.3099995   9.7290001
  21.6550007  63.8429985  57.9469986  21.3920002  64.7149963  57.7060013
  22.3349991  63.5760002  57.2709999   9.6739998  64.2890015  56.8470001
   9.7110004  63.4319992  57.2700005  10.4670000  64.7300034  57.1529999
  15.7749996  64.2809982  63.8330002  16.4909992  64.1579971  64.5059967
  16.2320004  64.8410034  63.1679993  12.5400000  48.8349991  49.2540016
  12.2959995  48.8750000  48.3460007  11.7349997  48.4860001  49.7159996
  55.0519981  28.8659992  -0.3230000  55.4339981  29.6779995  -0.7510000
  55.1220016  28.2229996  -1.0310000  17.3279991  55.8889999  65.7750015
  17.3400002  55.1570015  66.4349976  18.2089996  55.7900009  65.3590012
  13.5500002  59.3069992  58.7459984  13.3529997  60.2789993  58.8149986
  14.2900000  59.2980003  58.1240005  23.6879997  65.9369965  51.3190002
  23.0730000  66.5830002  51.6660004  24.5130005  66.5410004  51.1749992
  28.1809998  62.0050011  71.1490021  27.8910007  61.6080017  70.3089981
  27.8950005  62.9179993  71.1149979  11.7040005  64.6129990  52.5029984
  11.6789999  63.6409988  52.4150009  12.3710003  64.7910004  51.7529984
   2.1730001  34.9000015  18.8540001   2.3160000  34.5530014  17.9330006
   1.3480000  35.4179993  18.7320004  24.3369999  65.7890015  63.7280006
  24.9529991  66.5619965  63.8849983  24.4179993  65.6979980  62.7490005
  28.7870007  64.1350021  64.3970032  27.9780006  63.7350006  64.7699966
  28.6539993  65.0940018  64.6149979  26.7579994  66.0029984  62.3359985
  26.5949993  65.0960007  62.6049995  27.2479992  66.3809967  63.0719986
  25.8290005  70.4270020  58.5589981  25.8439999  70.9459991  57.7630005
  25.6800003  71.1419983  59.2340012  10.6610003  48.3300018  57.5999985
   9.8339996  48.8370018  57.4599991  10.7150002  48.3390007  58.5839996
  20.3859997  62.2350006  65.7480011  21.2959995  61.8300018  65.8479996
  20.4179993  62.4440002  64.7770004  21.7350006  70.1790009  71.8160019
  21.9650002  71.0920029  71.6080017  22.3110008  69.6839981  71.1940002
  33.0169983  74.5130005  60.8549995  32.9630013  74.4130020  61.8520012
  32.8240013  75.4649963  60.7970009  23.2210007  73.9010010  69.0459976
  23.5900002  74.7969971  69.0830002  22.3640003  74.0589981  68.5920029
  27.8530006  76.1579971  70.9879990  27.9689999  76.5009995  71.9300003
  26.8829994  76.3909988  70.8690033  23.5720005  72.0179977  54.0439987
  24.0419998  72.0830002  53.1920013  23.4340000  71.0999985  54.1549988
  28.8080006  73.5609970  56.7879982  29.3770008  72.8040009  57.0250015
  29.4330006  74.2929993  56.7540016  21.9309998  70.5439987  58.0190010
  22.8509998  70.5510025  57.8149986  21.8069992  69.7440033  58.5390015
   6.1059999  43.5890007   6.6830001   6.8569999  43.3660011   6.0760002
   5.4349999  42.9700012   6.3779998  48.8829994   0.8280000  62.7120018
  49.2200012   0.9050000  61.7700005  48.1199989   0.2000000  62.5349998
  29.4880009  67.0230026  53.8429985  28.5760002  67.2220001  53.5040016
  29.3169994  66.8690033  54.7610016  73.9110031  28.7409992  13.3730001
  73.3700027  28.3209991  12.6630001  74.7580032  28.3759995  13.1529999
  25.7140007  69.3600006  62.3110008  25.2220001  69.1549988  61.4850006
  25.1210003  70.0390015  62.6899986  30.1070004  73.5250015  65.0920029
  30.7250004  74.0189972  65.7030029  29.4300003  73.2129974  65.7320023
  28.7590008  66.8059998  64.3939972  29.3719997  67.2549973  63.8100014
  28.6469994  67.4970016  65.1520004  30.0839996  75.9749985  53.2770004
  30.3160000  76.9449997  53.1930008  29.1450005  76.0589981  53.5379982
  27.3810005  62.8950005  57.0489998  27.2129993  63.8349991  57.0340004
  27.8719997  62.7330017  57.8740005  56.6360016   5.8959999  63.3380013
  56.1800003   5.6609998  62.5449982  56.7509995   6.8920002  63.2500000
  60.3689995   8.5760002  64.9309998  60.8129997   7.7240000  64.6920013
  60.3810005   9.0150003  64.0810013  21.9799995  68.6569977  59.8720016
  21.4699993  68.5869980  60.6030006  22.9309998  68.6669998  60.2130013
  36.5260010  72.7480011  58.6059990  36.5750008  73.6100006  58.2270012
  36.4189987  72.9359970  59.5600014   0.8250000  11.1770000  44.5940018
  -0.1100000  11.0780001  44.2080002   0.8180000  10.4239998  45.1819992
   1.9640000  22.4410000  52.2970009   2.0420001  21.6369991  51.7639999
   2.3110001  23.1359997  51.6590004  25.7479992  13.6260004  22.9759998
  26.6770000  13.4680004  23.3810005  25.5179996  14.4029999  23.5149994
  73.1070023  14.3380003  44.3250008  72.2990036  13.9280005  44.7369995
  73.7500000  13.6309996  44.4819984  12.6140003  28.3439999  47.2840004
  12.2510004  28.2119999  46.3670006  12.9890003  27.4880009  47.4710007
   1.0200000  11.6680002  55.1259995   1.7440000  12.2799997  54.8759995
   0.6360000  12.0220003  55.9199982   5.4120002  21.1599998  49.3530006
   5.0240002  21.0079994  48.4339981   4.7020001  20.8279991  49.9160004
   7.3010001  18.1219997  48.1839981   7.6050000  17.2999992  47.8050003
   7.1380000  18.6369991  47.3769989   5.4930000  16.8810005  54.3209991
   5.4629998  17.5820007  55.0190010   4.5460000  16.8390007  54.1110001
   0.1430000  16.8110008  41.4780006   0.1670000  17.4500008  40.7570000
   0.3440000  15.9709997  41.0429993   1.9390000  20.2450008  45.1899986
   2.2960000  20.3180008  46.0779991   1.2750000  19.5000000  45.3470001
   5.7220001  20.7660007  57.9830017   5.6659999  21.7369995  57.8190002
   5.1520000  20.6450005  58.8110008  15.8640003  13.0830002  50.3660011
  15.9040003  13.7110004  51.0750008  16.6509991  12.5500002  50.6150017
   1.2270000  26.4799995  49.6419983   0.8560000  25.5830002  49.7890015
   1.2990000  26.3680000  48.6259995  14.1300001  24.1480007  59.9539986
  14.2950001  23.6110001  60.7719994  13.6549997  23.5149994  59.4399986
  73.3710022  17.3549995  46.1100006  73.3649979  17.8869991  45.2439995
  74.1480026  16.8020000  45.9510002  15.6269999  24.7119999  54.1069984
  15.6120005  24.8260002  53.1399994  15.2749996  25.6329994  54.3390007
  15.1110001  22.0370007  41.0950012  15.9930000  21.6229992  41.1259995
  15.3369999  22.9340000  40.8370018   3.9349999  26.9279995  62.2200012
   3.6280000  26.0330009  62.4749985   3.8060000  26.8430004  61.2719994
  75.1360016  33.3750000  59.1660004  74.9479980  34.2820015  59.0620003
  74.3000031  33.0789986  59.5960007  72.9150009  32.0999985  63.1769981
  73.8410034  31.7980003  63.5130005  72.5289993  32.1170006  64.1709976
  11.0810003  33.8370018  48.4259987  11.7170000  33.9900017  47.6739998
  10.2449999  33.8440018  47.8160019   8.6940002  27.5629997  58.9140015
   8.0450001  28.2390003  59.0870018   8.9200001  27.8509998  57.9910011
   7.7199998  36.2550011  46.3510017   7.0710001  35.8580017  45.7150002
   8.3319998  35.4480019  46.3759995   9.1070004  23.5400009  33.7579994
   9.6940002  24.0799999  33.1739998   8.7600002  24.2479992  34.3149986
   2.9630001  33.9889984  44.8800011   2.3940001  33.2200012  44.7360001
   2.7620001  34.2280006  45.8440018   7.6329999  23.3169994  46.0870018
   7.8649998  22.9360008  46.9560013   8.4420004  23.8700008  45.9370003
  21.5289993  28.9780006  43.8540001  22.2199993  29.0639992  43.1640015
  20.7180004  29.0599995  43.2900009   5.9629998  30.3799992  41.2750015
   5.4930000  30.9810009  41.8940010   5.8360000  30.9190006  40.4339981
   2.1280000  25.0450001  54.9819984   2.2639999  25.6420002  55.7739983
   1.3180000  24.5289993  55.3230019  14.3079996  20.8799992  46.6430016
  13.4969997  20.3409996  46.7060013  14.6120005  20.7900009  47.5499992
  77.2500000  36.8779984  47.2330017  76.3320007  36.8759995  46.8670006
  77.0690002  37.4500008  48.0209999  20.8659992  23.5620003  54.8689995
  20.5349998  23.2570000  55.7750015  20.8500004  22.6560001  54.4430008
   5.7179999  35.7000008  48.4799995   5.3239999  36.6100006  48.5600014
   6.4819999  35.9220009  47.8219986   3.5160000  33.4440002  50.5499992
   4.0120001  34.1389999  50.0509987   3.1159999  33.9949989  51.2470016
  79.1090012  49.9640007  47.1230011  78.4700012  49.2459984  47.5009995
  78.3870010  50.3889999  46.5750008   4.3730001  30.6840000  64.5199966
   4.0770001  31.6000004  64.6309967   4.4710002  30.3540001  65.4209976
  79.2160034  38.2120018  55.3580017  78.3759995  37.6759987  55.2089996
  79.4029999  37.8549995  56.2709999  17.1240005  32.1430016  44.6949997
  17.0709991  31.3610001  44.0639992  17.7420006  32.7400017  44.1910019
  62.4850006  38.3160019  61.4669991  61.5200005  38.1640015  61.3759995
  62.4879990  39.2840004  61.5989990  13.8820000  44.1119995  61.7840004
  14.3830004  43.8499985  60.9809990  13.4469995  43.2130013  61.9129982
   4.1479998  38.0079994  64.8730011   3.9159999  37.6720009  65.7720032
   4.9949999  38.4630013  65.0849991  11.6129999  29.4080009  56.3610001
  12.5979996  29.3180008  56.4599991  11.5780001  30.3220005  56.0480003
   9.2270002  34.0569992  46.5569992   9.8439999  34.0340004  45.7750015
   8.8420000  33.1590004  46.5429993   5.8800001  35.0779991  53.7589989
   6.3280001  34.2610016  53.9039993   5.3179998  35.1040001  54.5779991
   8.0380001  36.4749985  58.3829994   8.3160000  35.8800011  57.6990013
   8.1289997  37.3330002  57.8479996   4.7630000  23.3969994  46.7039986
   4.4540000  24.1110001  47.3100014   5.7290001  23.5949993  46.6850014
   9.8409996  39.5810013  43.5569992   9.0089998  40.0970001  43.6100006
   9.8640003  39.0760002  44.3720016   3.6070001  31.3099995  48.8050003
   3.8310001  32.0760002  49.4080009   2.6550000  31.4799995  48.6669998
   7.2519999  32.5719986  54.1129990   6.6160002  31.8360004  54.2550011
   7.9889998  32.0900002  53.7659988  68.2890015  37.9059982  66.2819977
  69.0309982  37.7099991  66.8899994  67.5540009  38.0919991  66.8899994
  12.9259996  41.4850006  56.6870003  13.6120005  41.5419998  55.9790001
  12.8380003  42.4449997  56.9370003   7.6129999  47.6240005  41.1469994
   8.5670004  47.2379990  41.2589989   7.1490002  46.7589989  41.3619995
  33.7659988  66.6169968   5.5749998  34.0250015  67.1969986   4.7859998
  34.4280014  66.8519974   6.2240000   9.6140003  32.8590012  62.3009987
   8.8540001  32.5489998  61.7239990   9.3389997  32.4410019  63.1339989
  72.5569992  46.4099998  52.8650017  73.4260025  46.0719986  52.5979996
  71.9570007  45.6459999  52.5970001  71.4459991  45.4580002  65.9049988
  71.8499985  44.7639999  65.3489990  71.0630035  45.9739990  65.1669998
   8.5920000  20.8250008  57.0699997   7.6450000  20.7240009  57.1980019
   8.6780005  21.7889996  57.0740013   2.2700000  33.0209999  32.3680000
   3.1860001  32.9309998  32.2809982   2.1600001  33.0589981  33.3639984
  11.9169998  36.9220009  51.7620010  11.2740002  37.5810013  51.5110016
  11.4069996  36.1160011  51.4959984  12.5730000  19.4230003  47.9210014
  12.3599997  20.1749992  48.4370003  12.3380003  18.6830006  48.5419998
  14.5609999  24.2210007  44.0559998  14.5900002  25.0319996  43.4700012
  13.5900002  24.1599998  44.1790009  21.4349995  25.4699993  39.5690002
  20.5569992  25.8220005  39.8339996  21.2339993  24.8600006  38.8209991
  11.3620005  30.7970009  40.6660004  10.3690004  30.6100006  40.5680008
  11.4969997  31.1219997  39.7319984   7.4250002  43.2919998  38.6539993
   7.9359999  42.4570007  38.4770012   6.5409999  42.9729996  38.8339996
  15.9779997  37.3079987  52.2249985  16.8509998  37.6949997  52.5760002
  16.1000004  36.3860016  52.4939995   5.6160002  32.4389992  56.9920006
   6.2700000  32.6320000  57.7089996   6.2870002  32.0040016  56.3380013
  79.3669968  19.4090004  47.4539986  79.2519989  18.9920006  46.5460014
  80.2419968  18.9319992  47.6380005   9.2110004  38.7220001  40.2999992
   9.6789999  39.5750008  40.3170013  10.0229998  38.1809998  40.6450005
   5.2290001  30.8719997  38.5870018   4.9889998  31.8279991  38.3790016
   5.5939999  30.5900002  37.6619987  79.3759995  32.5169983  62.9230003
  79.9980011  33.0050011  62.3180008  78.9349976  33.2540016  63.4049988
  76.6979980  31.6389999  47.4350014  75.7509995  31.7819996  47.5750008
  77.0309982  31.5939999  48.3370018  75.2180023  27.5400009  40.6329994
  75.2929993  26.6070004  40.7270012  74.8089981  27.5639992  39.7369995
   8.9119997  38.8499985  46.2980003   8.4870005  39.1879997  47.0909996
   8.5439997  37.9189987  46.2560005  11.6479998  25.3430004  50.2949982
  10.7349997  25.1070004  50.0680008  11.5909996  25.4120007  51.2299995
  15.1409998  43.0610008  50.1049995  14.5220003  42.9309998  50.8450012
  14.6379995  42.6069984  49.4290009  76.5479965  19.4650002  41.4269981
  76.8059998  19.2369995  40.4449997  76.1780014  18.5370007  41.6129990
   2.3139999  28.8560009  50.1959991   2.0450001  29.2490005  49.3489990
   1.8279999  27.9880009  50.1360016   5.1770000  28.9190006  33.2159996
   4.9470000  28.0119991  33.4920006   4.7470002  29.4200001  33.9399986
  71.1309967  36.9410019  57.0130005  71.5100021  36.2029991  56.5340004
  70.1940002  36.8240013  56.8240013   8.9010000  19.1490002  54.9249992
   9.1400003  19.7700005  55.6430016   8.0120001  18.8899994  55.1300011
  19.2660007  29.0380001  50.8180008  18.6340008  28.3780003  51.1349983
  18.6809998  29.8120003  50.7690010  17.0349998  33.8139992  52.3479996
  16.7660007  32.9220009  52.7029991  16.1809998  34.0439987  51.8959999
  11.2550001  37.1160011  41.4949989  11.8879995  37.6230011  42.0779991
  10.7259998  36.6259995  42.1329994   7.6230001  41.8880005  49.6920013
   7.1430001  42.3540001  50.4269981   8.4379997  42.4739990  49.6450005
  70.0429993  23.9750004  47.7029991  69.2020035  23.8680000  47.2050018
  70.6679993  24.0690002  46.9570007  76.3000031  36.1549988  62.3199997
  75.6890030  36.6780014  61.7680016  75.6940002  35.6599998  62.8460007
  18.8320007  34.0330009  63.0919991  18.0289993  34.6100006  63.1910019
  18.8640003  33.9379997  62.1040001   1.8460000  37.7350006  57.7039986
   2.7750001  37.4749985  57.9249992   1.3130000  37.3190002  58.4469986
   4.7420001  36.3660011  41.1679993   4.3820000  36.3069992  40.2799988
   3.9489999  36.1500015  41.7249985  14.8599997  47.6980019  50.0000000
  14.1049995  48.3079987  50.0890007  14.4350004  46.9249992  49.6160011
  12.6780005  31.0569992  25.5160007  12.3769999  31.2609997  24.6329994
  13.2799997  31.7740002  25.7310009   7.8230000  33.6170006  65.1760025
   7.7119999  32.6609993  65.3339996   7.1030002  33.9970016  65.6620026
   3.4460001  50.7099991  49.2910004   3.9909999  50.8089981  48.4500008
   2.7430000  50.2010002  48.8139992   3.1489999  34.9560013  52.6500015
   2.4809999  35.6030006  52.9749985   3.9890001  35.3820000  52.9360008
   7.6190000  51.3750000  60.4500008   8.1350002  50.5649986  60.7190018
   7.5139999  51.6990013  61.3699989  13.9329996  41.1920013  29.0079994
  13.9130001  41.7070007  28.1860008  13.3800001  40.3779984  28.6660004
  78.0240021  26.7779999  54.0820007  77.3779984  27.1259995  53.3950005
  78.7139969  26.4300003  53.4519997  20.6910000  36.9119987  51.6389999
  20.0730000  36.2890015  51.2849998  21.0330009  36.3689995  52.4329987
   2.9150000  46.0260010  53.0029984   2.4930000  46.5400009  52.2750015
   3.7750001  46.4830017  53.1020012  12.4440002  40.1749992  50.7809982
  11.6079998  39.7630005  50.5349998  12.7189999  40.6250000  49.9830017
  10.4049997  34.7639999  51.0699997  10.6920004  34.5579987  50.1940002
   9.4139996  34.7430000  50.9000015  11.1980000  26.4510002  37.6069984
  11.8859997  27.1730003  37.7000008  10.4659996  26.9829998  37.1959991
  15.6619997  37.2770004  45.2540016  16.0300007  36.6580009  44.5989990
  14.7279997  37.0369987  45.1780014  11.1580000  23.1900005  56.2519989
  11.2659998  24.1949997  56.1329994  10.1800003  23.1790009  56.4560013
  13.5190001  29.5650005  53.0509987  12.6829996  29.9300003  53.3740005
  13.2100000  29.0750008  52.2610016   8.0059996  44.5750008  44.1790009
   8.3219995  44.0719986  44.9410019   7.7080002  43.8849983  43.5849991
   7.9829998  42.4850006  46.7980003   7.0159998  42.2470016  46.9399986
   8.3350000  42.6590004  47.6450005  27.1900005  61.9700012   3.9730000
  26.6879997  61.3969994   3.3460000  28.0419998  62.0779991   3.5060000
   6.0819998  56.9840012  60.3899994   6.0279999  57.0120010  59.3849983
   5.1580000  57.3120003  60.6010017  16.1930008  32.3959999  57.5979996
  15.3020000  32.0550003  57.8310013  16.2910004  32.1650009  56.6689987
   9.6490002  43.2869987  54.7869987   8.7290001  42.9749985  54.8709984
   9.6630001  43.7709999  55.6570015  73.2350006  47.7299995  66.8750000
  72.6539993  46.9420013  66.7229996  73.9420013  47.2739983  67.3720016
  36.7589989  69.1210022   7.2309999  37.1459999  69.1460037   8.1440001
  37.1090012  68.2900009   6.8750000  14.0100002  46.3450012  59.3899994
  14.7659998  46.5320015  58.7980003  14.1580000  45.5169983  59.7729988
  14.0459995  41.7299995  43.1129990  14.3490000  42.3050003  42.4119987
  14.6780005  40.9920006  43.0680008   0.8870000  26.0799999  53.0050011
   1.4980000  26.3339996  52.3139992   1.5080000  25.5949993  53.6440010
  79.0979996  22.7910004  53.7480011  78.8509979  22.0799999  53.0719986
  80.0780029  22.7089996  53.5029984   7.4330001  33.0000000  39.7980003
   7.7240000  33.9440002  39.6170006   6.6539998  32.9609985  39.1769981
   0.0760000  33.2989998  55.0239983   0.6490000  32.8289986  55.6829987
   0.4470000  34.2130013  55.2330017   3.2370000  35.2900009  47.5579987
   3.9670000  35.3720016  48.2159996   2.4979999  35.7309990  47.9990005
  26.8680000  59.5340004   0.3750000  27.1399994  60.2080002  -0.2560000
  26.4279995  58.9020004  -0.1970000   5.5760002  32.2389984  44.4790001
   5.4159999  32.8499985  45.2490005   5.4660001  32.9000015  43.7570000
  77.2689972  31.4720001  50.1920013  76.8369980  30.6369991  50.3289986
  77.5130005  31.6879997  51.1300011  76.3450012  26.9419994  52.2490005
  76.5559998  27.0279999  51.2649994  75.4250031  27.2900009  52.2709999
  11.8100004  44.2509995  47.8279991  12.4160004  45.0120010  47.7159996
  11.1980000  44.4539986  47.0540009   6.3680000  24.7530003  37.2680016
   5.7620001  24.0900002  37.6679993   6.6719999  24.2119999  36.4900017
  10.6879997  37.6619987  31.2350006  10.5179996  37.0120010  31.9729996
  10.0769997  37.2439995  30.5389996   9.6630001  53.3759995  50.6189995
  10.5220003  53.6360016  50.9900017   9.2939997  54.2169991  50.3989983
   1.2480000  39.4589996  65.2330017   1.8420000  39.9790001  64.6419983
   1.8200001  39.5089989  66.0709991   8.4029999  24.3770008  63.5019989
   7.8969998  24.9540005  62.8829994   8.0279999  23.5179996  63.2949982
  22.3670006  33.5670013  65.5839996  22.9440002  33.4710007  64.8109970
  21.5240002  33.3339996  65.1009979  13.7309999  35.3199997  53.2130013
  14.0939999  34.9119987  52.3699989  12.8400002  35.5579987  52.8569984
   0.5440000  34.7960014  37.9179993   1.1560000  34.3899994  37.3919983
   0.2430000  34.0589981  38.4640007  19.8619995  35.0810013  59.5989990
  20.0860004  34.1500015  59.4199982  20.6189995  35.2070007  60.2360001
  30.8959999  59.8030014  -1.1059999  30.4699993  59.1450005  -1.7090000
  30.6940002  59.3979988  -0.1890000  15.2600002  36.7789993  56.6850014
  14.5290003  36.9860001  56.0480003  14.7969999  36.8919983  57.5340004
  19.2759991  27.9480000  35.1619987  18.5429993  27.9169998  35.7420006
  19.0890007  28.6320000  34.5120010  24.7469997  26.2929993  50.3279991
  24.5720005  25.6259995  49.6949997  24.1639996  26.0650005  51.0820007
  19.0440006  16.5230007  47.9070015  19.9669991  16.6650009  47.6069984
  18.4780006  17.0739994  47.2680016  11.1370001  17.8449993  53.7340012
  10.3570004  18.2830009  54.1339989  10.6149998  17.0389996  53.4179993
   7.3909998  38.2649994  33.5789986   6.5929999  38.6899986  33.1910019
   7.0570002  38.0219994  34.4720001   4.9710002  28.4360008  55.1170006
   3.9990001  28.4979992  55.1980019   5.0599999  29.2940006  54.5789986
  18.3330002  22.7360001  53.6409988  18.9050007  21.9689999  53.8380013
  17.4290009  22.3180008  53.7550011  10.8149996  26.2970009  61.8089981
  11.4399996  25.7269993  62.3730011  10.3680000  25.5489998  61.3870010
  13.0839996  36.9900017  36.5519981  12.5089998  36.8139992  37.3689995
  12.3990002  37.3310013  35.9389992   4.0799999  19.3850002  52.4160004
   4.4140000  18.8920002  51.6339989   3.2320001  18.9689999  52.6889992
  17.8230000  30.5259991  39.6360016  18.2819996  31.3670006  39.7280006
  18.3630009  29.9699993  40.1870003  13.0520000  44.0460014  57.2980003
  13.4770002  44.3349991  56.4119987  12.4340000  44.8019981  57.3730011
  11.7559996  23.2010002  46.7830009  11.2980003  22.4179993  47.1850014
  12.3350000  23.5070000  47.5260010  18.1140003  27.1200008  61.9339981
  17.6380005  27.7719994  61.4280014  18.4599991  26.4880009  61.2919998
  77.1880035  30.1620007  59.3129997  77.5100021  29.6840000  58.5390015
  77.7720032  30.9160004  59.3569984  78.7679977  37.4449997  41.2060013
  78.4960022  36.5779991  40.8230019  79.6510010  37.5620003  40.7589989
   8.8109999  17.9279995  45.7470016   8.0640001  17.6879997  45.1069984
   8.8950005  17.0070000  46.1459999   9.5959997  20.6410007  46.2630005
   9.0889997  20.9619999  47.0519981   9.3409996  19.7089996  46.3790016
   4.3810000  29.5779991  61.8699989   4.0440001  29.8990002  62.7410011
   4.2579999  28.6140003  61.9780006  78.5619965  22.2339993  47.8580017
  78.7009964  21.2689991  47.8870010  78.5439987  22.3840008  48.8790016
  21.2240009  36.9930000  38.7509995  20.4400005  36.5929985  39.2290001
  20.9459991  36.7830009  37.8349991  14.7049999  33.3009987  45.5680008
  14.3199997  33.3940010  44.6180000  15.6059999  32.9729996  45.3880005
  10.4429998  17.9580002  58.6930008   9.7830000  18.0410004  59.4210014
   9.9130001  17.5079994  58.0480003   3.8590000  25.8780003  48.2159996
   2.9809999  26.0540009  47.7840004   3.5420001  25.4839993  49.0950012
  17.6940002  32.7330017  32.5159988  17.8209991  32.2739983  31.6359997
  18.3999996  33.4039993  32.3899994  14.6610003  40.2260017  62.1290016
  14.9680004  40.5470009  63.0349998  14.5100002  39.3129997  62.4329987
  13.7639999  33.4339981  43.0709991  13.8439999  32.5219994  42.8479996
  13.1850004  33.8419991  42.4010010  17.6450005  31.7800007  47.5209999
  17.3710003  31.6860008  46.5550003  16.9969997  32.4720001  47.8079987
  18.9360008  26.2299995  40.2999992  18.2089996  25.6590004  40.6730003
  18.5149994  26.3619995  39.4169998  22.4379997  39.3149986  53.5009995
  21.8299999  38.6769981  53.7809982  23.2779999  38.8330002  53.6189995
  14.4230003  43.8870010  41.3959999  14.8389997  44.7739983  41.6150017
  14.6549997  43.8089981  40.4630013   3.0760000  29.8369999  39.6990013
   3.8770001  30.2210007  39.3199997   3.2500000  29.6730003  40.6459999
  13.2770004  30.9549999  66.7720032  12.2969999  31.0680008  66.8069992
  13.3430004  30.0550003  67.1149979   1.6130000  20.9869995  40.3829994
   2.2400000  20.2180004  40.1949997   0.9200000  20.7159996  39.7519989
  79.6579971  29.1660004  47.7270012  79.6809998  29.4449997  46.7980003
  79.0220032  28.4619999  47.7070007   5.6020002  27.9909992  48.1689987
   4.9050002  27.2709999  48.1790009   6.2560000  27.5259991  48.7919998
   4.7129998  60.0390015  47.6749992   5.1580000  60.3629990  48.4280014
   4.9099998  60.6879997  46.9599991  14.1470003  50.5719986  66.1849976
  14.8430004  50.0099983  65.8440018  14.3750000  50.5089989  67.1729965
   0.1290000  50.0130005  59.6450005   0.7730000  50.7900009  59.6949997
   0.7210000  49.2779999  59.9000015  19.9599991  53.9459991  45.7369995
  19.5389996  53.3919983  45.0200005  20.7369995  54.3909988  45.3310013
   7.5609999  47.5309982  51.7169991   7.5440001  48.2799988  51.0830002
   7.8420000  46.7779999  51.1710014  11.3339996  66.6890030  44.7330017
  11.7279997  65.9110031  45.2060013  11.5839996  66.3799973  43.8139992
  15.7250004  56.6510010  51.9210014  16.2110004  56.8260002  52.7529984
  14.9589996  57.1730003  52.0060005   8.5430002  52.8660011  39.5649986
   8.5570002  52.1139984  40.2540016   9.5070000  53.1170006  39.7330017
  14.8350000  59.4869995  42.4010010  14.7659998  58.6030006  42.8540001
  14.8780003  60.0169983  43.2319984   4.2900000  42.5810013  48.3880005
   4.6020002  43.4199982  48.7869987   3.5739999  42.9339981  47.7849998
   9.7550001  52.2649994  43.3129997  10.1370001  53.1059990  42.9539986
   8.8120003  52.4210014  43.0839996  15.7329998  52.5820007  51.5379982
  16.2520008  53.4059982  51.7089996  16.3649998  52.1669998  50.8969994
   8.3789997  39.6150017  53.3750000   9.0939999  39.7480011  53.9539986
   8.1429996  38.6839981  53.5040016   7.9530001  46.5779991  58.2529984
   8.2250004  47.4389992  57.7989998   6.9940000  46.5639992  57.9459991
   2.1889999  59.8740005  53.7019997   1.8740000  60.7190018  53.3919983
   2.0350001  60.0320015  54.6920013  19.2840004  32.8880005  53.8569984
  18.5690002  33.1949997  54.4519997  18.9449997  33.0120010  52.9449997
   6.5500002  58.6660004  51.5610008   6.3690000  59.5839996  51.5470009
   6.6820002  58.5489998  52.5589981  14.4759998  61.3170013  63.3930016
  15.2250004  60.9039993  63.9290009  14.0260000  61.7820015  64.1210022
  19.4480000  26.1079998  55.9210014  20.4009991  26.1580009  55.6899986
  19.0779991  25.6669998  55.1380005   8.7399998  52.0750008  47.3919983
   8.7290001  51.9029999  48.3610001   7.7579999  52.1520004  47.2779999
   6.2459998  44.9879990  53.8370018   5.8429999  45.8460007  53.9850006
   6.3810000  44.6619987  54.7989998  12.6120005  41.9819984  45.3839989
  13.1890001  41.8089981  44.6150017  12.2570000  41.0540009  45.5320015
  15.6330004  49.1320000  58.7719994  15.0410004  49.5439987  59.4529991
  15.0740004  49.1609993  57.9959984  17.4610004  46.0810013  54.9280014
  18.0289993  45.4039993  54.5709991  16.9260006  46.3149986  54.1720009
  15.5920000  49.7910004  48.4430008  14.7740002  50.0540009  48.0579987
  15.3059998  49.2220001  49.1800003   9.2370005  56.1759987  50.2770004
   9.1529999  57.1380005  50.3950005  10.0790005  56.1320000  49.7849998
  12.8339996  37.5200005  47.5050011  13.5000000  37.2700005  48.1839981
  12.5690002  36.6940002  47.1539993   0.5700000  51.9129982  42.3720016
   0.3300000  50.9980011  42.0839996   1.4890000  51.7550011  42.6539993
  50.3730011  65.9879990  10.8559999  50.2579994  66.0910034   9.9160004
  51.0769997  66.6449966  11.0279999   8.4940004  64.1760025  60.6720009
   8.4930000  64.0859985  61.6609993   7.6320000  63.7589989  60.4379997
  11.6420002  61.9809990  52.5610008  11.3479996  61.5019989  53.3030014
  11.0869999  61.6399994  51.8479996  17.3570004  38.9760017  57.5740013
  16.7689991  39.2620010  58.2770004  17.4669991  38.0419998  57.8320007
   6.1589999  49.2999992  67.9059982   6.0960002  49.5839996  66.9469986
   5.4470000  49.8790016  68.2839966  13.0520000  54.3180008  69.6490021
  12.9619999  54.3549995  68.6819992  12.8730001  53.4239998  69.8649979
   1.5890000  59.9099998  56.5530014   2.1159999  59.4630013  57.2239990
   0.7350000  59.4210014  56.6090012  17.4740009  51.1520004  49.7659988
  17.9540005  51.4449997  48.9819984  16.6580009  50.7939987  49.3300018
  22.1469994  53.4269981  74.0800018  22.7770004  52.6549988  74.1190033
  21.3570004  52.9679985  74.3700027  20.5200005  36.9189987  54.5320015
  20.9599991  36.0499992  54.7750015  20.1849995  37.1459999  55.3919983
   3.2980001  55.3330002  46.7690010   2.4170001  55.5629997  46.4500008
   3.7190001  56.2239990  46.8279991  14.1070004  37.7099991  58.9090004
  13.4060001  38.3440018  59.0719986  14.9049997  38.2500000  59.2010002
   6.0609999  30.9839993  51.3240013   5.8870001  31.6019993  50.5979996
   7.0229998  30.9860001  51.3860016  14.0600004  55.0800018  40.8209991
  14.2679996  54.0849991  40.7690010  13.7379999  55.1549988  41.7190018
   5.0240002  35.6040001  45.2659988   4.3660002  35.0830002  44.7500000
   4.5500002  35.5620003  46.1360016  12.5159998  34.6640015  46.3930016
  12.0620003  34.7340012  45.4850006  13.2620001  34.1100006  46.1290016
  15.5509996  46.1339989  52.7729988  16.0200005  45.9720001  51.9580002
  15.3000002  47.0390015  52.6910019  17.1459999  48.2050018  42.4160004
  17.0189991  48.5299988  41.5110016  18.1299992  48.1059990  42.4389992
  18.4559994  47.8619995  48.3120003  18.3120003  48.5670013  47.6010017
  18.6980000  47.1180000  47.7700005  17.1439991  52.2130013  41.7890015
  16.2140007  52.3889999  41.4360008  17.1410007  51.2400017  41.8069992
  21.9360008  52.7859993  47.3149986  21.2259998  53.2459984  46.7809982
  21.7299995  53.1879997  48.1699982  14.2040005  45.4160004  48.6769981
  14.8509998  44.7519989  49.0209999  14.6160002  45.6520004  47.8650017
  16.6399994  49.0369987  52.2210007  16.9790001  48.2239990  51.7519989
  16.6140003  49.6930008  51.5880013  17.5389996  49.2989998  45.8689995
  18.0890007  48.9780006  45.1629982  16.6730003  49.4510002  45.4830017
   4.2969999  42.1580009  44.0120010   4.4210000  41.3689995  44.6440010
   3.5750000  41.7789993  43.4580002   7.0400000  55.5789986  45.6020012
   6.5149999  55.0460014  45.0589981   6.4510002  55.9370003  46.2739983
  17.7709999  54.8429985  42.5359993  17.5109997  53.9179993  42.2719994
  18.5580006  54.9869995  41.9550018   3.0020001  39.6430016  53.2200012
   3.8640001  39.8769989  52.8100014   2.4340000  40.3559990  52.9399986
   4.3299999  63.9049988  54.3219986   4.5200000  62.9309998  54.2360001
   4.3899999  64.2249985  53.4099998   7.6510000  41.0639992  44.3590012
   7.3360000  40.2970009  44.8429985   7.9099998  41.6529999  45.1069984
   3.6900001  44.1180000  59.6599998   4.0910001  43.2690010  59.4029999
   4.2610002  44.4269981  60.4259987  18.0620003  51.8810005  53.0410004
  17.7630005  51.8889999  53.9780006  18.1930008  52.8820000  52.9220009
  19.5370007  53.6609993  56.3019981  18.7110004  53.0979996  56.3139992
  19.5799999  53.9189987  55.3940010  13.3350000  50.6940002  51.4580002
  14.1709995  51.1969986  51.4020004  13.1169996  50.4379997  50.5760002
   8.1330004  45.5999985  49.9230003   8.5489998  45.8160019  49.0540009
   8.7180004  44.7989998  50.0989990  15.4709997  55.1459999  30.7010002
  15.7139997  54.9539986  31.6359997  16.3600006  55.3610001  30.3549995
  13.4350004  54.0309982  43.3320007  12.4980001  54.2900009  43.4620018
  13.2159996  53.0299988  43.2369995   7.1789999  37.4770012  42.0019989
   6.4559999  37.3260002  41.2960014   7.7789998  38.0379982  41.4710007
  12.9840002  46.9490013  44.3059998  12.6980000  45.9529991  44.4119987
  13.6650000  46.8590012  43.6780014   5.2040000  47.5050011  53.0849991
   6.1459999  47.3989983  52.8349991   5.0009999  48.4020004  52.7159996
   9.6840000  59.1450005  51.1809998   9.2629995  59.5419998  51.9430008
  10.6199999  59.1940002  51.4259987  77.7089996  28.5259991  40.1010017
  78.0339966  27.6469994  39.7080002  76.8840027  28.2630005  40.4430008
   9.4779997  34.9980011  36.4179993  10.1980000  34.4410019  36.0660019
   8.8030005  34.8359985  35.7379990   5.1209998  41.8059998  59.3149986
   5.4740000  40.9570007  59.0699997   5.8620000  42.3720016  59.0760002
  10.3699999  54.0820007  59.9519997  10.9429998  54.8650017  60.0340004
   9.5109997  54.4889984  60.1230011  13.5959997  52.8720016  49.7779999
  14.4110003  52.7540016  50.3209991  12.9930000  53.2220001  50.4980011
   9.2849998  63.4249992  50.7589989   8.5740004  63.3709984  51.4469986
   9.2489996  64.3789978  50.5410004  14.9090004  46.8899994  46.4770012
  14.2770004  47.2630005  45.8009987  15.5310001  47.6730003  46.5600014
  19.9230003  47.8380013  58.1749992  19.8829994  47.5169983  57.3149986
  19.3349991  48.6170006  58.1969986  10.8059998  47.0909996  39.1069984
  10.4779997  46.8019981  39.9809990  10.2130003  46.6189995  38.5079994
  14.1619997  57.8219986  40.1689987  14.1569996  56.8629990  40.3989983
  14.6320000  58.2290001  40.9099998  17.5709991  43.8510017  58.3610001
  17.0310001  44.5180016  57.9169998  17.8619995  43.3380013  57.5789986
   4.3629999  48.9879990  55.2849998   3.7579999  48.3250008  55.6689987
   4.8449998  48.3909988  54.6559982  12.4219999  57.7929993  37.9490013
  13.1190004  57.9500008  37.2360001  12.9630003  57.7379990  38.7369995
   4.1079998  52.2869987  57.4560013   4.4480000  52.1570015  58.3160019
   3.1940000  52.6790009  57.6759987  17.0610008  72.4260025  53.9210014
  16.9610004  72.9150009  54.7159996  16.1229992  72.4169998  53.5859985
  14.2910004  29.3090000  56.0810013  14.8549995  30.0480003  55.8069992
  14.7100000  29.0130005  56.9160004   9.9090004  48.7579994  49.4510002
   9.7119999  48.4160004  48.5509987   9.2010002  49.4350014  49.5369987
  25.6070004  48.5239983  62.8460007  24.7479992  48.4269981  62.3959999
  25.6369991  49.4840012  63.0260010   5.1550002  45.4669991  42.4389992
   4.4010000  45.1959991  41.8880005   5.4200001  44.6699982  42.8860016
  17.6609993  61.5219994  62.7890015  17.5720005  62.5130005  62.8470001
  17.4459991  61.3499985  61.9059982   6.9349999  51.2360001  51.9129982
   6.5310001  52.1430016  51.7910004   7.3369999  51.3870010  52.8289986
  12.5690002  64.2829971  49.0989990  12.3050003  63.5559998  49.6220016
  13.5660000  64.1869965  49.1189995   5.4460001  37.8800011  43.9459991
   6.0180001  37.6320000  43.1780014   5.4759998  36.9309998  44.3709984
  10.4429998  34.9129982  53.8349991  10.4840002  34.0769997  54.2099991
  10.4219999  34.8170013  52.8909988   0.2270000  44.6759987  53.3720016
  -0.3550000  45.4749985  53.5359993   1.1120000  45.0740013  53.3450012
  11.0489998  47.4920006  60.1150017  10.4200001  46.6839981  60.2570000
  11.8430004  46.9420013  59.8030014  17.8220005  54.5270004  52.9010010
  18.6959991  54.9199982  52.7179985  17.2900009  55.2879982  52.5849991
   8.3160000  34.7729988  56.2849998   8.1099997  34.1450005  57.0460014
   8.1910000  34.1059990  55.5670013  13.0439997  37.0480003  55.3670006
  12.8909998  37.9739990  55.0349998  13.5570002  36.7070007  54.5719986
  19.5939999  44.9609985  40.9420013  19.6350002  44.0779991  41.3740005
  19.4239998  44.6819992  40.0340004  13.8549995  48.6209984  61.4360008
  14.0660000  47.8740005  60.8989983  13.3839998  49.2050018  60.7820015
  13.2150002  48.8870010  57.0550003  12.2840004  48.5919991  57.1110001
  13.2240000  49.2869987  56.1689987  20.5990009  44.9220009  62.0970001
  20.0809994  45.7309990  61.7550011  20.0919991  44.2470016  61.5849991
  22.2320004  55.0750008  44.7639999  23.1459999  54.9160004  45.1450005
  22.5540009  55.4269981  43.8450012   8.5150003  32.8269997  57.9780006
   9.3979998  32.3100014  58.0960007   8.3950005  33.0159988  58.9290009
  11.8290005  44.3209991  42.1440010  12.7240000  44.1290016  41.8880005
  11.4370003  43.4319992  42.0550003  17.7999992  29.3379993  53.9239998
  17.3010006  30.1980000  54.1240005  17.8689995  28.9920006  54.8810005
  18.9120007  49.8810005  68.0930023  19.4930000  50.0330009  67.3239975
  18.8560009  50.8559990  68.3909988  11.6210003  54.7039986  47.0629997
  11.6059999  53.8380013  46.6640015  10.9289999  55.1910019  46.4939995
  74.0439987  68.9570007  42.0229988  74.0479965  68.0110016  42.4650002
  74.3349991  69.4749985  42.8370018  13.4209995  52.6980019  61.8740005
  13.9180002  52.8019981  62.7360001  13.3669996  53.6080017  61.6189995
  75.3410034  46.2120018  55.6910019  74.7559967  45.4389992  55.3880005
  76.0830002  45.6139984  56.0519981  11.2279997  45.8779984  56.2970009
  10.3730001  45.4959984  56.6800003  11.0539999  46.7789993  56.5499992
   2.9270000  43.4150009  67.5110016   2.8269999  42.6889992  66.9179993
   2.3680000  44.1329994  67.1259995   0.0840000  48.5880013  44.6500015
  -0.2120000  47.6689987  44.7389984   0.1180000  48.7989998  45.6380005
  17.1060009  36.4970016  63.0740013  17.0769997  37.3549995  63.4420013
  16.4540005  36.6450005  62.2799988   2.3230000  67.4570007  56.7789993
   2.3290000  67.4150009  57.7799988   2.5350001  66.4940033  56.5779991
   6.1220002  46.6870003  46.7649994   6.4920001  46.9029999  45.8930016
   5.1650000  46.5890007  46.5730019  10.7170000  48.6170006  44.2369995
  10.1280003  47.7970009  44.4860001  11.6149998  48.1020012  44.3390007
  16.5690002  63.9609985  48.2210007  16.6930008  63.1520004  48.7779999
  16.5990009  63.5900002  47.3250008  10.0209999  38.9780006  51.2589989
   9.1590004  38.7729988  50.7509995   9.5620003  39.3919983  52.0429993
  14.6850004  42.5359993  64.0029984  13.9569998  42.5159988  64.7060013
  14.7740002  43.5079994  63.8790016   9.5080004  36.3110008  33.2519989
   8.9670000  35.5460014  33.6349983   8.7530003  36.8569984  32.9770012
   5.8130002  40.6769981  52.7210007   6.1420002  41.4440002  52.2220001
   6.6729999  40.2179985  52.9189987   4.8099999  55.8930016  53.2369995
   5.7649999  55.9729996  53.0480003   4.6910000  56.5859985  53.9230003
  12.9720001  41.9249992  48.7459984  12.6960001  41.4160004  47.9490013
  12.4680004  42.7360001  48.5820007  11.9549999  44.4449997  44.9090004
  11.9250002  44.2039986  43.9749985  12.1269999  43.5919991  45.3269997
  17.6459999  33.2060013  60.4669991  18.2280006  32.5429993  60.1419983
  16.9629993  33.1980019  59.7130013  10.7550001  33.8919983  39.6650009
   9.8380003  34.2270012  39.4000015  10.9200001  33.2709999  38.9070015
  11.9099998  60.5200005  46.0719986  11.3730001  60.1250000  45.3489990
  11.1730003  60.4309998  46.7869987  16.1760006  59.3149986  48.7480011
  16.0209999  58.3310013  48.9760017  16.9920006  59.1339989  48.2309990
  10.4870005  45.2120018  52.8889999  10.3599997  44.5690002  52.1739998
  10.1700001  44.6699982  53.6549988   7.3680000  55.5139999  52.6510010
   8.0270004  55.0789986  53.2550011   7.9590001  56.1640015  52.2309990
  10.7329998  56.5919991  53.0330009  11.0380001  57.2379990  52.4440002
  11.1429996  56.8250008  53.8899994  78.3840027  62.9809990  49.4700012
  79.1999969  63.4090004  49.8180008  78.5569992  62.0200005  49.5559998
  14.7060003  60.7659988  44.7980003  14.8780003  59.9700012  45.3899994
  13.7290001  60.8069992  44.8660011  78.3130035  42.2120018  61.7529984
  79.1890030  42.6349983  61.6220016  78.4680023  41.8240013  62.6679993
  12.2180004  54.4080009  51.6459999  11.7399998  54.8419991  52.4059982
  12.3100004  55.1360016  51.0279999  15.7830000  35.2350006  40.4749985
  16.1229992  36.0660019  40.0730019  15.7740002  34.6940002  39.6189995
  25.9050007  -3.3599999  50.3899994  25.1529999  -3.8620000  50.0070000
  25.5470009  -2.4089999  50.2120018  14.8149996  52.2459984  59.2910004
  14.0699997  51.6650009  59.5009995  14.4119997  53.1180000  59.4410019
  18.7830009  33.3969994  43.2610016  19.3950005  33.4930000  42.5110016
  19.3850002  33.4959984  44.0120010  17.5699997  38.0909996  68.8629990
  17.2670002  37.2179985  69.0130005  18.5429993  37.9519997  68.6940002
  21.6580009  53.8930016  49.8470001  20.7539997  54.1220016  50.0250015
  22.1490002  54.5340004  50.3820000  11.1510000  67.1569977  55.2820015
  11.9560003  67.7460022  55.3129997  11.5000000  66.3690033  55.8009987
  20.1910000  65.1689987  47.6380005  20.8950005  65.3069992  48.3180008
  19.4640007  65.5899963  48.1139984  25.9379997  74.9300003  38.3940010
  26.1620007  75.4410019  39.1879997  26.4729996  75.4359970  37.7050018
  28.0629997  68.2429962  61.2929993  27.2849998  68.7369995  61.7500000
  27.6250000  67.3550034  61.2299995  17.4769993  52.0769997  55.6349983
  16.8579998  52.4830017  56.2890015  17.0370007  51.2389984  55.3650017
  28.8369999  63.8769989  54.7060013  28.0849991  64.3440018  54.3050003
  28.3360004  63.2330017  55.3019981  15.9729996  56.7400017  49.0419998
  16.0219994  56.6170006  49.9920006  16.5130005  56.0400009  48.6580009
   9.4790001  60.5550003  47.2669983   8.7250004  60.6339989  46.6230011
   9.4160004  61.4910011  47.6119995  18.0060005  65.7389984  49.8279991
  17.5709991  65.1679993  49.1320000  17.3250008  65.7529984  50.5620003
  18.6289997  59.3829994  55.0989990  17.8449993  59.8629990  55.4669991
  19.0209999  59.0859985  55.9500008  23.2299995  65.6220016  60.9469986
  22.7919998  66.3339996  61.3670006  22.6420002  64.8479996  60.9860001
  19.1200008  62.3670006  57.6790009  20.0319996  62.6710014  57.9150009
  18.6940002  63.2560005  57.6409988  39.2249985  62.9949989  48.8120003
  40.1290016  63.2980003  48.5579987  39.3810005  62.7939987  49.7449989
  13.8830004  68.9749985  44.0859985  14.4969997  68.3570023  44.4939995
  13.2550001  68.3889999  43.6479988  16.3020000  55.6370010  55.3320007
  15.3820000  55.3639984  55.3839989  16.7119999  54.9140015  54.7669983
  14.5480003  64.1859970  68.9879990  14.9569998  64.7969971  68.3089981
  14.3820000  64.8720016  69.7009964  18.2520008  58.3310013  46.6949997
  18.6210003  57.8969994  47.4790001  18.0660000  57.6189995  46.0950012
  28.1130009  73.1179962  42.9099998  28.3230000  73.3170013  41.9830017
  28.6499996  73.8040009  43.3629990  19.1079998  58.2849998  61.9790001
  19.2259998  57.4620018  61.4990005  18.2010002  58.1559982  62.3320007
  14.0410004  68.2470016  48.3880005  13.7749996  69.0599976  47.8709984
  14.2589998  68.6460037  49.2459984  21.7210007  62.7379990  60.2960014
  21.5569992  63.3170013  59.5449982  22.1459999  62.0180016  59.8349991
  30.8279991  76.2539978  43.8100014  30.5970001  75.3600006  44.1269989
  30.0039997  76.5139999  43.3969994  22.2229996  49.9360008  57.0320015
  21.4860001  50.5489998  57.3359985  22.8859997  50.2290001  57.7150002
  22.5529995  61.8110008  51.8349991  22.5200005  60.9480019  52.2540016
  22.8479996  61.5309982  50.9269981  22.9669991  67.8410034  47.7060013
  23.3349991  68.7590027  47.6860008  22.0839996  68.0230026  48.1520004
  20.0349998  58.4160004  57.5250015  20.6089993  58.4399986  58.2760010
  19.6459999  57.5180016  57.5530014  24.6469994  64.3140030  69.8450012
  25.4549999  63.7169991  69.6669998  24.0769997  63.6150017  70.2669983
  16.3729992  57.2000008  57.6469994  16.5540009  56.6819992  56.7630005
  17.2110004  57.6300011  57.7309990  31.6580009  71.5279999  64.0059967
  32.3860016  71.7570038  64.6819992  31.0030003  72.2050018  64.2659988
  23.5079994  62.2480011  65.0859985  23.4540005  61.3499985  65.4420013
  23.3859997  62.0639992  64.1240005  21.1060009  70.7779999  51.8330002
  20.2380009  70.8089981  51.3660011  21.0070000  71.5370026  52.4360008
  52.5740013   4.4840002  51.7120018  52.0200005   3.8250000  51.3120003
  53.0079994   4.9099998  50.9109993  33.4140015  61.0839996  47.7379990
  33.7449989  61.0449982  46.8139992  32.7599983  60.4319992  47.7630005
  19.5189991  67.8929977  46.0589981  19.1930008  68.1559982  46.9720001
  20.4710007  67.9189987  46.2470016   9.7690001  61.2910004  57.9990005
   9.5369997  61.2120018  57.0579987   8.9949999  61.7620010  58.3499985
  19.6490002  68.0770035  54.8190002  20.4480000  68.2699966  54.1920013
  20.2029991  67.4759979  55.4169998  15.6370001  67.1490021  44.8950005
  16.0030003  66.3030014  44.6430016  15.9239998  67.1579971  45.8680000
  15.5059996  65.7490005  55.2709999  15.7600002  65.9110031  56.2220001
  16.4009991  65.8050003  54.8839989  16.3379993  52.6080017  45.0279999
  15.5629997  52.0680008  44.8860016  16.1119995  52.8839989  45.9809990
  20.1079998  58.2190018  48.6730003  20.4120007  59.1619987  48.7400017
  19.6830006  58.1599998  49.5460014  18.7189999  51.3600006  47.2639999
  19.1819992  51.7459984  46.5250015  18.4430008  50.4930000  46.8689995
  42.5970001   3.2090001  57.6790009  43.4269981   3.5950000  57.3499985
  42.5569992   3.6190000  58.5709991  25.7360001  62.5690002  66.5419998
  26.0489998  63.5209999  66.5049973  24.8110008  62.6699982  66.2320023
  47.5159988   4.6690001  48.0089989  48.3160019   5.1789999  48.3110008
  47.1209984   4.5180001  48.9179993  19.2059994  57.7980003  51.3709984
  19.1100006  58.7420006  51.3820000  18.8770008  57.4560013  52.1879997
  13.9510002  54.7589989  59.2229996  13.1920004  55.1069984  58.6920013
  14.0389996  55.5279999  59.8240013  26.6410007  67.8529968  56.4389992
  27.2210007  68.3809967  57.0019989  26.9440002  66.9530029  56.7719994
  24.2010002  70.5780029  47.8320007  25.1089993  70.4810028  47.5760002
  23.8850002  71.3700027  47.3479996  20.9880009  60.9420013  48.8370018
  20.5529995  61.5019989  48.2000008  21.9290009  61.2739983  48.7709999
   7.7350001  61.2140007  63.5849991   8.2690001  60.5410004  64.0070038
   6.8620000  61.0260010  63.9620018  42.2130013   1.6590000  46.2109985
  42.0559998   1.9850000  47.1559982  42.6380005   2.4579999  45.8470001
  18.6830006  66.1380005  42.2210007  18.2399998  65.7109985  42.9239998
  19.5590000  65.7959976  42.2019997  28.9319992  70.6579971  64.3089981
  28.6060009  71.3130035  64.9609985  28.7220001  69.8339996  64.6989975
  27.8020000  64.6979980  50.7599983  28.3260002  65.3560028  50.2080002
  28.4020004  63.9269981  50.7459984  21.3059998  67.3720016  62.5690002
  21.3540001  66.7580032  63.2869987  21.2919998  68.2190018  63.0660019
  29.4780006  63.4420013  47.7879982  30.0289993  63.2080002  48.5250015
  28.5580006  63.2309990  48.0859985  31.8750000  67.2480011  49.4169998
  31.1060009  66.7860031  49.9039993  32.3129997  67.5530014  50.2340012
  47.7439995   2.2479999  38.6500015  48.6049995   2.1500001  38.1020012
  47.6129990   1.3130000  38.8180008  31.7859993  65.0970001  60.7669983
  31.4160004  65.8259964  61.1959991  32.0680008  64.5000000  61.4550018
  17.9750004  57.2989998  53.7939987  18.1259995  58.1310005  54.3349991
  17.6410007  56.6870003  54.5060005  38.8790016   8.1840000  53.8100014
  39.0379982   7.3810000  53.2910004  38.5029984   7.8280001  54.6230011
  10.7370005  58.7840004  58.8320007  10.5810003  59.6500015  58.3740005
  11.7170000  58.8759995  58.9679985  16.0419998  66.7200012  47.5330009
  15.1730003  67.0550003  47.8499985  16.0750008  65.8310013  48.0250015
  14.0719995  54.3470001  53.5649986  13.6049995  53.6570015  53.0089989
  14.3230000  55.0000000  52.8489990  30.2310009  62.9930000  62.1920013
  31.0760002  62.7099991  62.6230011  29.7399998  63.3860016  62.9280014
  20.0279999  55.2280006  41.1860008  19.7819996  54.8460007  40.3419991
  20.6970005  55.8919983  40.9970016  36.4269981  69.8379974  41.6139984
  35.5779991  69.8040009  41.0919991  36.9920006  69.8590012  40.8149986
  19.6609993  60.2869987  43.0789986  20.1280003  61.1539993  43.1889992
  19.1730003  60.2249985  43.8930016  33.5439987  65.3850021  44.5740013
  32.6520004  65.1470032  44.9650002  33.2949982  65.0690002  43.6409988
  16.8939991  61.8250008  53.6269989  17.2089996  60.9760017  53.2210007
  15.9680004  61.8499985  53.3149986  30.2420006  66.3420029  51.3170013
  30.0799999  66.6640015  52.2869987  30.6739998  65.5009995  51.5610008
  17.8470001  58.7949982  41.9630013  17.2800007  59.5589981  41.6409988
  18.5919991  59.2799988  42.3510017  19.2280006  60.4150009  51.2319984
  19.7919998  60.8149986  51.9370003  19.4120007  61.0509987  50.4939995
  17.6060009  68.9609985  43.9510002  18.4239998  68.6439972  44.4220009
  16.9570007  68.4199982  44.4770012  13.6269999  59.8079987  50.0019989
  13.1250000  59.3800011  49.2620010  14.5200005  59.8510017  49.5610008
  30.0879993  68.8779984  42.0919991  30.1560001  69.0169983  43.0740013
  30.1229992  67.8710022  42.0579987  17.3349991  67.8470001  62.0460014
  18.0330009  68.5220032  61.9280014  17.2390003  67.8949966  63.0620003
  24.2859993  63.1520004  54.0589981  24.0020008  62.7550011  53.1879997
  25.2119999  63.4099998  53.8870010  25.9489994  71.7220001  55.8230019
  26.1499996  72.6800003  55.8839989  25.1560001  71.7289963  55.2060013
  11.2419996  68.1640015  50.8629990  10.8240004  67.3980026  51.3400002
  11.5640001  67.6250000  50.0859985  17.9960003  67.3700027  38.0250015
  18.2770004  67.8320007  37.2089996  17.4669991  66.6389999  37.6669998
  15.3660002  68.4850006  52.9199982  16.2250004  68.8369980  53.2840004
  14.7729998  69.1330032  53.4620018  38.4399986  75.1039963  64.1100006
  38.8709984  74.2099991  64.0619965  38.1349983  75.1510010  63.1990013
  21.5849991  68.3109970  52.8769989  21.6650009  69.1809998  52.4840012
  21.0730000  67.7829971  52.2039986   9.3850002  63.1829987  47.9309998
   9.7600002  63.1790009  48.8429985   8.4370003  63.2470016  48.0709991
  25.0109997  75.0800018  43.0169983  24.9060001  74.1200027  43.1829987
  24.0060005  75.2979965  42.9630013  22.2649994  67.5289993  34.9640007
  21.5380001  67.9909973  34.4440002  22.2469997  68.0660019  35.7550011
  34.5589981  67.0000000  34.1899986  34.3400002  67.9150009  33.8969994
  34.0750008  66.9580002  35.0400009  22.4050007  72.1959991  61.5110016
  21.6429996  71.7860031  61.9459991  23.0900002  71.9769974  62.2120018
  13.7700005  49.3660011  54.1679993  13.7100000  49.8629990  53.3339996
  13.2900000  48.5419998  53.9199982  12.7900000  54.3440018  55.7949982
  12.1250000  53.7050018  55.4309998  13.3769999  54.3300018  55.0340004
  24.6959991  56.5670013  62.8030014  25.4349995  55.9269981  62.6559982
  23.9880009  56.1040001  62.3510017  13.0839996  64.4300003  54.8860016
  14.0100002  64.7789993  54.8129997  12.6789999  64.7990036  54.0629997
  13.3529997  61.9710007  58.9360008  12.5139999  62.4490013  59.1399994
  13.9060001  62.1650009  59.7109985  13.6300001  67.1110001  65.0999985
  13.4729996  68.0660019  65.1630020  13.8559999  67.1299973  64.1090012
  14.3610001  61.6879997  51.9819984  13.5100002  61.7260017  52.3820000
  14.1820002  60.9970016  51.2750015  19.1609993  55.7509995  58.0550003
  19.5279999  55.0239983  57.5089989  18.3080006  55.2639999  58.3089981
   9.5000000  69.7699966  49.0009995   9.5430002  68.9970016  48.3639984
  10.0459995  69.4010010  49.7340012  30.3409996  64.6139984  45.1170006
  30.0849991  64.0159988  45.8180008  30.5249996  65.4140015  45.6759987
  42.6469994   3.5439999  41.3289986  42.9900017   2.9330001  42.0130005
  42.9090004   3.1059999  40.4889984   7.5799999  57.9990005  54.0209999
   8.3400002  58.6160011  53.9920006   7.4039998  57.9749985  54.9970016
  33.1069984  68.4970016  68.2689972  33.0550003  67.5189972  68.1809998
  34.0509987  68.6439972  68.3949966  67.1819992  31.4810009   7.4489999
  67.9729996  31.9939995   7.5630002  66.5520020  32.0000000   8.0129995
  40.9910011  -1.3920000  42.8089981  41.1389999  -1.0700001  43.7080002
  40.9249992  -2.3550000  42.9150009  22.3889999  55.7500000  61.6739998
  21.4430008  55.6549988  61.4399986  22.6060009  56.5060005  61.0789986
  30.6170006  71.4919968  57.5000000  31.2859993  71.4440002  58.1980019
  30.6229992  70.5199966  57.2080002  36.1030006  70.8489990  54.5359993
  36.6430016  71.6449966  54.8569984  35.1809998  71.1250000  54.7659988
  66.5690002  11.0629997  54.7120018  66.2239990  11.5059996  55.5009995
  66.7379990  10.1529999  55.1040001  56.4650002   6.0029998  56.9059982
  56.2000008   5.5960002  55.9990005  56.6469994   5.1170001  57.3079987
  24.2900009  74.3820038  58.6800003  24.4270000  73.4950027  58.9589996
  25.2549992  74.7089996  58.6389999  34.5200005  79.8399963  42.4410019
  34.0200005  80.5780029  42.9109993  35.3050003  79.8069992  43.0489998
  71.4800034  12.2469997  41.3330002  70.9729996  13.0209999  41.7060013
  72.0350037  12.0419998  42.0690002  46.4300003  77.1630020  41.0660019
  46.9440002  77.4800034  41.8530006  46.9269981  76.3850021  40.8199997
  42.3289986  66.7239990  33.3619995  41.6839981  67.4779968  33.3390007
  42.0470009  66.3290024  34.2229996  35.9609985  75.1800003  44.1790009
  36.3530006  74.3270035  44.5859985  35.0769997  74.8119965  43.9760017
  28.5489998  77.3720016  42.9379997  28.1369991  77.7760010  42.1180000
  27.7399998  77.0999985  43.4160004  38.3289986  67.0059967  63.5540009
  37.8190002  66.0989990  63.5489998  38.8339996  66.8140030  62.7910004
  30.2040005  65.8219986  42.7010002  30.2800007  65.3089981  43.5760002
  29.4850006  65.3280029  42.3180008  39.8230019  78.8420029  55.5789986
  40.5750008  78.2340012  55.7389984  39.2379990  78.2639999  55.0460014
  28.3700008  74.0000000  40.4210014  27.3899994  74.2549973  40.4189987
  28.7290001  74.8199997  39.9889984  40.3470001  60.9790001  56.2389984
  39.8899994  61.0449982  57.0540009  39.9300003  61.5489998  55.5960007
  31.9640007  64.5820007  57.8730011  31.6830006  64.9349976  58.7280006
  32.4160004  63.7430000  58.2309990  74.5199966  10.5150003  54.4169998
  74.6159973  11.1540003  53.6930008  73.8509979   9.8800001  54.1170006
  32.7309990  78.7480011  54.5349998  33.0289993  78.0139999  53.9230003
  33.2910004  78.5439987  55.3030014  43.2120018  75.5390015  40.3310013
  43.6689987  76.3310013  40.0870018  42.3069992  75.7900009  40.2319984
  26.2570000  70.0279999  41.3440018  27.0230007  70.4919968  40.9669991
  26.2560005  69.1930008  40.8839989  37.4399986  74.4599991  66.7860031
  37.9659996  74.8789978  66.1169968  38.1240005  74.0260010  67.3740005
  39.4010010  65.7829971  45.8909988  40.0999985  65.2500000  46.2989998
  38.7799988  65.0729980  45.6920013  36.8810005  73.0699997  45.4169998
  37.2599983  73.2259979  46.3040009  36.6559982  72.1139984  45.4970016
  33.3359985  75.3550034  57.1650009  33.1310005  74.4749985  57.6850014
  32.6969986  75.1289978  56.4029999  43.9199982  80.6969986  51.1160011
  43.1090012  80.9029999  51.6370010  44.3359985  80.0339966  51.7560005
  46.6949997  67.9459991  59.0699997  46.6640015  67.0179977  58.7770004
  47.0890007  67.8909988  59.9249992  44.7869987  69.6849976  44.8790016
  44.8870010  70.1350021  45.7509995  45.5229988  70.2180023  44.3959999
  44.1430016  65.0410004  59.0719986  44.3489990  64.9680023  58.1310005
  43.9399986  64.1380005  59.3569984  41.9249992  73.9970016  56.9939995
  41.5499992  73.2360001  56.4339981  42.8650017  73.8310013  56.8680000
  60.7000008  16.4899998  49.0509987  60.9710007  16.1560001  48.1780014
  61.2980003  17.2849998  49.1529999  29.2959995  71.6890030  49.2729988
  29.9200001  72.2799988  48.8019981  29.1459999  72.1620026  50.1059990
  48.5289993   4.0079999  52.5439987  48.9109993   3.1570001  52.7729988
  49.1809998   4.6680002  52.8440018  24.5380001  71.2269974  39.1479988
  24.7520008  71.3030014  40.1150017  23.6490002  70.8320007  39.2350006
  33.6119995  73.4739990  37.9090004  32.8380013  73.5559998  38.5400009
  34.0769997  74.2809982  38.1640015  53.2859993   6.6310000  45.7910004
  53.9090004   5.9299998  46.0019989  52.5250015   6.1520000  45.4329987
  37.2509995  75.7649994  61.6129990  37.0349998  74.8539963  61.2849998
  36.3569984  76.1439972  61.7019997  46.7179985  71.4410019  43.7360001
  46.7910004  72.4329987  43.6910019  47.3769989  71.1750031  43.0800018
  31.3700008  71.7229996  54.3050003  30.3820000  71.8219986  54.1800003
  31.4060001  70.6880035  54.3100014  34.7610016  63.7719994  56.6829987
  34.4420013  63.3110008  57.4980011  34.8209991  64.7419968  57.0060005
  33.4000015  75.7789993  46.1800003  33.9869995  76.5210037  46.2319984
  32.5009995  76.1500015  46.2330017  27.1730003  65.2539978  59.8199997
  27.8439999  64.5579987  59.9930000  27.0230007  65.5449982  60.7809982
  42.4370003  77.0080032  43.6529999  43.0909996  76.8280029  42.9990005
  41.7649994  76.3320007  43.5480003  29.0879993  63.3180008  59.4659996
  29.9459991  63.4329987  59.9360008  28.8980007  62.3769989  59.6409988
  37.0950012  76.2949982  47.6030006  37.5559998  75.4410019  47.6020012
  36.5859985  76.2239990  48.4249992  28.3209991  71.1110001  54.4230003
  27.7029991  71.3939972  55.1409988  28.3439999  70.1340027  54.5070000
  38.1809998  80.1760025  49.9140015  37.4350014  80.6719971  49.4659996
  37.6430016  79.5299988  50.4119987  25.5990009  72.1050034  43.2299995
  26.4349995  72.5550003  43.0550003  25.7399998  71.2200012  42.9199982
  71.1679993   8.9750004  43.6489983  71.6409988   8.9410000  42.7529984
  70.2979965   8.6999998  43.4189987  45.4399986  79.9120026  53.5909996
  45.2319984  79.9850006  54.5200005  44.9059982  79.1490021  53.3419991
  35.3209991  65.6190033  46.5040016  36.1119995  65.1699982  46.2060013
  34.7620010  65.5999985  45.6739998  45.4339981  68.6539993  40.5060005
  45.5419998  69.5220032  40.1259995  46.3250008  68.2109985  40.3969994
  29.9099998  74.5790024  48.3540001  30.5849991  73.9639969  47.9679985
  30.2989998  75.4589996  48.1699982  40.9160004  64.0660019  40.9010010
  41.4290009  64.8929977  40.6259995  41.3540001  63.9249992  41.7430000
  34.8370018  67.8759995  44.3180008  35.5239983  67.3619995  43.8829994
  34.1090012  67.1969986  44.2859993  48.3959999  76.0680008  35.6860008
  47.9109993  75.4879990  35.0660019  49.3149986  75.9479980  35.3660011
  48.8889999  73.9329987  46.9939995  49.4589996  74.1849976  46.1739998
  48.4819984  73.1299973  46.6819992  46.1349983  77.5690002  50.1129990
  46.2960014  77.1669998  49.2140007  46.8040009  77.1119995  50.6349983
  39.6339989  74.7350006  55.0330009  40.2330017  75.5159988  55.0079994
  40.3199997  74.0240021  54.8699989  41.0550003  76.8059998  49.2509995
  40.2570000  76.4250031  49.6290016  41.7010002  76.0970001  49.2080002
  38.1899986  74.0719986  48.2900009  39.1090012  73.7440033  48.1320000
  38.0639992  73.7910004  49.2340012  56.8520012   9.1700001  48.6980019
  56.0180016   9.2489996  48.1510010  56.8730011   8.2290001  48.9440002
  39.9879990  77.4990005  46.8919983  39.0979996  77.2839966  47.1819992
  40.4379997  77.6630020  47.7639999  43.8779984  81.8619995  37.5639992
  43.8670006  81.6080017  36.6300011  43.0250015  81.5640030  37.8810005
  34.2799988  79.5429993  46.6710014  33.7060013  79.4690018  45.8460007
  34.8590012  78.7300034  46.4749985  34.2389984  67.2470016  54.3129997
  33.3919983  67.5380020  53.9269981  34.1240005  67.5189972  55.2410011
  45.9739990  82.9440002  53.6559982  45.9599991  83.3160019  52.8230019
  45.7480011  82.0189972  53.5779991  32.6040001  76.7389984  39.0890007
  32.0530014  76.1890030  39.5750008  32.2659988  76.6849976  38.1609993
  49.5719986  83.4150009  56.6489983  48.8289986  83.1910019  57.2019997
  49.4309998  82.8030014  55.8950005  29.8419991  77.5230026  50.0639992
  28.9020004  77.3300018  50.4129982  30.2420006  77.8170013  50.9280014
  32.5279999  69.5059967  47.7809982  32.3089981  68.6309967  48.1819992
  32.8759995  69.9530029  48.6069984  35.0629997  59.9350014  55.2490005
  35.6679993  60.6370010  55.6049995  35.6889992  59.2869987  54.9440002
  44.3569984  81.7429962  59.9230003  44.2169991  82.5080032  60.4760017
  43.6069984  81.7050018  59.3219986  44.7039986  70.9660034  55.8240013
  44.0470009  70.9449997  55.0649986  44.4830017  70.2210007  56.3709984
  58.7960014   5.5650001  60.4430008  58.8849983   6.4580002  59.9029999
  57.8619995   5.4439998  60.4329987  40.9710007  77.3040009  60.6679993
  41.4650002  76.9589996  59.8989983  40.0509987  77.3769989  60.2459984
  46.2350006  80.2279968  49.5070000  46.3170013  79.2799988  49.5130005
  45.3650017  80.4029999  49.8829994  30.3449993  73.4899979  51.6129990
  30.4899998  73.9209976  52.4700012  30.7600002  74.2229996  51.0760002
  39.8699989  81.0869980  34.4249992  39.6409988  80.2519989  34.9230003
  39.5400009  81.7099991  35.1189995  63.7210007   7.9549999  62.6230011
  63.6829987   8.9399996  62.4280014  64.2699966   7.6929998  61.8279991
  43.8740005  75.9049988  51.2249985  44.5940018  75.2730026  51.4819984
  44.2350006  76.3410034  50.4819984  26.4669991  75.9899979  40.7610016
  26.3579998  76.9759979  40.8540001  26.1310005  75.7829971  41.6790009
  39.3250008  68.4349976  46.8870010  39.2919998  67.4850006  46.6619987
  38.4010010  68.6650009  46.6980019  30.0580006  62.9900017  50.6399994
  30.6809998  62.2400017  50.7509995  30.5459995  63.7010002  51.1629982
  22.8579998  65.6589966  54.4249992  23.6609993  65.2850037  54.1290016
  22.1900005  65.1880035  53.8320007  43.1040001  67.6399994  59.3030014
  43.0390015  67.6050034  60.2760010  43.4710007  66.7200012  59.1640015
  75.4700012  10.4040003  48.5540009  74.7369995  10.3660002  47.9410019
  75.4899979   9.5080004  48.9389992  26.5259991  76.4810028  44.7109985
  26.2749996  76.1210022  45.5820007  26.0370007  75.9150009  44.0419998
  42.9539986  76.6709976  58.2610016  42.9099998  75.6650009  58.4700012
  43.8880005  76.7880020  58.5489998  49.9150009   7.8319998  45.2070007
  49.0530014   7.4039998  45.2120018  50.5209999   7.1389999  44.8870010
  29.8160000  69.5889969  47.3979988  29.6940002  70.1320038  48.2430000
  30.7980003  69.5709991  47.3089981  41.5999985  68.7539978  48.2859993
  40.9519997  69.0059967  47.5880013  42.2019997  68.1689987  47.8129997
  27.5429993  76.7089996  51.5439987  26.8619995  76.0250015  51.5499992
  27.2590008  77.3440018  52.1959991  26.9720001  67.6169968  53.1920013
  26.4589996  67.9199982  52.4319992  26.8129997  68.2330017  53.8870010
  20.5450001  68.8830032  48.3260002  19.7859993  69.1760025  48.8419991
  20.6100006  69.5299988  47.6389999  28.1149998  60.8740005  60.0180016
  27.7619991  60.0419998  59.5760002  28.4820004  60.5340004  60.8279991
  54.1080017   9.2779999  52.9770012  54.8380013   9.6420002  52.4350014
  53.3569984   9.7170000  52.5369987  31.0949993  77.0999985  47.6650009
  30.5919991  77.4459991  46.9049988  30.6189995  77.4380035  48.4350014
  10.9329996  66.7249985  60.7690010  11.4619999  67.5680008  60.7929993
  10.4879999  66.9130020  59.9210014  59.5740013   6.1810002  53.8470001
  59.5229988   5.1869998  54.0299988  60.5040016   6.1640000  53.4949989
  48.1749992   2.2200000  43.0929985  48.9920006   2.7309999  42.8839989
  48.0019989   2.4660001  43.9879990  31.0079994  64.3600006  52.8359985
  31.8299999  63.9249992  53.0839996  30.4500008  64.2050018  53.6380005
  30.6949997  66.7839966  46.9720001  30.1009998  66.6279984  47.7140007
  31.5340004  66.5869980  47.3660011  44.3289986  73.2279968  41.0859985
  43.7540016  73.1309967  41.8559990  44.0699997  74.1149979  40.7610016
  45.3390007  82.3160019  45.4399986  44.7389984  82.6900024  46.1360016
  45.2659988  83.0820007  44.7799988  34.6990013  70.6520004  58.5009995
  33.9720001  71.1269989  58.9410019  35.3359985  71.3870010  58.5009995
  35.8800011  66.2910004  50.2089996  36.0489998  65.4309998  49.7680016
  36.7690010  66.4710007  50.5540009  33.4480019  60.3359985  53.1450005
  33.9949989  60.2770004  53.9980011  32.6570015  60.8069992  53.5359993
  36.4620018  68.0640030  46.6599998  35.8699989  68.5780029  46.1180000
  35.8759995  67.2730026  46.8569984  50.4329987  83.6869965  43.6240005
  49.5120010  83.4929962  43.9290009  50.9510002  83.2610016  44.3740005
  33.1240005  77.2509995  49.6110001  32.6380005  77.4609985  48.8110008
  32.6240005  76.4940033  49.9630013  73.7760010  12.6379995  35.1749992
  73.7030029  13.4280005  34.6269989  74.3059998  12.9840002  35.9230003
  24.0109997  75.7149963  56.5139999  24.5209999  75.0309982  56.0139999
  24.0620003  75.3199997  57.4370003  27.9960003  54.6769981  -2.1559999
  27.1560001  54.2229996  -2.0460000  28.2469997  54.3260002  -3.0520000
  23.1130009  41.2140007   4.2280002  22.8929996  40.6220016   4.9710002
  22.2110004  41.2639999   3.8230000  26.6320000  71.2600021  47.1040001
  27.2259998  71.1399994  46.3419991  26.6079998  72.2549973  47.1549988
  41.3899994  68.1859970  52.1290016  41.7890015  67.2639999  52.0690002
  41.1349983  68.2789993  51.2070007  38.5690002  69.1129990  61.3069992
  38.8800011  69.6650009  60.5369987  37.6189995  69.0179977  61.0480003
  44.8300018  71.1350021  47.1300011  45.2200012  71.9380035  46.7430000
  43.9879990  71.4609985  47.4920006  53.2540016  63.0200005  59.4729996
  53.7910004  63.1629982  58.7340012  52.8909988  63.8559990  59.7459984
  35.0800018  79.4769974  38.9059982  35.3730011  79.1559982  38.0750008
  35.1669998  80.4820023  38.8250008  32.8959999  72.8059998  70.8740005
  33.4700012  72.8420029  71.6579971  32.9920006  71.9169998  70.5619965
  54.5089989   8.8050003  47.3670006  53.8629990   9.4870005  47.0740013
  54.1160011   8.0600004  46.8600006  34.6559982  58.3860016  51.6850014
  34.3289986  59.0439987  52.3359985  34.3520012  57.5499992  52.0859985
  47.8600006  69.8899994  53.3870010  46.8680000  69.9319992  53.2750015
  48.1119995  70.3690033  52.5859985  34.1240005  72.2099991  55.3300018
  33.9609985  73.0859985  54.9379997  33.2929993  71.7320023  55.1599998
  50.7550011  74.2639999  58.2459984  50.6529999  75.0149994  57.6250000
  50.7169991  73.5210037  57.5509987  44.3499985  66.1880035  36.7039986
  44.0139999  66.2549973  37.6689987  43.4230003  66.0810013  36.3100014
  41.9059982  81.2210007  53.1910019  41.3639984  80.4570007  53.1160011
  41.8689995  81.5029984  54.1160011  38.7929993  71.1289978  66.1999969
  38.6689987  70.6119995  65.3249969  37.9350014  70.7910004  66.5719986
  54.9519997  72.0289993  51.5330009  55.9039993  71.6660004  51.6660004
  54.6440010  71.5650024  50.7869987  73.9869995  12.7530003  39.6959991
  74.5469971  13.4879999  40.1010017  73.1539993  12.9259996  40.2430000
  34.2290001  68.7450027  65.5950012  33.7299995  69.0220032  66.3880005
  34.9710007  68.2789993  66.0319977  34.9350014  64.1790009  61.0680008
  35.1539993  64.2429962  62.0239983  35.2529984  65.0650024  60.8079987
  56.7840004   6.7800002  38.7099991  56.6189995   5.8920002  38.3289986
  56.7589989   7.2709999  37.8339996  64.6900024  20.2220001  47.3320007
  65.2689972  19.5359993  46.9309998  63.9780006  20.2310009  46.6660004
  34.0209999  62.7050018  58.9500008  34.2980003  63.1259995  59.7970009
  33.7319984  61.8030014  59.2579994  33.4290009  70.5699997  50.9300003
  34.1619987  70.8519974  50.3250008  33.6780014  69.6419983  51.0890007
  28.1819992  67.3980026  47.9070015  28.6429996  68.1200027  47.4659996
  27.7689991  67.8489990  48.6619987  49.0779991  79.7310028  38.4560013
  48.1440010  79.8720016  38.2190018  49.5419998  79.9670029  37.5709991
  38.6570015  71.0059967  59.2659988  38.1479988  71.7699966  58.9000015
  38.8569984  70.4540024  58.5180016  33.4910011  72.6969986  52.3680000
  32.5379982  72.6620026  52.6609993  33.4770012  71.8840027  51.7890015
  37.4169998  66.1910019  43.6940002  37.8720016  66.4899979  44.4819984
  38.1829987  66.1220016  43.0639992  39.7089996  62.7999992  51.5190010
  38.7949982  63.0999985  51.8069992  40.2770004  63.4889984  51.8639984
  55.5110016   5.8909998  35.1559982  55.7449989   6.5790000  35.8030014
  55.2010002   6.4549999  34.4230003  48.0810013  82.7480011  45.0120010
  48.2830009  82.0130005  44.3639984  47.2290001  82.3320007  45.3650017
  37.8180008  66.3539963  55.9900017  37.0229988  65.9290009  56.2900009
  38.2560005  66.5559998  56.8470001  38.7070007  73.1660004  43.4980011
  38.7080002  72.1610031  43.2389984  37.9580002  73.1999969  44.1090012
  34.2929993  76.4150009  35.6399994  33.3820000  76.2770004  35.9869995
  34.1699982  76.1080017  34.6809998  48.6459999  74.4749985  38.6100006
  47.8720016  73.9889984  38.3050003  48.4550018  75.3710022  38.2350006
  40.5950012   1.3090000  57.8779984  41.3009987   1.9900000  57.8720016
  39.8170013   1.9180000  57.7249985  24.7150002  72.4319992  51.5839996
  24.4589996  71.6480026  51.0289993  25.7040005  72.2789993  51.4809990
  35.9809990  68.9130020  60.2809982  35.8310013  69.3119965  59.4099998
  35.1279984  68.4840012  60.4700012  25.1399994  46.9410019  -2.8250000
  25.7740002  47.6069984  -2.4920001  24.3810005  47.0429993  -2.2379999
  49.9269981  72.4509964  56.4309998  50.0169983  72.4879990  55.4550018
  49.0900002  71.9619980  56.5079994  42.1809998  79.4410019  62.0180016
  41.7120018  80.1090012  61.4379997  41.6209984  78.6770020  61.7280006
  67.8610001  16.3670006  45.9169998  67.6029968  16.2269993  46.8619995
  68.8290024  16.2840004  45.9659996  50.2200012  77.6470032  43.7770004
  50.9469986  77.3779984  43.1230011  50.7050018  78.4469986  44.1590004
  54.3450012  82.5469971  57.2039986  53.7480011  83.1979980  57.6780014
  53.7179985  81.8209991  57.1349983  55.9640007  80.4710007  52.5040016
  56.8279991  80.8190002  52.6479988  55.4449997  80.9710007  53.1310005
  75.3690033  15.1999998  46.9020004  75.3020020  15.0920000  47.8629990
  75.5439987  14.2659998  46.5929985  63.0250015  12.2220001  51.2739983
  63.2099991  11.2880001  51.3870010  63.6300011  12.6190004  51.9480019
  48.9290009  80.9100037  43.1969986  49.8540001  80.6510010  43.4370003
  49.1119995  81.2030029  42.2719994  68.5459976  12.2460003  63.0149994
  68.5319977  11.9670000  63.9449997  69.1480026  11.4750004  62.7239990
  50.4690018  73.4440002  50.9020004  51.2550011  73.9260025  50.9459991
  50.6119995  72.9929962  49.9949989  75.8379974  12.7440004  45.9140015
  75.8349991  12.8549995  44.8650017  75.4150009  11.8470001  45.8759995
  36.2130013  78.3229980  59.3470001  35.1940002  78.3219986  59.4910011
  36.2249985  78.6719971  58.4399986  70.1340027   9.6239996  52.1819992
  69.9899979   9.3299999  53.1370010  69.3629990  10.2360001  52.0159988
  75.6949997  14.7159996  49.6769981  76.2779999  13.9799995  49.2939987
  75.1409988  14.1639996  50.2799988  64.8909988   7.0419998  41.7319984
  64.0009995   6.9530001  41.4059982  65.1350021   6.0939999  41.8590012
  42.1689987  82.6470032  47.1349983  42.2719994  83.3509979  46.4469986
  41.2309990  82.8160019  47.3989983  48.4059982  70.4479980  40.8600006
  48.2680016  69.5609970  40.6010017  47.6899986  70.9649963  40.3919983
   6.4540000  11.2600002  34.8779984   6.4699998  11.7919998  35.6660004
   7.3520002  11.4040003  34.4690018  56.4239998  82.2109985  40.5620003
  55.5130005  82.2570038  40.2799988  56.5919991  83.0859985  40.9599991
  53.1829987  84.8610001  37.3829994  53.2459984  83.8799973  37.5579987
  53.6080017  84.8509979  36.4780006   2.4480000  12.1149998  37.9410019
   1.8650000  11.3719997  37.8950005   2.9489999  12.0279999  38.7229996
   8.6610003  30.6860008  40.5499992   8.1870003  31.4759998  40.1559982
   7.9419999  30.3619995  41.1349983  23.1110001   7.4229999  49.9959984
  24.0389996   7.2240000  50.2750015  23.1930008   8.0609999  49.3050003
  14.9560003  11.3230000  47.2330017  15.7880001  11.5790005  47.7019997
  14.8160000  10.4759998  47.6370010   9.7390003   9.8149996  34.3139992
   9.5799999   9.1040001  33.6290016   9.1910000  10.4779997  33.8530006
  12.9460001   4.6399999  35.8549995  13.8500004   4.6510000  35.4420013
  13.2130003   4.4740000  36.7490005   8.3940001   8.0310001  47.4819984
   8.6969995   7.9180002  48.4370003   7.4910002   8.3999996  47.6679993
  16.0830002  11.6260004  35.5040016  16.4430008  11.3240004  36.3969994
  15.9510002  10.7399998  35.0820007  57.9360008  82.1009979  38.2480011
  57.4420013  82.0859985  39.1030006  57.3489990  81.4039993  37.8050003
  10.2089996  19.4990005  38.9539986  10.2410002  20.4340000  39.2169991
  10.2150002  19.6849995  37.9360008  71.9850006  71.3710022  42.7789993
  72.5930023  72.0839996  42.6739998  71.5270004  71.5540009  43.6119995
  56.5909996  78.9830017  32.7639999  57.0429993  79.6100006  33.3759995
  56.3390007  79.6050034  32.0390015  54.5519981  81.3779984  54.5349998
  55.0209999  81.6949997  55.3569984  53.7729988  81.9570007  54.5019989
  15.9840002  21.8640003  54.0349998  15.8540001  22.7900009  54.3110008
  15.4080000  21.3610001  54.6660004  21.7779999  12.0480003  46.4589996
  20.9939995  11.6309996  46.0419998  21.8680000  12.7980003  45.8199997
  16.8129997   8.2989998  30.1410007  17.5139999   9.0480003  30.1459999
  17.4650002   7.5489998  30.0849991  18.2619991  23.2779999  48.3969994
  17.3509998  22.8570004  48.4729996  18.5389996  23.2299995  49.3059998
  11.9440002  18.0720005  40.5629997  11.4309998  17.3869991  41.0120010
  11.1780005  18.5499992  40.0820007  14.6339998  16.8090000  36.9749985
  15.5410004  16.6490002  37.2919998  14.8039999  17.4769993  36.2280006
  79.5110016  18.1870003  45.1640015  78.9250031  17.6429996  44.6510010
  80.3539963  17.6389999  45.1879997   9.9619999   8.4499998  22.2439995
   9.7550001   8.5290003  23.1879997  10.9270000   8.6459999  22.2719994
  13.3780003  24.4909992  23.5149994  13.5810003  25.3729992  23.2789993
  12.3870001  24.6180000  23.5930004  13.0279999  16.6949997  52.1290016
  12.5190001  17.0720005  51.3959999  12.5869999  17.2010002  52.8610001
  20.0310001  20.7719994  54.5740013  20.8750000  20.3610001  54.7480011
  19.6000004  20.7199993  55.4469986  71.6559982  13.7320004  59.4410019
  70.6839981  13.9259996  59.5439987  71.9110031  14.5389996  58.9259987
  11.4779997  18.7579994  18.4720001  12.4370003  18.9319992  18.5160007
  11.4540005  17.8920002  18.9279995  53.9630013  85.8140030  25.2910004
  53.3370018  86.4179993  24.8880005  54.7680016  86.1490021  24.9349995
  53.5950012  86.2009964  31.5930004  53.8750000  87.0680008  31.2369995
  53.2060013  86.4580002  32.4539986   7.5980000  10.5790005  38.6329994
   7.7230000   9.6120005  38.8120003   8.5930004  10.8439999  38.7220001
  57.1489983  75.3270035  30.5809994  57.7669983  74.6460037  30.3120003
  56.3320007  75.0400009  30.1329994  17.5879993   8.8879995  26.7730007
  18.0890007   8.6969995  27.5879993  18.2830009   8.7189999  26.1170006
  51.1829987  82.7620010  20.6219997  50.4389992  83.1579971  21.1569996
  51.6279984  83.5410004  20.2649994   6.8620000  21.6130009  30.0849991
   6.7179999  21.0720005  30.9290009   6.2919998  21.1849995  29.4260006
  57.8120003  82.2649994  27.7870007  57.6619987  83.1650009  28.1660004
  57.0379982  82.1470032  27.1900005  76.9169998  19.1329994  38.6559982
  77.8280029  18.7380009  38.5690002  76.6760025  19.2880001  37.7270012
  13.1490002  15.0220003  43.7000008  12.5319996  15.3020000  42.9790001
  14.0120001  15.0880003  43.2910004   5.0200000  21.1870003  22.5660000
   4.7049999  22.1130009  22.3339996   5.8520002  21.1539993  22.0809994
  78.9950027  16.1630001  25.1119995  78.8690033  15.3070002  25.6149998
  79.8939972  16.3560009  25.3759995  12.5050001  28.8719997  38.4920006
  12.4580002  28.8309994  39.4630013  13.1639996  29.5849991  38.3479996
  12.7650003  13.0480003  48.7659988  13.6020002  13.4020004  48.4620018
  12.5670004  12.3459997  48.1440010  54.1080017  82.0899963  35.0620003
  54.9119987  82.4879990  34.8440018  54.1160011  81.2399979  34.6129990
  12.1639996  12.6650000  44.3810005  12.5360003  13.5200005  44.1010017
  11.3959999  12.6300001  43.7669983  17.5779991  13.7069998  33.6160011
  16.9750004  13.3319998  34.2019997  17.1280003  14.5810003  33.4109993
  16.0459995   8.7720003  35.1640015  15.0740004   8.6180000  35.3499985
  16.1660004   8.1049995  34.4339981  79.1190033  15.1219997  54.6199989
  79.9160004  14.9969997  55.1850014  79.3939972  15.9510002  54.1949997
   2.8239999  12.6840000  50.9819984   3.1400001  12.0019999  50.3370018
   3.2739999  13.5349998  50.7550011  10.4480000   8.0349998  31.8190002
   9.9429998   8.3839998  31.0429993  10.3640003   7.1250000  31.7369995
  10.5900002  21.0240002  30.0200005   9.9829998  21.7609997  30.1849995
  10.2200003  20.7520008  29.1089993  17.7380009   9.2150002  39.7350006
  18.6490002   8.9820004  39.4029999  17.9540005   9.9779997  40.2890015
  35.5149994  41.1030006  84.0319977  36.2400017  40.8349991  83.4800034
  35.3199997  40.2760010  84.5449982  15.0389996  31.7129993  52.3390007
  14.3450003  31.0119991  52.5410004  14.7390003  31.9249992  51.4459991
  21.2080002  19.6580009  44.2910004  20.7940006  19.1089993  44.9869995
  22.1450005  19.3360004  44.4020004  18.6089993  13.8760004  52.2669983
  18.9319992  14.4560003  51.5499992  17.7150002  14.2340002  52.3779984
  79.0179977  25.1620007  29.4580002  78.4990005  25.8959999  29.1930008
  78.5839996  24.7910004  30.2619991  10.8999996  13.7570000  36.6300011
  11.4940004  12.9729996  36.8530006  11.4359999  14.4309998  37.0999985
  18.0419998  24.8120003  57.8440018  17.1840000  24.8230000  57.3670006
  18.5569992  25.4179993  57.2330017   6.8720002   9.2110004  28.9689999
   6.8569999   8.4899998  29.5660000   6.0000000   9.6180000  29.0769997
   6.5890002   8.4169998  34.7109985   7.2570000   8.2349997  35.4099998
   6.4400001   9.3649998  34.9490013   4.2550001  17.0270004  38.1389999
   5.1430001  17.3160000  38.3149986   4.0510001  17.3360004  37.2169991
  54.1780014  81.3550034  43.5009995  55.1599998  81.3789978  43.5000000
  53.9729996  82.2320023  43.8040009   7.1780000  25.4270000  42.4090004
   7.2140002  24.4629993  42.1599998   6.6230001  25.3069992  43.2050018
   8.9280005  26.9909992  29.1980000   9.0170002  26.0820007  28.8689995
   8.1590004  26.8820000  29.7980003   9.9809999   6.1360002  56.5470009
  10.2170000   6.1570001  55.6010017  10.8439999   6.4210000  56.9150009
   8.7220001  18.3640003  32.6870003   9.6389999  18.4920006  32.4150009
   8.6520004  17.4080009  32.4220009  79.2109985  24.4489994  46.6710014
  79.1200027  24.0890007  45.7680016  78.9140015  23.6270008  47.1730003
  10.5459995  10.4010000  50.5250015  10.1599998   9.5179996  50.6290016
  11.0679998  10.2489996  49.7179985  11.5530005  11.9940004  30.7840004
  12.4440002  11.8240004  30.3670006  11.0290003  11.2220001  30.4960003
  13.6040001   6.2090001  38.9640007  14.4560003   6.5029998  39.3810005
  13.8900003   5.2379999  38.8269997  14.4099998   9.2889996  30.5720005
  15.3719997   9.1239996  30.4410000  14.3459997  10.1980000  30.0919991
   1.1120000  21.7870007  31.2679996   0.3610000  21.8090000  30.5779991
   0.8380000  20.9549999  31.7189999  15.7559996  11.5039997  42.2369995
  15.8380003  11.7010002  43.2080002  15.8879995  12.3830004  41.8769989
   5.0440001  13.6350002  29.2259998   4.2290001  13.1440001  29.2019997
   4.9330001  14.1650000  28.4039993  54.6710014  83.7590027  30.2970009
  53.9449997  83.7919998  29.6590004  54.4860001  84.6449966  30.7369995
  53.1370010  85.9599991  48.0279999  52.3489990  86.5250015  48.1320000
  53.5600014  86.1090012  48.8610001   3.3820000  17.7609997  32.7500000
   3.1120000  16.8020000  32.6930008   3.8550000  17.6970005  33.5940018
  47.0379982  48.2540016   1.3870000  46.4690018  49.0330009   1.5350000
  47.9150009  48.6599998   1.6860000   8.6309996   8.2240000  50.2299995
   8.6459999   7.5180001  50.8989983   8.0740004   8.9010000  50.6100006
   7.2770000  21.1429996  40.8260002   7.2459998  22.0249996  40.3940010
   7.8579998  21.2479992  41.5830002  12.1599998  14.2419996  34.3660011
  12.1309996  13.2390003  34.2130013  11.5699997  14.1700001  35.1479988
  23.3419991  12.0609999  35.5789986  24.3010006  11.7620001  35.3810005
  22.9099998  11.2559996  35.3129997   2.4210000  15.3710003  32.2639999
   2.9280000  14.9099998  31.5799999   1.9360000  14.6960001  32.6949997
  19.1590004   6.5720000  30.5520000  19.4930000   6.6750002  29.6580009
  19.8519993   7.1190000  31.0270004  58.6990013  77.3499985  25.4169998
  58.0730019  76.6719971  25.0849991  59.5719986  76.8949966  25.1130009
  32.6430016   3.0030000  46.2109985  32.8889999   2.5139999  45.4269981
  33.2980003   3.7660000  46.1860008   3.4619999  22.8980007  41.0470009
   4.1009998  22.3840008  41.5489998   2.7960000  22.1340008  40.8510017
   5.1220002  18.0529995  30.5540009   4.3140001  18.0650005  31.1660004
   4.7189999  17.5440006  29.8269997  66.0329971  72.1559982  34.6189995
  65.8130035  72.0630035  35.5449982  65.2330017  71.8580017  34.1459999
  15.5400000   1.5570000  37.8899994  16.1679993   0.7680000  37.7630005
  15.2729998   1.5779999  36.9129982   9.4410000  15.9930000  36.9049988
  10.0730000  16.5429993  36.3390007   9.7600002  15.0869999  36.7120018
  19.0790005   7.7960000  24.8570004  18.5330009   6.9419999  24.8050003
  19.9699993   7.3639998  24.7040005   8.4870005   6.1609998  45.5950012
   8.3219995   6.9200001  44.9410019   8.4160004   6.7340002  46.4109993
  66.5049973  63.4020004  41.3759995  67.3740005  63.2830009  40.9970016
  66.7330017  63.7900009  42.2529984   5.1910000   9.8039999  37.5390015
   5.2249999   8.8789997  37.8590012   5.9180002  10.2069998  38.0379982
  77.5820007  17.4500008  28.9400005  77.3089981  18.0860004  29.6000004
  78.4580002  17.1860008  29.3840008  52.3380013  82.9889984  28.6569996
  52.8569984  82.9479980  27.8220005  51.4329987  82.9020004  28.2740002
  16.4230003   5.1980000  38.0779991  16.4430008   5.7579999  38.8899994
  16.9810009   4.4429998  38.3619995  26.1669998   1.3780000  21.0720005
  26.1189995   2.3620000  21.0310001  26.4979992   1.1289999  20.2089996
  10.3490000  11.5100002  28.0499992  11.1250000  12.1070004  27.9850006
  10.0059996  11.6829996  27.1429996   5.4400001  21.2450008  35.9990005
   5.5780001  22.0930004  35.5309982   5.0170002  20.7299995  35.3019981
  72.3489990  16.1970005  42.0279999  72.6289978  15.5489998  42.7089996
  71.6719971  16.7059994  42.5410004   2.1180000  16.4650002  24.5569992
   2.5650001  17.1720009  25.0079994   1.6790000  17.0289993  23.8150005
  18.8279991  36.0550003  33.8219986  18.7530003  35.1180000  33.5629997
  19.5830002  36.3100014  33.2480011  11.3979998  17.6560001  35.1759987
  11.5100002  18.1790009  34.4099998  12.2189999  17.1149998  35.2430000
  30.5919991  24.9260006  33.9039993  29.8430004  25.2590008  33.3380013
  30.3330002  25.2670002  34.7719994  17.1709995  16.4880009  37.7319984
  17.0079994  17.0709991  38.5130005  18.0839996  16.3199997  37.8050003
   8.1339998  16.8050003  41.7179985   9.0229998  17.1219997  41.9220009
   8.1450005  16.9650002  40.7220001  19.0219994  26.7590008  32.0299988
  18.8449993  26.7910004  32.9850006  18.6410007  27.6490002  31.7730007
  11.6599998  25.6620007  43.6090012  11.1389999  25.9549999  42.8629990
  12.0769997  26.5310001  43.9099998  79.1259995  33.9099998  48.4550018
  79.1910019  34.3059998  47.5760002  79.6210022  33.0929985  48.2739983
  13.3269997  15.6610003  46.3079987  12.5649996  15.3850002  46.7389984
  13.2209997  15.1969995  45.4129982   6.9870000  24.5930004  24.4459991
   6.3189998  25.2380009  24.2040005   7.1840000  24.1149998  23.6439991
  19.5330009  28.7320004  41.1510010  20.4580002  28.7549992  40.7200012
  19.4139996  27.7560005  41.1010017  26.8659992  18.4230003  34.5050011
  27.7910004  18.6299992  34.7869987  26.9500008  17.4689999  34.3899994
  31.3190002  22.8640003  36.4239998  31.7840004  23.6739998  36.7949982
  31.3729992  23.1590004  35.4560013  14.8479996  23.7560005  30.5230007
  14.6879997  23.2439995  31.3430004  14.3439999  23.1609993  29.8969994
  13.5710001  15.6000004  27.7380009  13.1120005  16.2910004  27.2140007
  14.2119999  15.2480001  27.1140003  27.2539997  14.8710003  36.7719994
  26.4599991  15.1850004  36.3440018  27.8129997  14.5780001  36.0110016
  10.7340002  24.6970005  23.6870003  10.1730003  25.0750008  24.4220009
  10.6850004  23.7420006  23.9449997  16.4839993  36.0349998  47.5419998
  16.0340004  36.4930000  46.7830009  17.1599998  36.7039986  47.6920013
  21.7509995  20.8939991  37.3750000  21.2119999  20.1550007  37.7330017
  22.6369991  20.6100006  37.7929993  23.1189995  22.7590008  42.4070015
  23.4640007  22.2549992  43.1860008  22.1819992  22.6539993  42.5890007
  21.2269993  24.3840008  32.0579987  21.2180004  25.2819996  32.4169998
  21.0359993  24.7070007  31.1009998   8.9390001  23.1369991  30.5839996
   8.9300003  23.0230007  31.6340008   8.0730000  22.7229996  30.4470005
  12.0030003  35.1459999  26.6949997  12.5819998  34.6170006  26.1340008
  11.2430000  35.1819992  26.1219997  14.9569998  30.4109993  42.1489983
  15.9630003  30.4340000  42.3240013  15.0059996  30.1669998  41.2000008
   8.7399998  19.1170006  36.2260017   7.9000001  18.6770000  35.9570007
   9.1750002  19.1800003  35.3370018  16.7520008  29.4689999  25.2299995
  15.8669996  29.1790009  25.4860001  16.8880005  29.0039997  24.4169998
  19.0809994  35.5270004  39.3219986  19.0160007  34.7099991  38.7550011
  18.3470001  36.1030006  38.9109993  15.6099997  26.1879997  60.5499992
  14.9399996  25.5370007  60.1889992  16.4249992  25.6690006  60.4620018
  24.6450005  23.7029991  40.2459984  23.9230003  23.2329998  39.7789993
  24.3799992  23.5580006  41.1730003  20.6200008  38.7290001  40.6580009
  19.7530003  39.0009995  40.2659988  20.9529991  38.1920013  39.9150009
  15.2440004  29.8360004  39.4560013  16.1819992  29.8910007  39.7490005
  15.3240004  29.8799992  38.4529991  20.3099995  16.5259991  36.9869995
  21.1989994  16.1480007  36.8120003  20.0839996  16.8059998  36.0639992
  18.3199997  23.2819996  40.2190018  18.4459991  23.6930008  41.1339989
  19.2040005  22.7490005  40.2480011  18.6669998  17.0209999  41.4370003
  18.2159996  17.1380005  42.2459984  18.2119999  17.5470009  40.8040009
   9.8990002  30.1609993  47.3380013  10.6309996  29.5690002  47.4710007
  10.2370005  30.8980007  46.8400002  11.4429998  28.4290009  44.8779984
  11.8170004  29.1130009  44.3660011  10.5080004  28.4440002  44.5589981
  19.7469997  26.6359997  26.4689999  18.7950001  26.5949993  26.8129997
  20.0450001  27.3950005  27.0890007   9.9469995  24.9090004  45.6080017
  10.2430000  25.1369991  44.7010002  10.6470003  24.2000008  45.7729988
   1.3890001  23.8400002  24.2099991   1.9809999  24.2070007  24.9710007
   0.5510000  24.3199997  24.4449997  20.4519997  34.3950005  41.4049988
  21.2660007  34.0740013  40.8950005  19.9139996  34.6739998  40.6290016
   8.9169998  14.9289999  20.5839996   8.3240004  14.4259996  21.2570000
   8.2889996  14.8660002  19.8320007  15.7410002  22.5790005  49.1129990
  14.8629999  22.9710007  48.8269997  15.4180002  22.2350006  49.9770012
  15.2229996  27.7299995  43.8440018  14.9359999  27.0909996  43.1310005
  15.3009996  28.5660000  43.2960014  24.7800007  27.5070000  43.2330017
  25.2259998  28.1919994  42.6839981  24.1919994  27.0820007  42.5589981
  13.5719995  32.8079987  30.5750008  12.9320002  33.0019989  29.8549995
  14.3450003  33.3260002  30.3460007  10.1400003  21.9540005  40.2669983
   9.9309998  22.7679996  39.7260017  11.0959997  22.1709995  40.4199982
  14.6499996  26.0970001  26.6749992  14.3240004  26.4029999  27.5410004
  14.3699999  26.8409996  26.1159992   5.8930001  34.3180008  42.5740013
   5.7470002  35.1240005  41.9869995   5.1710000  33.7620010  42.2070007
   2.3120000  18.4190006  48.0270004   2.8959999  19.1469994  48.2630005
   2.9180000  17.8050003  47.5410004  11.6730003  17.7329998  49.7770004
  11.3610001  16.9640007  49.2620010  10.8470001  18.0499992  50.2019997
  11.3339996  41.6829987  42.3580017  11.0299997  40.8730011  42.7729988
  12.2290001  41.7449989  42.7490005  12.5360003  30.4459991  43.3499985
  12.1309996  30.3729992  42.4669991  13.4729996  30.2159996  43.1150017
  16.9839993  23.5629997  24.7010002  16.4139996  23.2189999  25.4190006
  17.8139992  23.6849995  25.1830006  14.1590004  39.1650009  53.5849991
  14.8780003  38.4790001  53.4119987  13.9799995  39.3889999  52.6440010
  18.3290005   7.8439999  36.6829987  17.7029991   7.2340002  37.1679993
  17.5939999   8.3490000  36.2249985  78.2710037  26.3630009  38.9560013
  77.7239990  25.8290005  39.5719986  77.8960037  25.9309998  38.0989990
  30.3799992  26.3530006  36.4840012  30.4610004  26.8579998  37.3569984
  31.2810001  25.8560009  36.5909996  10.1099997  28.5559998  27.4009991
  10.1309996  29.3500004  27.8889999   9.7259998  27.9020004  27.9979992
  15.3540001  18.0869999  34.6870003  14.7399998  18.0370007  33.9339981
  15.5139999  19.0419998  34.7680016  18.1000004  22.3540001  35.1180000
  18.8770008  22.2140007  34.4780006  18.4039993  21.7080002  35.8240013
  19.9799995  22.2450008  33.2929993  20.5730000  22.9510002  32.9469986
  20.5289993  21.4549999  33.1870003  13.5010004  25.8780003  29.1809998
  12.6599998  25.6749992  29.6310005  14.1409998  25.2849998  29.6389999
  22.3530006  31.3519993  36.7570000  22.6079998  30.4090004  36.8909988
  22.1819992  31.2460003  35.7729988  16.4080009  39.4519997  43.4599991
  16.0060005  38.7770004  44.0550003  16.7900009  40.0260010  44.1259995
   8.1789999  28.5949993  38.6409988   7.5580001  28.2749996  39.3100014
   8.4659996  29.4290009  39.0159988  27.5109997  35.3520012  33.1520004
  26.5520000  35.2779999  33.2869987  27.5779991  36.2649994  32.8260002
   6.0590000  14.8669996  31.4200001   5.5929999  14.2480001  30.8199997
   6.4260001  15.4790001  30.8099995   8.2629995   8.4469995  43.8699989
   9.1379995   8.2609997  43.4430008   7.7080002   8.2370005  43.0460014
  13.8549995  19.9750004  27.1229992  13.3409996  19.2530003  27.5419998
  13.2709999  20.2700005  26.4169998  10.7390003  40.2830009  24.8169994
   9.8459997  39.8580017  24.7059994  11.2100000  39.5989990  24.2430000
  28.7859993  32.6990013  32.9169998  28.4069996  33.5309982  33.1669998
  29.6959991  32.9840012  32.6780014  10.9779997  27.8339996  30.7900009
  10.3210001  27.5289993  30.0660000  11.0270004  27.0100002  31.2989998
  13.4910002  11.5930004  26.6040001  13.9370003  11.0400000  25.9510002
  12.6940002  11.8889999  26.0990009  31.2770004  29.8220005  31.1970005
  31.6739998  29.5610008  30.3239994  31.9300003  30.5820007  31.3689995
  12.7709999  24.9909992  35.7190018  13.1980000  25.8780003  35.6910019
  12.1560001  25.0960007  36.4809990  20.9950008  24.9559994  29.5279999
  21.0730000  24.4060001  28.7080002  20.5400009  25.7259998  29.1350002
  17.9150009  17.9759998  28.0930004  18.4480000  17.3899994  27.5119991
  17.6089993  18.5709991  27.3939991   3.1540000  24.8279991  43.4109993
   3.0239999  24.7900009  42.4529991   3.0530000  23.9080009  43.7019997
  21.3880005  15.3970003  39.5040016  20.7800007  15.8990002  38.9809990
  21.7140007  14.7080002  38.9020004  19.1669998  25.9619999  18.5219994
  19.9720001  26.3490009  19.0440006  19.6919994  25.5790005  17.7609997
  12.4209995  30.7759991  31.8889999  12.9569998  31.3899994  31.4039993
  12.4410000  29.9599991  31.3519993  21.4799995  26.4309998  35.5859985
  21.1949997  25.4950008  35.7190018  20.6000004  26.8390007  35.3650017
  10.7329998  21.3069992  33.5000000  11.3920002  21.5090008  34.2299995
  10.0970001  22.0149994  33.7719994  22.3540001  31.2360001  34.1399994
  21.7080002  30.7840004  33.5919991  23.1580009  31.2530003  33.6030006
  20.1299992  20.3250008  49.2400017  19.8549995  21.0160007  49.8829994
  20.4899998  20.9160004  48.5099983  23.0170002  29.4360008  41.7570000
  23.9759998  29.3680000  41.4970016  22.6539993  28.9379997  40.9770012
  11.4790001  24.7059994  30.3470001  11.4770002  25.0079994  31.3069992
  11.5459995  23.7199993  30.4890003  23.8719997  36.2330017  38.6040001
  23.0419998  36.7799988  38.4169998  23.7250004  35.4790001  37.9869995
   3.3350000  30.1389999  34.6850014   3.0660000  31.0070000  35.0550003
   3.2609999  29.5869999  35.5139999   1.8860000  13.7049999  35.9469986
   1.9920000  13.3339996  36.8909988   2.8540001  13.5270004  35.6430016
   9.0880003  21.7929993  42.6699982   9.9219999  21.5680008  43.1889992
   9.5430002  21.9270000  41.7659988  25.3869991  30.3209991  45.3950005
  24.8169994  30.7819996  46.0719986  25.4470005  31.0219994  44.7130013
  16.6100006  18.2749996  39.8009987  16.7679996  19.2240009  39.6259995
  15.8660002  18.3549995  40.4039993  17.8099995  27.3050003  52.2719994
  18.1779995  26.5890007  52.8569984  17.9029999  28.0739994  52.9589996
   8.5570002  17.4020004  39.1549988   9.1409998  18.2240009  39.1160011
   8.9429998  16.9379997  38.3839989   9.7729998  28.5000000  49.5359993
   9.5810003  28.9360008  48.6790009   9.7290001  27.5489998  49.2400017
   4.4349999  16.8230000  35.3310013   5.4010000  16.9659996  35.3079987
   4.4619999  15.8190002  35.2910004  30.6800003  29.7000008  38.7830009
  30.5060005  30.6749992  38.9599991  31.3120003  29.7870007  37.9920006
   8.4469995  26.6089993  36.6930008   8.6090002  27.4130001  37.2630005
   7.5619998  26.3339996  36.9620018  24.5730000  25.2320004  28.7000008
  24.9659996  25.4969997  27.8449993  23.8640003  25.9589996  28.6609993
  76.8590012  15.4099998  38.6710014  76.4970016  14.6239996  38.2420006
  77.7839966  15.3710003  38.3250008  16.4160004  25.9449997  45.2919998
  15.8990002  26.6590004  44.8769989  15.8120003  25.1840000  45.0989990
  19.9629993  27.5480003  48.3160019  20.1599998  27.2689991  49.2130013
  19.4230003  26.8050003  47.9580002  11.0950003  32.4519997  37.5890007
  10.9370003  31.5919991  37.0569992  11.0509996  33.0960007  36.8899994
  10.2150002  13.7510004  32.2649994  10.7760000  13.0839996  31.7420006
  10.9540005  14.1599998  32.7330017  18.3069992  10.9270000  41.9160004
  17.3290005  11.0609999  42.0009995  18.6340008  11.8570004  41.8510017
   9.7370005  39.5779991  33.0660019   8.8350000  39.1469994  33.1870003
  10.1120005  38.9570007  32.4049988   9.3970003  26.8990002  33.8520012
   9.1289997  26.6170006  34.7519989   8.4610004  26.7549992  33.4570007
   6.9870000  37.8919983  36.3950005   6.8690000  37.8629990  37.3289986
   7.9520001  38.1049995  36.3460007  13.1029997  30.2320004  34.7939987
  12.7950001  30.3120003  33.8559990  13.9610004  30.7649994  34.7340012
  17.0660000  20.3279991  23.4239998  16.6159992  20.9990005  22.9360008
  16.6730003  20.4050007  24.3239994  21.3889999  33.0849991  30.0569992
  21.0480003  33.3149986  29.1340008  22.3250008  33.5349998  30.0300007
  19.8120003  41.5579987  37.9140015  19.7749996  42.0779991  37.1059990
  18.9200001  41.8339996  38.2989998  16.1580009  27.8029995  29.2810001
  16.6539993  26.9769993  29.3509998  15.2600002  27.5090008  29.4220009
   7.1950002  23.8460007  40.1010017   6.6020002  23.8969994  39.3390007
   7.6050000  24.7420006  40.1570015  20.5799999  31.4890003  39.2529984
  20.7019997  30.7070007  38.7500000  21.4270000  31.9899998  39.1290016
  17.6959991  29.8460007  42.7490005  18.3719997  29.5219994  42.1629982
  17.6490002  29.1130009  43.4059982  26.8549995  34.1959991  29.6000004
  26.9080009  35.1090012  29.8670006  26.8589993  34.2939987  28.5960007
  10.6350002  13.0620003  42.2099991   9.7749996  13.5010004  42.1809998
  11.1719999  13.7860003  41.7900009  20.8190002  13.5050001  53.6990013
  19.9619999  13.6780005  53.2400017  20.8430004  14.3769999  54.2130013
   9.8059998  24.0149994  38.1839981   9.8719997  24.9120007  37.8440018
   9.4709997  23.5380001  37.3969994   7.5229998  32.5029984  24.5240002
   7.9559999  31.7719994  25.0300007   7.3709998  33.2099991  25.1259995
  49.3530006  45.2900009  -1.1890000  49.3959999  46.2179985  -1.5220000
  49.5239983  45.4910011  -0.2450000   8.9740000  28.8869991  43.6100006
   8.7709999  29.8799992  43.5250015   8.0799999  28.4899998  43.6380005
   9.3409996  36.1069984  29.7049999   8.5979996  35.5040016  29.7350006
   9.4270000  36.2070007  28.7280006   6.5419998  31.7800007  28.1359997
   6.6830001  32.6780014  27.8220005   7.3610001  31.6060009  28.6100006
  10.9150000  33.3979988  34.9980011  10.0970001  32.9669991  34.7659988
  11.3319998  33.5040016  34.0929985  74.0410004  26.9029999  48.8470001
  73.9110031  27.2970009  49.7529984  73.6289978  25.9799995  49.1479988
   4.4000001  11.4910002  31.5259991   4.3779998  10.6029997  31.8939991
   5.3290000  11.5749998  31.1550007  13.7360001  31.1459999  47.7779999
  14.4490004  31.6879997  47.5349998  13.3730001  30.7900009  46.9729996
   9.7770004  24.5790005  28.0529995   9.3500004  23.9769993  28.7199993
  10.7200003  24.4050007  28.2740002   5.5510001  30.3950005  47.2849998
   4.8709998  30.7469997  47.9290009   5.5240002  29.4379997  47.5340004
   2.8780000  30.0139999  42.4360008   3.4010000  30.1569996  43.2779999
   2.6520000  29.1340008  42.4830017  25.7630005  29.2749996  41.2820015
  26.1310005  30.1630001  41.5779991  26.4069996  29.0930004  40.5730019
   8.9119997  15.6700001  47.1469994   9.6759996  15.5979996  47.8079987
   8.7110004  14.7150002  47.0929985  10.1969995  10.8839998  38.8129997
  11.0139999  11.0509996  38.2420006  10.5880003  10.6639996  39.6520004
  13.4010000  36.6839981  43.7849998  14.1169996  36.2410011  43.3639984
  12.9530001  35.8969994  44.1870003   3.9370000  10.0389996  34.9840012
   4.1059999  10.1289997  35.9059982   4.7839999  10.3090000  34.5589981
  19.0939999  33.5019989  37.8829994  19.6429996  32.7570000  38.2360001
  19.2880001  33.4469986  36.9749985   7.1960001  21.3470001  44.3100014
   7.9699998  21.6119995  43.7190018   7.3600001  22.0769997  44.9609985
  14.2290001  16.1009998  40.8650017  13.3319998  16.2080002  40.4840012
  14.2860003  16.9869995  41.3199997   9.8160000   8.9259996  24.8810005
   9.8120003   9.7840004  25.3990002  10.5080004   8.3889999  25.3670006
  54.4990005  77.8990021  23.9790001  53.5750008  77.6330032  23.6350002
  55.0400009  77.2600021  23.4610004  12.6420002  22.3680000  35.0040016
  12.8299999  21.9470005  35.8769989  12.8490000  23.3430004  35.2490005
  13.7080002   6.3169999  29.8659992  13.8780003   7.2430000  30.1499996
  13.3330002   6.4930000  28.9570007  18.8680000  13.5590000  45.9640007
  18.9629993  12.7379999  45.4799995  18.0319996  13.9350004  45.6399994
  22.1630001  32.9729996  26.0580006  22.8500004  33.3320007  26.6070004
  22.6450005  32.2430000  25.5779991  17.1410007  25.7460003  38.1510010
  17.5709991  25.2180004  37.4119987  16.9549999  26.5909996  37.6370010
  16.5669994  26.9459991  23.9270000  17.4519997  26.5100002  23.7590008
  16.3160000  26.3759995  24.6980000  13.8210001   3.4340000  38.4729996
  14.4569998   2.6710000  38.4379997  13.1280003   3.1220000  39.0919991
  23.3470001  18.5240002  34.4389992  22.9069996  17.6700001  34.1150017
  22.5030003  19.0529995  34.5369987  17.3290005  19.9309998  31.9699993
  16.9060001  20.4060001  32.7340012  16.7630005  20.2269993  31.2350006
  75.5899963  25.6550007  29.4279995  76.0469971  26.4710007  29.0890007
  74.9940033  26.1529999  30.0830002  26.1270008  30.6250000  35.7949982
  26.3980007  30.6739998  34.8709984  25.6100006  29.7880001  35.7630005
   8.7170000  22.3369999  36.2789993   8.1899996  21.5130005  36.3540001
   9.0550003  22.3479996  35.4039993   7.1420002  30.6860008  22.4790001
   8.1000004  30.5510006  22.3129997   7.1869998  31.6030006  22.8369999
   4.1690001  20.5310001  38.2750015   4.7849998  19.8080006  38.6580009
   4.7969999  20.7570000  37.5110016   9.6910000  30.1399994  31.8869991
  10.5600004  30.5039997  32.1790009  10.0260000  29.2919998  31.5090008
   7.4650002  34.8069992  51.4070015   6.9510002  34.7639999  52.2140007
   7.0609999  34.1010017  50.8950005  11.9460001  26.7350006  53.1059990
  12.6370001  27.0119991  53.6819992  11.5179996  25.9839993  53.5530014
  21.7700005  29.3069992  47.2369995  21.1529999  28.7280006  47.6339989
  22.5429993  29.1539993  47.8479996  23.2380009  21.8780003  50.2010002
  22.5130005  21.4799995  49.7750015  23.9410000  21.2830009  50.0830002
  15.7989998  30.3589993  36.4480019  15.1490002  31.0750008  36.6990013
  15.9480000  30.6469994  35.5159988  14.5740004  17.7119999  47.4370003
  14.0579996  17.0540009  46.9480019  13.9480000  18.4400005  47.5050011
  79.2990036  25.4080009  43.1020012  79.6719971  24.5109997  42.9840012
  78.4850006  25.2810001  42.5400009  26.5030003  30.1320000  48.5540009
  25.7840004  30.7570000  48.4970016  26.5359993  29.9470005  49.4790001
  27.1849995  25.8110008  43.3440018  26.4839993  26.4610004  43.0849991
  27.1560001  25.2070007  42.5320015  16.3320007  24.1819992  33.4550018
  16.9979992  23.6919994  33.9900017  15.6719999  23.4529991  33.2970009
   5.4870000  25.3630009  44.5019989   5.4359999  24.6030006  45.1160011
   4.5330000  25.3020000  44.1399994  25.3129997  11.6840000  53.5880013
  25.4619999  10.9530001  52.9550018  24.2980003  11.6359997  53.5180016
   3.4700000  21.1609993  47.2820015   3.9909999  21.9529991  46.9640007
   2.8570001  21.6900005  47.8810005  15.8090000   9.9259996  25.0200005
  16.3220005   9.5380001  25.7619991  16.0709991  10.8739996  25.0779991
  13.9440002  33.5050011  26.0279999  14.7580004  33.5000000  26.5599995
  14.3090000  33.9199982  25.2189999  20.0400009  34.0139999  32.3580017
  20.4680004  33.5149994  31.6259995  20.7539997  34.6510010  32.5670013
  12.7220001  15.1499996  38.1479988  13.3680000  14.3950005  38.2080002
  13.3620005  15.7469997  37.6310005  18.4710007  29.5879993  27.6970005
  18.2910004  29.4500008  26.7609997  17.8129997  29.0209999  28.0879993
  24.7189999  36.3820000  32.1899986  24.8139992  37.2500000  32.5340004
  25.4009991  36.3429985  31.5039997  15.7290001  25.4050007  51.5040016
  15.7139997  24.7560005  50.7610016  16.4650002  25.9669991  51.2500000
  11.5909996  16.7110004  30.8199997  12.4809999  16.5990009  31.2590008
  11.2360001  17.4120007  31.4130001  79.4079971  15.7229996  37.7379990
  78.9059982  16.2789993  37.0460014  80.3109970  16.0599995  37.4609985
  23.3320007  11.7019997  29.0139999  23.9370003  12.3579998  28.6779995
  23.9279995  11.2180004  29.6599998  30.7310009  32.4099998  39.8160019
  31.1620007  32.5600014  40.6910019  31.3330002  33.0149994  39.2869987
  22.2980003  13.2019997  60.6759987  21.9430008  12.8830004  61.5379982
  21.7220001  12.7790003  60.0610008  12.6400003  32.3440018  50.1720009
  12.0979996  32.7980003  49.4440002  13.1420002  31.7119999  49.6349983
  14.5909996  22.1250000  32.8009987  14.2770004  21.9029999  33.7299995
  14.1280003  21.3710003  32.3129997  16.9710007  25.3549995  29.7989998
  17.6270008  25.2220001  30.5009995  16.3080006  24.6450005  30.0060005
  18.5799999  25.5160007  46.9729996  17.6889992  25.7059994  46.5940018
  18.4629993  24.7339993  47.5040016  18.5559998  14.9420004  39.9480019
  18.5790005  15.8070002  40.4269981  17.6089993  14.7980003  39.8790016
  75.6289978  23.7789993  37.6189995  75.3769989  23.0450001  37.0410004
  76.2320023  24.2539997  37.0610008  10.9420004  21.5890007  54.1689987
  11.8050003  21.2029991  53.8470001  11.1260004  21.8460007  55.0709991
  17.2819996  26.0119991  27.1259995  16.2220001  25.9909992  27.0550003
  17.2830009  25.7500000  28.1070004   6.8870001  28.4340000  31.0909996
   6.1479998  28.8449993  31.5849991   7.5869999  28.9829998  31.4480000
   7.1290002  17.0009995  35.3639984   7.4860001  16.4820004  34.5859985
   7.7919998  16.6149998  36.0390015  13.0330000   9.8230000  19.6289997
  12.4989996   9.0000000  19.7299995  13.2849998   9.9169998  20.5979996
   4.5000000  28.4449997  51.6100006   4.9720001  29.2299995  51.6839981
   3.7149999  28.6630001  51.0950012   6.8579998  36.8730011  26.9389992
   6.3889999  37.3059998  27.6720009   7.7490001  37.1170006  27.0860004
   6.4089999  27.6030006  44.1619987   5.5339999  28.0559998  44.0499992
   6.0999999  26.7210007  44.4300003  10.9259996  29.9629993  36.5219994
  11.1910000  29.4810009  37.3139992  11.7159996  29.9720001  35.9770012
  32.6129990  22.3490009  41.8489990  31.7420006  22.6739998  41.6199989
  33.0610008  22.4279995  40.9840012  22.3029995  11.9069996  22.5730000
  22.8400002  12.2080002  23.3530006  21.3869991  12.2030001  22.9009991
  14.8339996  19.1459999  41.6549988  14.2580004  19.7409992  41.1329994
  14.6960001  19.5660000  42.5470009  11.3820000  21.5709991  44.4140015
  10.8140001  21.1040001  45.1300011  11.9259996  22.0699997  45.0139999
  16.9340000  28.4820004  20.7549992  17.6340008  28.5319996  21.4440002
  16.2290001  28.9759998  21.1119995  12.0780001  26.5130005  40.3590012
  11.2010002  26.4309998  40.7739983  11.9069996  26.2590008  39.4350014
  28.1100006  19.0009995  23.8169994  28.5279999  18.5230007  23.0599995
  28.6910000  18.5699997  24.5510006  23.3490009  17.7740002  41.4720001
  23.6860008  17.1079998  42.1290016  24.0319996  18.4759998  41.6150017
   7.4679999  32.2400017  32.7350006   8.2980003  32.2299995  32.1959991
   7.6609998  31.5979996  33.4329987  19.2950001  23.9120007  25.9589996
  19.3220005  24.9489994  26.0160007  20.2220001  23.7450008  26.2199993
  26.3169994  21.3360004  38.5789986  26.0359993  21.5720005  39.4970016
  25.6149998  20.7140007  38.3219986   5.7709999  20.6490002  54.1030006
   5.1269999  20.1369991  53.5719986   5.1859999  21.3379993  54.4920006
  14.1650000  32.0999985  37.5089989  14.5790005  32.5379982  38.3380013
  13.7770004  32.9490013  37.1080017  11.6850004   4.5990000  27.5319996
  11.2489996   3.7230000  27.4529991  10.9379997   5.1939998  27.4890003
  24.4619999  33.7350006  32.7910004  24.8509998  33.6699982  33.7239990
  24.2500000  34.6489983  32.7070007  18.7189999  41.4900017  41.6580009
  18.2999992  40.6259995  41.5760002  18.3150005  41.9910011  40.9770012
  15.4180002  20.8209991  30.1380005  15.2100000  19.8610001  30.2630005
  14.5769997  21.0900002  29.6870003  20.4890003  21.7980003  40.6180000
  20.6989994  21.8349991  41.6129990  20.7159996  20.8279991  40.4879990
  16.0909996  32.5190010  22.4319992  15.8590002  32.3419991  21.5109997
  16.9260006  32.1129990  22.5270004  15.3500004  35.4249992  33.1409988
  14.7270002  36.0750008  32.7869987  16.1299992  35.6160011  32.5760002
  24.5730000  30.0960007  51.3750000  24.6910000  30.7800007  50.6669998
  23.6149998  29.9389992  51.2239990  32.9599991  33.9620018  34.1790009
  32.8759995  33.4370003  34.9589996  32.0439987  34.2430000  33.9749985
  26.3750000  32.7669983  37.3100014  26.2880001  31.9570007  36.7290001
  26.9680004  32.3779984  37.9589996  20.1550007  36.1010017  36.2109985
  20.5900002  35.2980003  35.9959984  19.4349995  36.0999985  35.4900017
  32.2779999  35.4129982  28.1650009  31.3439999  35.4599991  28.0949993
  32.5260010  36.3790016  28.3110008  32.3619995  14.0690002  33.6010017
  33.0830002  13.3509998  33.4939995  32.9519997  14.7749996  33.8250008
  12.4010000  42.0410004  38.1399994  13.0290003  42.7789993  38.2410011
  12.7240000  41.5649986  37.3479996  22.8770008  36.9889984  41.2179985
  22.2660007  37.7190018  40.8680000  23.1849995  36.6339989  40.3339996
  22.5860004  33.5660019  39.8860016  23.0160007  33.8919983  39.0159988
  23.4069996  33.5180016  40.4109993   4.6069999  33.3170013  37.8839989
   3.7700000  33.3790016  37.3750000   4.6220002  34.1829987  38.3219986
  22.4060001  28.5440006  36.9560013  23.2110004  28.6009998  36.4210014
  21.9650002  27.7830009  36.5909996  31.0380001  31.4099998  34.6959991
  30.5919991  32.2739983  34.6100006  31.6089993  31.4039993  33.9319992
  21.2970009  36.6230011  32.1739998  20.5139999  36.8499985  31.6669998
  22.0300007  36.8460007  31.6070004  15.9879999  35.6290016  43.1240005
  16.6590004  34.9239998  43.3899994  16.0020008  35.4749985  42.1370010
  14.4119997  41.6339989  35.7379990  14.7799997  40.7200012  35.7840004
  13.5889997  41.4790001  35.2500000  16.0790005  34.2949982  38.0209999
  15.9820004  34.1730003  36.9939995  17.0259991  34.0589981  38.0639992
  23.0349998  31.5970001  43.3699989  23.2360001  32.4099998  42.8479996
  23.2579994  30.9300003  42.6549988  19.3120003  18.5319996  35.0419998
  18.6709995  17.9020004  34.9220009  19.8279991  18.5109997  34.1879997
  27.8959999  31.9190006  39.5859985  28.8509998  32.1510010  39.7319984
  27.6369991  31.7880001  40.4990005  26.9990005  31.7649994  30.8239994
  27.5130005  32.2220001  31.5380001  26.8500004  32.4970016  30.2169991
  15.4420004  31.5739994  33.9280014  15.3160000  30.7409992  33.4580002
  16.0979996  31.9869995  33.3409996  28.1100006  38.9799995  34.3139992
  28.1380005  39.9539986  33.9580002  27.7779999  38.6290016  33.3899994
  18.1959991  31.6679993  30.0590000  18.9629993  31.7029991  29.4750004
  18.0489998  30.7159996  30.0680008  24.8430004  27.9330006  35.5139999
  25.6030006  27.6770000  36.1069984  24.9459991  27.2059994  34.8429985
  31.7469997  21.2679996  38.6170006  30.8610001  20.9050007  38.3219986
  31.9559994  21.7940006  37.8559990  21.7040005  41.3110008  39.6370010
  21.3540001  40.5470009  40.1920013  20.9960003  41.3639984  38.9959984
  15.1630001  46.4840012  42.3330002  16.1040001  46.8759995  42.3709984
  14.7440004  47.1139984  41.7299995  19.0599995  37.3199997  30.7670002
  18.9899998  37.7540016  29.8099995  18.1329994  37.0680008  30.8330002
  30.4740009  23.7339993  41.0699997  29.6790009  23.3980007  41.5989990
  30.1469994  23.4069996  40.1790009  28.6009998  29.5779991  30.6490002
  28.1200008  30.3829994  30.8549995  29.4449997  29.7000008  31.0979996
  13.9350004  36.4860001  28.5680008  14.7089996  36.6040001  27.9659996
  13.4010000  35.8180008  28.1049995  18.9529991  44.7190018  38.0699997
  19.3379993  45.5550003  37.7140007  19.0779991  44.1510010  37.2799988
  34.2550011  26.6240005  28.4750004  33.8139992  26.3439999  29.3649998
  33.4319992  26.9160004  28.0699997  30.9990005  27.0119991  31.0540009
  30.8330002  27.9750004  31.0990009  30.0410004  26.7199993  31.1119995
  17.5370007  43.0260010  39.8219986  16.8540001  42.8899994  39.1030006
  17.9759998  43.8219986  39.4150009  31.3700008  40.2760010  27.7229996
  32.1469994  40.8269997  27.5170002  31.1009998  40.6259995  28.5830002
  33.2550011  32.5779991  36.6020012  33.6370010  31.7119999  36.5299988
  33.5589981  32.8979988  37.4589996  15.8979998  46.3149986  33.5439987
  16.6849995  45.6790009  33.5740013  15.2349997  45.6959991  33.8969994
  33.5299988  39.5390015  31.0599995  34.2430000  39.1710014  31.6000004
  33.1399994  40.1839981  31.6639996  16.5580006  37.0509987  34.8170013
  16.1639996  36.2169991  34.4970016  17.4820004  36.9259987  34.3860016
  23.6580009  33.8149986  37.4819984  22.9650002  33.1259995  37.2350006
  24.4160004  33.2589989  37.2540016  27.0139999  15.3940001  33.6839981
  26.5279999  15.0799999  32.8969994  27.4209995  14.5649996  33.9539986
  10.9230003  31.5170002  54.8839989  11.4530001  31.8980007  54.1800003
  10.0889997  31.3209991  54.4179993  27.7450008  67.6460037  26.0720005
  28.0690002  68.5589981  26.3239994  26.9519997  67.6409988  26.6690006
  46.2500000  65.3349991  31.0049992  46.8219986  66.0500031  30.7360001
  46.0159988  65.6279984  31.9160004  26.2010002  67.1890030  42.3050003
  26.4029999  67.3310013  41.3429985  26.5370007  66.3020020  42.4669991
  41.5050011  59.7060013  34.9469986  41.8940010  59.0779991  34.3650017
  42.2560005  60.2239990  35.2270012  36.0660019  58.0699997  30.2789993
  35.4669991  57.8139992  29.5419998  35.3680000  58.5130005  30.8829994
  42.1119995  54.1780014  30.4519997  43.0750008  53.8650017  30.6849995
  42.1349983  54.9760017  31.0209999  54.3660011  67.5179977  44.3880005
  53.3629990  67.3809967  44.3800011  54.6310005  66.5999985  44.1290016
  43.8009987  67.4250031  29.2830009  43.6520004  66.4260025  29.3659992
  43.8619995  67.4390030  28.2689991  43.9799995  72.3330002  34.4449997
  44.5110016  71.6250000  34.0260010  43.7120018  71.9629974  35.2929993
  35.7010002  71.1230011  49.5600014  36.1269989  71.1389999  50.3940010
  35.5349998  72.0859985  49.4020004  39.4070015  72.2149963  36.0309982
  38.6090012  72.7529984  36.1479988  39.4150009  71.6449966  36.8230019
  58.6049995  75.2429962  39.3339996  59.1879997  75.0729980  38.5779991
  59.2459984  75.5889969  40.0209999  51.1440010  77.3870010  37.6839981
  50.5820007  77.5090027  38.4239998  51.4560013  76.4479980  37.7649994
  53.8549995  78.4759979  48.3289986  54.1710014  78.8259964  49.1780014
  52.9119987  78.6930008  48.3769989  52.9920006  63.9729996  42.1100006
  52.9010010  64.7109985  41.4650002  52.6580009  63.2599983  41.4690018
  34.7900009  65.6360016  29.9939995  34.1619987  65.2799988  30.6620007
  34.4389992  66.4940033  29.8160000  58.4360008  67.1090012  36.3219986
  57.8930016  66.3580017  36.4290009  58.0779991  67.7860031  36.9249992
  45.2430000  66.0250015  33.3129997  44.8370018  65.8710022  34.1769981
  45.1720009  66.9820023  33.1829987  59.2789993  66.2399979  40.6189995
  58.6310005  66.8040009  41.0289993  59.1889992  65.3850021  41.0839996
  35.2900009  62.3790016  26.5020008  35.0309982  63.2570000  26.8600006
  35.1590004  61.8479996  27.3360004  45.1310005  58.3510017  35.5309982
  45.4150009  57.4609985  35.2760010  45.1559982  58.2719994  36.5239983
  56.6689987  55.3470001  33.2980003  57.4379997  55.8050003  33.6790009
  56.6500015  54.5589981  33.9329987  41.8989983  64.1969986  26.4060001
  42.6150017  63.5970001  26.6100006  41.8120003  64.0869980  25.4069996
  51.2719994  79.1949997  48.7840004  50.4850006  79.2429962  49.3779984
  51.0239983  78.5210037  48.1360016  65.2819977   7.2540002  28.1410007
  64.3769989   7.1650000  28.5049992  65.7740021   6.6560001  28.7600002
  40.3470001  66.3000031  26.6919994  39.8559990  66.0220032  25.8490009
  41.0439987  65.5719986  26.6870003  52.7270012  65.8150024  40.1879997
  52.0760002  66.4400024  40.5919991  52.2260017  65.7289963  39.3380013
  37.8689995  69.5930023  27.2259998  38.6240005  70.2369995  27.6159992
  37.7589989  70.1070023  26.3840008  37.6370010  70.7210007  47.6529999
  37.2220001  71.0670013  48.4259987  37.7589989  69.7669983  47.8860016
  51.5060005  53.7509995  39.9010010  51.1850014  54.4679985  39.3740005
  51.7859993  53.1020012  39.2290001  52.5909996  74.8119965  28.6679993
  52.2700005  73.9020004  28.5610008  51.7570000  75.2730026  28.8829994
  50.9819984  73.7050018  41.8390007  51.8769989  74.0960007  41.8629990
  51.1090012  73.1800003  40.9850006  51.7190018  58.6100006  45.4959984
  51.1739998  58.2589989  44.7709999  51.0439987  59.0489998  46.0709991
  45.6990013  65.9280014  42.5750008  45.5709991  65.1019974  42.0629997
  46.6069984  66.1529999  42.3310013  56.3250008  75.2129974  40.7570000
  55.7779999  75.8809967  40.3639984  57.1629982  75.2639999  40.2210007
  45.2340012  63.6090012  36.1790009  44.7589989  64.3840027  36.4850006
  45.7239990  63.9760017  35.4539986  54.8100014  59.1650009  40.9350014
  54.8149986  59.9140015  41.6059990  55.7509995  59.0810013  40.8409996
  43.9780006  66.5000000  39.2789993  44.4799995  67.0770035  39.8359985
  43.2200012  66.2900009  39.8260002  36.3160019  72.6869965  35.2200012
  36.3740005  72.7529984  36.1720009  36.7550011  71.8239975  35.0730019
  55.4780006  61.0709991  35.3629990  56.4659996  61.1069984  35.4589996
  55.3089981  60.4570007  36.1030006  47.5950012  59.1520004  33.1780014
  47.3470001  59.5050011  34.0429993  46.8199997  58.9039993  32.7509995
  38.4589996  76.7350006  43.2910004  37.9059982  76.1060028  43.8149986
  37.7620010  77.0049973  42.6650009  51.0349998  72.0159988  39.5999985
  51.2099991  71.0739975  39.3680000  50.0849991  72.0609970  39.5979996
  43.3779984  63.9809990  32.3170013  42.4949989  64.2080002  32.4599991
  43.8979988  64.7659988  32.5649986  61.2960014  59.2050018  46.3479996
  62.0620003  59.7169991  46.6650009  61.0400009  59.5509987  45.5219994
  38.7449989  70.4550018  42.6720009  39.2260017  69.5849991  42.5400009
  37.9010010  70.2730026  42.1969986  37.3899994  73.4000015  32.8470001
  36.8199997  73.2429962  33.6489983  37.9199982  74.1139984  33.2799988
  48.6150017  83.0979996  32.4809990  49.1510010  82.3089981  32.7809982
  47.7809982  82.6880035  32.1699982  47.8959999  76.5690002  44.3320007
  47.4360008  77.4189987  44.0849991  48.8300018  76.8160019  43.9840012
  70.5770035   9.3739996  38.0499992  70.3939972   9.7779999  37.1479988
  70.6480026   8.4410000  37.8390007  48.6370010  73.7809982  29.8869991
  48.3279991  74.7080002  29.7649994  48.4620018  73.4639969  28.9599991
  52.4860001  59.1080017  28.0359993  52.5110016  58.2630005  28.5590000
  52.7070007  59.7239990  28.7450008  34.7080002  73.9570007  41.3190002
  34.6780014  73.9499969  42.2309990  33.7949982  73.6340027  41.0740013
  41.8100014  69.7279968  32.6370010  41.4059982  70.5139999  33.0870018
  42.7570000  69.8440018  32.8250008  35.8019981  72.5770035  21.9440002
  36.6459999  72.5790024  22.5119991  36.2019997  73.0599976  21.1599998
  55.1259995  68.6959991  38.5960007  55.3009987  68.0569992  39.3670006
  54.4910011  69.2819977  39.0740013  50.0190010  60.5359993  23.7940006
  49.5709991  59.6240005  23.6000004  50.3100014  60.3440018  24.7049999
  50.7739983  77.4020004  28.3570004  50.5830002  77.4380035  29.3150005
  51.7019997  77.7959976  28.3820000  48.0379982  60.2900009  30.2740002
  48.3240013  59.9160004  31.1369991  48.1150017  59.4700012  29.7290001
  53.3470001  62.6860008  31.8320007  53.9379997  61.8950005  31.7619991
  53.3230019  62.9440002  30.8680000  42.5470009  74.1439972  22.7350006
  43.3300018  74.2819977  23.3180008  42.2949982  73.2870026  23.0730000
  38.0660019  76.7900009  36.6710014  38.0800018  77.6139984  36.1539993
  38.5890007  76.1969986  36.0960007  39.9770012  64.9990005  29.2929993
  39.1129990  64.9599991  29.6970005  39.8650017  65.6490021  28.5799999
  44.6370010  68.2929993  32.2330017  44.7849998  68.1449966  31.2819996
  43.8950005  67.6699982  32.3600006  39.0419998  68.3580017  34.2659988
  38.6629982  67.6449966  33.6599998  38.1619987  68.5830002  34.6619987
  53.1749992  79.6910019  26.3820000  53.2550011  79.5139999  27.3220005
  52.9449997  78.7460022  26.1009998  44.3559990  78.0759964  39.7029991
  44.2709999  78.8960037  40.3180008  45.1910019  77.7770004  40.1370010
  48.1240005  69.9869995  37.1100006  47.2470016  69.5039978  36.8930016
  47.9510002  70.7669983  36.6209984  48.3940010  68.5510025  18.6849995
  48.8849983  67.9160004  18.1210003  48.8889999  69.3769989  18.4169998
  41.1669998  70.0759964  44.8510017  40.9360008  69.8320007  43.9399986
  41.0750008  69.2689972  45.3289986  57.8209991  60.0309982  48.7919998
  58.6889992  59.5960007  48.7529984  57.4949989  59.6839981  49.6790009
  56.0390015  54.2729988  26.1289997  55.3940010  54.2150002  26.8290005
  56.7970009  54.6860008  26.6720009  51.4189987  64.1149979  33.2060013
  50.7729988  64.2779999  32.4630013  51.9599991  63.4280014  32.7220001
  39.1250000  63.2760010  44.5110016  38.7700005  62.4840012  44.9869995
  40.0730019  63.1469994  44.6759987  54.0919991  78.0569992  38.1030006
  54.5820007  77.5270004  37.3959999  53.2159996  77.6780014  37.9420013
  38.0660019  66.2630005  32.7089996  37.7290001  65.5719986  32.0559998
  38.0349998  67.0329971  31.9729996  48.4290009  69.4789963  31.4309998
  47.9739990  70.3430023  31.3390007  48.6250000  69.4779968  32.3880005
  42.9739990  74.6190033  48.3129997  43.9389992  74.6389999  48.2610016
  42.8489990  73.6370010  48.5169983  45.1059990  73.4929962  45.6489983
  45.5629997  73.6600037  44.7770004  44.1640015  73.4670029  45.2290001
  47.8680000  63.9799995  34.7840004  47.5760002  63.1349983  34.4449997
  48.6969986  63.8310013  35.2220001  66.4779968   9.1169996  40.8209991
  66.6900024   8.7840004  39.9350014  65.8000031   8.4340000  41.0900002
  39.0079994  75.0419998  34.6959991  39.7509995  75.1149979  34.0639992
  38.4510002  75.7740021  34.3499985  41.0960007  68.5680008  36.2099991
  40.3880005  68.6100006  35.5299988  41.3409996  67.6080017  36.2120018
  52.1940002  68.7819977  33.1290016  53.1469994  69.0270004  33.3660011
  52.2760010  67.7969971  33.1440010  50.5190010  63.5600014  35.7449989
  51.0340004  62.8709984  36.1870003  50.8349991  63.4410019  34.8129997
  54.1339989  73.4169998  39.2789993  53.5800018  73.3259964  38.5089989
  55.0299988  73.5199966  38.8330002  43.2579994  78.1179962  36.4920006
  43.9399986  78.7269974  36.8619995  42.5589981  78.1600037  37.1180000
  63.9300003  70.9830017  33.6100006  63.5349998  71.2330017  32.7309990
  63.1629982  70.5370026  34.0040016  37.2659988  64.5039978  30.9150009
  37.0229988  63.6870003  30.4519997  36.7099991  65.1240005  30.4769993
  48.0130005  77.0759964  32.7929993  48.1269989  77.2890015  33.7099991
  47.1539993  77.5899963  32.5779991  51.7630005  63.6800003  26.9419994
  50.9350014  63.7770004  27.4930000  51.9599991  64.6529999  26.9300003
  61.7589989  60.4049988  35.4700012  62.3600006  59.6769981  35.2620010
  61.2809982  60.5859985  34.6650009  51.0779991  68.7440033  26.2970009
  50.6240005  69.2149963  26.9820004  51.1170006  69.3690033  25.5720005
  48.1609993  65.3509979  41.7659988  47.7760010  64.5130005  41.5730019
  48.9539986  65.0360031  42.3190002  50.1040001  67.4820023  23.8579998
  49.3089981  68.0670013  23.9410000  50.4350014  67.6380005  24.7880001
  38.9459991  66.5930023  41.2470016  38.2939987  65.9059982  41.0559998
  39.2290001  66.8840027  40.3849983  40.7589989  79.6399994  49.0810013
  39.8409996  79.6409988  49.4080009  40.9809990  78.6800003  49.3180008
  47.4609985  67.3980026  29.6070004  47.8380013  68.0199966  30.2590008
  47.3190002  67.9789963  28.8029995  50.0470009  63.4690018  46.1189995
  49.8380013  62.6139984  45.6020012  50.2639999  63.0279999  46.9560013
  75.2880020  14.7170000  29.5230007  75.7300034  15.3350000  30.1450005
  75.3359985  13.8830004  30.0090008  44.0600014  76.9100037  25.1870003
  43.0880013  76.8420029  25.3659992  44.2560005  76.0090027  24.8829994
  51.1699982  69.6869965  51.0480003  50.5480003  70.4520035  50.8510017
  50.5950012  68.9499969  51.1230011  38.2500000  63.7350006  41.7089996
  38.3950005  63.3489990  42.6339989  39.1310005  64.1890030  41.6660004
  43.0320015  70.6159973  27.1660004  42.5540009  70.2590027  27.9500008
  42.9529991  69.7740021  26.5739994  75.3450012  16.6429996  31.6140003
  74.5159988  16.9549999  31.2259998  75.7190018  17.4680004  31.9659996
  40.1279984  70.4779968  37.9770012  40.2280006  69.8420029  37.2560005
  40.9630013  70.3730011  38.4589996  32.9239998  70.4339981  35.7680016
  33.4589996  70.7089996  36.5519981  32.7360001  71.3229980  35.4010010
  44.1080017  64.1920013  54.4290009  44.8380013  64.7379990  54.0629997
  44.4690018  63.3260002  54.3069992  58.9230003  70.7020035  42.5970001
  59.8489990  70.4280014  42.8269997  58.9599991  71.6650009  42.5839996
  40.1090012  64.4690018  33.2599983  40.3370018  64.9000015  32.4140015
  39.8110008  63.5800018  32.9099998  49.7270012  77.6709976  40.2109985
  49.4679985  78.5199966  39.9000015  48.8390007  77.2509995  40.3180008
  40.2649994  58.1619987  30.0949993  40.7659988  58.5589981  29.3710003
  40.8629990  57.4599991  30.3239994  50.5769997  72.3740005  48.6329994
  50.7210007  71.4759979  48.2260017  50.0880013  72.7720032  47.9129982
  44.5929985  61.7019997  31.6480007  43.9879990  61.2789993  31.0410004
  44.0919991  62.4640007  31.9860001  48.3629990  81.2809982  28.3379993
  48.8610001  82.1210022  28.2630005  48.6049995  80.9199982  27.4459991
  55.0239983  63.4949989  20.6790009  54.2190018  63.6949997  21.0930004
  54.7060013  62.9070015  19.9120007  48.9850006  65.5130005  32.2709999
  48.0919991  65.1589966  32.3240013  49.0349998  65.9560013  33.1819992
  53.0719986  55.4169998  37.6459999  52.0900002  55.2680016  37.7080002
  53.2970009  55.7130013  38.5379982  52.2260017  70.5199966  31.0699997
  52.0629997  69.8170013  31.7849998  51.4010010  71.0920029  31.2420006
  39.8320007  66.9010010  38.7000008  40.6119995  67.3539963  38.5279999
  39.6800003  66.3710022  37.8880005  49.7459984  64.6940002  23.4249992
  50.1609993  65.5650024  23.6590004  48.9490013  65.0619965  22.9559994
  38.6290016  73.4789963  50.9659996  37.9420013  73.1190033  51.5530014
  39.4300003  73.3209991  51.4739990  54.7019997  64.8750000  38.4790001
  54.2459984  65.1709976  39.2960014  55.0940018  64.0049973  38.9070015
  33.8950005  73.3769989  25.8360004  34.1209984  72.4179993  25.8260002
  33.7410011  73.4820023  24.8589993  48.0279999  68.4970016  47.2449989
  48.8479996  68.2779999  46.7060013  47.5320015  67.6650009  47.1430016
  32.7989998  77.2760010  42.3260002  32.9189987  76.3539963  42.3059998
  31.9130001  77.3499985  42.6899986  46.2389984  73.3389969  37.9290009
  45.5569992  74.0130005  37.8989983  46.4350014  73.2770004  36.9550018
  45.9620018  71.4820023  39.8320007  46.0149994  71.8820038  38.9659996
  45.3530006  72.1399994  40.3089981  31.4549999  74.1429977  33.7369995
  32.1590004  73.8349991  34.3149986  31.1280003  73.3150024  33.3899994
  54.4070015  58.4720001  50.7480011  55.3050003  58.3930016  51.0299988
  54.4389992  58.0349998  49.8510017  49.8590012  69.2080002  45.1640015
  50.4710007  69.4410019  44.4319992  50.4129982  68.6309967  45.6850014
  55.7389984  64.3820038  33.0139999  56.4210014  64.9520035  33.3670006
  55.1650009  64.2070007  33.7610016  51.9259987  62.0089989  40.5219994
  52.4099998  62.2360001  39.7389984  51.0709991  61.6949997  40.1349983
  44.9599991  75.6289978  37.1669998  45.6959991  76.2050018  37.4490013
  44.2360001  76.3150024  37.1240005  33.3240013  64.9479980  32.3730011
  33.3810005  64.2419968  33.0149994  33.9679985  65.5950012  32.7179985
  43.5260010  70.1460037  36.5000000  42.7410011  69.6470032  36.2700005
  43.3610001  70.4589996  37.3699989  49.1940002  60.1910019  41.9560013
  49.1599998  60.7019997  41.0999985  49.6320000  59.3759995  41.5629997
  49.6940002  65.9919968  46.9220009  49.8779984  65.0640030  46.5750008
  48.7630005  65.8209991  47.1839981  46.2690010  78.4300003  29.7490005
  45.5270004  78.6490021  29.1329994  47.0190010  78.3690033  29.1760006
  47.1990013  72.1429977  35.2869987  46.6240005  71.6740036  34.7010002
  47.6220016  72.7379990  34.6119995  53.4529991  75.5159988  35.6629982
  53.7929993  75.2929993  34.7669983  54.2099991  75.8150024  36.1730003
  34.5239983  74.1289978  31.0319996  33.8129997  74.1470032  30.3339996
  35.1500015  73.4509964  30.7080002  61.2509995  57.1469994  40.5730019
  60.4039993  56.6150017  40.5480003  61.7630005  56.6129990  41.2340012
  61.2220001  69.9430008  34.7089996  61.0419998  68.9860001  34.6300011
  60.4150009  70.3119965  34.2439995  61.5330009  70.3040009  43.7690010
  61.9529991  69.5790024  44.2570000  61.1290016  70.8020020  44.4869995
  45.9230003  68.2990036  36.7649994  45.0820007  68.7890015  36.9879990
  45.4710007  67.4199982  36.6539993  42.5480003  66.2959976  16.6509991
  42.1170006  66.8280029  15.8750000  42.9169998  65.6119995  16.0680008
  43.3759995  68.7470016  42.2649994  44.2789993  68.6480026  41.8979988
  43.5480003  69.2070007  43.1230011  38.6320000  67.4169998  28.5419998
  39.2589989  67.2009964  27.7779999  38.1559982  68.1500015  28.0799999
  36.5130005  61.9669991  56.0009995  35.8030014  62.5940018  56.3889999
  37.2039986  62.2680016  56.5970001  48.2410011  66.6549988  37.5289993
  48.2999992  67.1019974  38.3769989  47.3969994  67.0410004  37.2200012
  40.1370010  61.8160019  31.8160000  39.6279984  61.2239990  31.2210007
  40.7820015  62.1980019  31.1170006  52.0359993  65.4089966  29.7409992
  51.7070007  66.0390015  30.3899994  51.1640015  65.0680008  29.4519997
  33.4059982  63.3860016  50.0620003  33.6310005  63.4879990  51.0130005
  32.7949982  62.6170006  50.1739998  36.0270004  69.5230026  35.4850006
  35.7290001  70.2450027  36.0699997  35.4770012  69.6819992  34.6980019
  49.8110008  74.1910019  44.2750015  49.2760010  74.7649994  43.6459999
  50.5349998  73.9820023  43.7099991  43.5880013  77.9850006  53.0709991
  42.5950012  78.0009995  53.2000008  43.5789986  77.0849991  52.6240005
  60.2540016  55.6180000  24.5960007  59.8839989  55.8870010  23.7080002
  60.4070015  56.5130005  24.9640007  43.6010017  76.3170013  34.3790016
  43.3839989  76.8249969  35.1870003  44.5369987  76.0380020  34.6629982
  52.8199997  57.4169998  41.7080002  53.4599991  58.0989990  41.3250008
  53.1069984  56.6489983  41.1349983  40.0079994  71.9100037  25.5189991
  40.7420006  71.5569992  26.1130009  40.5229988  71.9309998  24.6770000
  43.8199997  78.6569977  23.2290001  44.0709991  77.9570007  23.8630009
  43.8429985  78.2239990  22.3850002  61.2729988  63.0620003  24.9410000
  60.3759995  63.5299988  25.0039997  61.5149994  63.0509987  25.8910007
  53.1040001  65.6940002  36.3709984  52.3250008  65.6230011  37.0180016
  53.7369995  65.2829971  36.9510002  46.8769989  74.2350006  43.4650002
  47.3359985  74.9020004  43.9640007  47.0050011  74.4670029  42.5349998
  38.1030006  68.2030029  30.8929996  38.5800018  69.0240021  30.9290009
  38.4389992  67.8389969  30.0000000  58.0940018  72.4329987  18.2770004
  58.0419998  72.6500015  17.3309994  58.3899994  71.4570007  18.0939999
  47.7169991  68.2259979  25.1830006  47.6090012  67.2440033  25.2740002
  47.4650002  68.4670029  26.0949993  50.6959991  70.6350021  42.1559982
  49.8199997  70.3499985  41.7980003  50.7470016  71.4459991  41.5960007
  61.6259995  10.0670004  41.8600006  62.0859985  10.3380003  41.0369987
  61.8639984   9.1630001  41.9729996  50.9580002  74.8980026  35.0859985
  51.7820015  75.3339996  35.4490013  50.7779999  74.2279968  35.7360001
  14.5790005  13.0900002  37.8779984  14.7040005  13.0109997  36.9129982
  15.2700005  12.4899998  38.2150002   1.4670000  18.9169998  30.1289997
   1.0570000  18.0660000  29.9580002   1.9870000  19.0279999  29.2910004
  60.7060013  76.0839996  44.1580009  60.0769997  76.3700027  44.8629990
  61.0340004  75.1780014  44.5120010  14.3330002  21.1900005  37.0110016
  14.8290005  21.4640007  37.7659988  13.8149996  20.4300003  37.3699989
   6.6680002  12.8409996  40.0950012   5.6539998  12.8439999  40.3110008
   6.7979999  11.9139996  40.0820007  54.5699997  77.2600021  33.1710014
  54.6889992  76.3130035  33.2039986  55.4529991  77.5729980  32.8919983
  44.6199989  76.1520004  30.7029991  44.8289986  76.5250015  29.7830009
  43.7190018  76.3860016  30.7840004  63.0629997  76.5690002  42.7480011
  63.0289993  75.9430008  42.0089989  62.1469994  76.5279999  43.1279984
  63.5449982  79.1110001  39.2290001  64.0970001  79.6770020  39.8190002
  63.9300003  78.2139969  39.4160004  56.6870003  82.7060013  34.0530014
  56.8339996  83.6330032  34.4329987  57.6479988  82.4000015  34.1069984
  52.0620003  77.4100037  41.8240013  51.3860016  77.3820038  41.1640015
  52.3769989  78.3789978  41.7089996  55.9659996  80.1959991  36.6730003
  55.9329987  80.3769989  35.7109985  55.1069984  79.7730026  36.8289986
  61.0260010  69.3190002  19.4920006  60.3440018  68.6819992  19.8250008
  61.7439995  68.7269974  19.2759991  53.8909988  74.4339981  50.5540009
  53.5900002  74.2539978  49.6040001  54.3419991  73.5729980  50.6949997
  55.5070000  80.0350037  49.9090004  55.4700012  80.0370026  50.8790016
  55.4099998  80.9649963  49.7290001  10.8549995   7.9530001  42.8100014
  10.7419996   8.7659998  42.2840004  11.1389999   7.2670002  42.1829987
   0.6520000  14.5629997  39.9640007   0.3540000  13.6650000  40.1720009
   0.2890000  14.7390003  39.0900002  62.9129982  68.5589981  45.2249985
  63.6689987  68.8320007  45.8160019  62.2400017  68.3339996  45.9119987
  19.3409996  11.1850004  44.8409996  19.4109993  10.2919998  45.2750015
  19.7059994  10.9519997  43.9249992  12.2849998   9.6859999  48.7840004
  12.7030001   8.9490004  48.2540016  12.1490002  10.3290005  48.0499992
  58.8600006  78.3799973  40.9179993  57.8989983  78.2789993  41.0519981
  58.9690018  78.5279999  39.9620018  49.7249985  77.2129974  20.8920002
  49.2739983  77.2979965  20.0149994  50.2379990  76.3710022  20.7479992
  47.9889984  79.4879990  52.7729988  46.9770012  79.6190033  52.8079987
  47.9239998  78.5550003  52.4179993  54.6469994  85.3020020  39.9949989
  55.3240013  84.9150009  40.5880013  54.3339996  84.5299988  39.5089989
  52.7470016  82.1529999  51.5750008  52.7400017  82.3270035  52.5089989
  51.9140015  82.6139984  51.2919998  49.6129990  80.6240005  33.0880013
  50.4109993  80.0049973  33.0820007  49.2130013  80.2639999  32.2410011
  48.2859993  71.3740005  46.1559982  47.6170006  71.3079987  45.4560013
  48.7669983  70.5289993  45.9580002  72.6159973  10.2740002  52.0040016
  72.6009979  11.1569996  51.7000008  71.6869965  10.0030003  51.9029999
  46.9150009  72.8830032  54.2939987  47.4090004  72.2020035  54.8269997
  47.4690018  73.6660004  54.3559990  60.0480003  71.7350006  45.7779999
  59.1160011  71.9369965  45.6110001  60.2610016  72.3639984  46.4970016
  56.7350006  80.8249969  42.9210014  56.6320000  81.3320007  42.0349998
  57.7439995  80.7860031  42.8390007  32.4819984  38.0909996  80.7379990
  32.1959991  38.0449982  79.7679977  32.1829987  39.0029984  80.9430008
  59.7179985  70.5619965  49.8790016  60.2820015  71.0810013  49.2439995
  59.9830017  69.6660004  49.7010002  50.0239983  84.5520020  35.9780006
  50.8339996  84.4580002  35.4739990  50.0019989  83.8219986  36.5760002
  12.2589998   5.3639998  23.8610001  13.0139999   5.4310002  24.4459991
  11.6090002   5.8969998  24.3339996  55.1090012  69.4720001  33.9230003
  55.6139984  69.6959991  33.1380005  55.7570000  69.9209976  34.6069984
  48.2859993  80.0230026  30.8789997  48.0149994  80.6900024  30.1760006
  47.5480003  79.3990021  30.8150005  54.9440002  65.3639984  30.4489994
  55.0299988  64.7190018  31.1949997  54.0849991  65.1230011  30.1270008
  55.1370010  75.8349991  20.1599998  54.9140015  74.9229965  20.4290009
  55.7910004  76.0830002  20.8250008  14.7309999   8.1359997  27.4179993
  15.2100000   8.8780003  27.7630005  15.4910002   7.4640002  27.3840008
  55.7760010  81.5530014  31.6550007  56.1469994  81.8550034  32.4809990
  55.3619995  82.2829971  31.2639999  59.0660019  73.6399994  24.1620007
  58.1710014  73.5199966  24.5809994  58.7579994  73.6930008  23.2029991
  51.4500008  74.0270004  32.5709991  52.1459999  74.6269989  32.1049995
  51.8829994  73.9919968  33.4459991  50.5900002  62.5909996  53.4900017
  50.6269989  61.8839989  54.1669998  50.4119987  63.3740005  54.0309982
   7.3940001   7.9029999  38.7249985   7.7839999   7.8070002  37.8549995
   6.4949999   7.4819999  38.5099983  41.5089989  74.1829987  51.5919991
  42.4300003  74.6050034  51.7000008  40.9939995  74.9889984  51.6440010
  13.4239998  10.7770004  40.8139992  13.8179998  10.2930002  40.0970001
  14.2290001  11.0139999  41.3740005  63.1759987  65.2559967  35.2410011
  62.4360008  65.7600021  35.6599998  63.6920013  65.0500031  36.0810013
  54.8610001  73.2220001  20.8500004  54.9329987  72.5579987  20.0720005
  53.9799995  73.1340027  21.1970005  49.5029984  81.6900024  40.5060005
  49.1049995  82.2389984  39.7459984  49.6150017  80.8539963  40.0200005
  42.8740005  70.0660019  39.2400017  43.1139984  69.3059998  39.8069992
  43.0680008  70.7880020  39.8190002  55.7309990  73.0979996  42.6769981
  55.9169998  73.9629974  42.3219986  54.7809982  73.0270004  42.4099998
  48.7879982  76.1920013  48.7989998  48.8030014  75.4720001  48.1209984
  48.2029991  76.8420029  48.3590012  55.3839989  76.1429977  43.2509995
  55.1279984  76.5100021  42.4059982  54.6129990  75.5790024  43.4529991
  51.7999992  82.4010010  45.7169991  51.6790009  82.2659988  46.6800003
  52.4630013  83.1009979  45.7330017  53.1010017  78.3679962  28.7299995
  53.9580002  77.8850021  28.7970009  53.2029991  78.9649963  29.4939995
  67.0630035  10.8439999  44.4860001  66.2850037  10.2679996  44.5620003
  67.1210022  10.9809999  43.5620003  62.6879997  80.0240021  36.9850006
  61.9990005  79.4739990  36.5919991  62.8440018  79.6050034  37.8619995
  50.2389984  69.0139999  38.5219994  50.8959999  69.0540009  37.7869987
  49.4620018  69.4380035  38.0390015  53.6790009  77.0520020  51.4529991
  53.8160019  76.0950012  51.1090012  52.7120018  77.0329971  51.2299995
  18.9669991   7.5050001  42.4720001  19.6720009   8.1590004  42.8250008
  19.3689995   7.3610001  41.6139984  56.6580009   3.7449999  34.0390015
  56.4319992   4.7010002  34.2599983  56.9210014   3.8499999  33.1300011
  46.9469986  71.7919998  30.9869995  46.0400009  72.1520004  30.7099991
  47.4959984  72.4720001  30.6959991  60.1570015  69.9329987  38.8540001
  59.7910004  70.8290024  38.9860001  59.3510017  69.5530014  38.4339981
  46.9679985  78.9950027  43.3839989  47.6049995  79.6190033  43.6539993
  46.0890007  79.4509964  43.4280014  42.6209984  66.1090012  41.6110001
  42.6090012  65.5999985  42.4519997  42.8440018  66.9670029  41.9169998
  46.2010002  72.4319992  25.0690002  46.1040001  71.7139969  25.7399998
  46.8510017  72.0149994  24.4529991  41.8089981  76.7360001  30.7630005
  41.0709991  76.9810028  30.1650009  41.2719994  76.5960007  31.5900002
  46.1059990  79.9150009  34.3530006  46.2989998  80.5719986  33.6629982
  45.6930008  79.1780014  33.8339996  54.7420006  75.9339981  47.6629982
  53.9389992  75.3259964  47.5789986  54.2089996  76.7419968  47.9420013
  58.3600006  60.7960014  35.6529999  58.7970009  60.8909988  34.8370018
  58.6520004  59.9570007  35.9790001  48.6339989  69.4400024  34.0419998
  48.8940010  68.8180008  34.8019981  47.6940002  69.2590027  33.9819984
  38.3750000  37.1749992  85.1620026  37.8860016  37.2249985  86.0479965
  37.9490013  36.3079987  84.8550034  41.5340004  80.8740005  38.4010010
  41.1339989  80.0080032  38.2369995  41.4459991  80.9909973  39.3549995
  65.8690033  73.1969986  40.7939987  65.6959991  72.4530029  40.2410011
  66.5039978  73.7129974  40.3120003  51.4900017  74.6050034  38.3610001
  50.5349998  74.5250015  38.5060005  51.7560005  73.6360016  38.4770012
  53.2709999  79.7710037  41.3180008  53.0029984  80.2740021  40.5429993
  53.6199989  80.4169998  41.9169998  50.8199997  60.4300003  26.4039993
  51.3440018  61.2249985  26.0739994  51.5410004  60.0579987  27.0000000
  48.5060005  74.8290024  41.3730011  48.6129990  74.5940018  40.4650002
  49.3160019  74.4229965  41.7840004   7.4020000   7.5479999  41.5029984
   7.4289999   7.5990000  40.5079994   7.7719998   6.6529999  41.5779991
  51.5600014  80.1149979  44.0900002  52.4020004  80.0950012  43.6100006
  51.6759987  80.9489975  44.6069984  61.2830009   7.9010000  33.2099991
  61.9790001   8.0629997  32.5209999  60.5239983   8.3450003  32.7999992
  50.0169983  64.0059967  42.9469986  50.8930016  63.7190018  42.6489983
  49.8880005  63.5299988  43.7830009  48.5979996  66.6269989  34.6320000
  47.9189987  65.9079971  34.6780014  48.8279991  66.6729965  35.6080017
  57.8009987  67.6890030  42.5589981  58.5589981  68.2630005  42.5250015
  57.5660019  67.6460037  43.5250015  52.8619995  68.5800018  29.2029991
  52.0999985  68.0059967  29.3710003  52.7630005  69.3099976  29.7970009
   9.2329998   5.6999998  24.7150002   8.5170002   5.0110002  24.9559994
   8.8739996   6.3889999  25.3920002  56.3759995  71.0120010  41.0219994
  56.1189995  71.7119980  41.6640015  57.1220016  70.5650024  41.5070000
  25.6280003  44.3190002  80.8040009  26.0820007  44.4099998  81.6669998
  25.3320007  43.4150009  80.8399963  36.5400009  77.3270035  31.4880009
  36.7089996  76.5250015  30.9640007  35.5719986  77.4270020  31.4239998
  54.9700012  80.8349991  46.8180008  54.7509995  79.8980026  46.6739998
  54.0839996  81.2360001  46.8790016  59.2280006  70.7600021  30.6599998
  58.8260002  71.6259995  30.4349995  59.2210007  70.3359985  29.7689991
  55.5130005  67.5579987  41.1489983  56.2970009  67.8610001  41.7490005
  55.5960007  66.6110001  41.3740005  56.3839989  66.1949997  53.1870003
  55.4500008  65.9540024  52.9900017  56.5979996  65.4079971  53.8040009
  55.8959999  76.5029984  36.8009987  56.0330009  75.6200027  37.0369987
  56.7970009  76.7600021  36.3600006  45.8440018  81.8079987  39.6049995
  45.1020012  81.9000015  38.9760017  46.6119995  81.8629990  39.0369987
  60.5200005  79.4309998  32.6040001  59.8059998  78.9130020  32.2509995
  61.2420006  78.7850037  32.7509995  53.4850006  78.3649979  55.4879990
  53.9879990  78.3909988  54.6389999  54.1269989  77.9430008  56.1020012
  20.3530006   7.2880001  28.1119995  21.1870003   7.2379999  28.6049995
  20.6940002   7.6199999  27.2749996  56.7789993  74.7239990  27.4519997
  55.8330002  74.9020004  27.4860001  57.0029984  75.0400009  26.5690002
  69.6070023  10.4779997  45.5130005  70.0699997  10.0380001  44.7709999
  68.7249985  10.5609999  45.1669998  67.0820007  10.8970003  37.3569984
  67.8730011  10.6599998  36.8289986  66.8180008  10.0830002  37.8009987
  61.2270012  57.6949997  38.0309982  61.2350006  57.2700005  38.9029999
  62.2099991  57.8569984  37.8979988  44.5950012  80.3850021  43.7579994
  45.1539993  81.0910034  44.1930008  43.7249985  80.7200012  44.0550003
  64.9850006  69.6190033  25.1030006  64.6529999  69.0559998  25.8810005
  64.1579971  69.8700027  24.7169991  66.7509995  65.9879990  28.6170006
  65.9150009  66.5029984  28.9720001  66.4970016  65.0770035  28.9979992
  25.3999996   0.4710000  28.1170006  24.9279995   1.0820000  28.7019997
  24.7929993   0.4620000  27.3160000  59.7249985  79.8600006  25.2859993
  59.2579994  78.9530029  25.4790001  59.0209999  80.2239990  24.6840000
  14.0200005  14.5229998  30.3770008  14.9949999  14.2980003  30.2980003
  13.8850002  14.9600000  29.5170002  56.6769981  75.6019974  24.8999996
  56.5000000  74.7050018  24.5470009  55.7739983  75.9029999  25.1399994
  60.8940010  66.7860031  26.1739998  61.2529984  67.6309967  25.9220009
  60.0349998  66.8059998  25.5979996  46.0909996  34.2039986  75.3860016
  45.5740013  33.7410011  76.0339966  45.4630013  34.7809982  74.9459991
  23.2099991   2.1900001  24.3269997  23.9039993   2.4610000  24.9559994
  22.5249996   2.9549999  24.4449997  41.4959984  37.2999992  87.4609985
  41.0859985  38.1749992  87.5019989  42.2739983  37.4239998  86.8489990
  16.5690002   4.2389998  21.2700005  15.7229996   3.8230000  20.9969997
  17.1949997   3.7600000  20.6250000  66.9779968  72.5270004  31.5440006
  66.8570023  71.8239975  30.8710003  66.0139999  72.8069992  31.5070000
  35.4059982  45.0610008  80.6589966  35.8100014  45.7400017  80.1060028
  34.4570007  45.3759995  80.5940018  25.7609997  -2.1860001  28.3920002
  25.4290009  -1.2250000  28.3999996  26.3929996  -2.1300001  27.7019997
  56.4360008  71.3399963  28.2320004  55.5620003  71.4219971  28.6320000
  56.6580009  72.2730026  27.9990005  75.1259995  66.0360031  26.5100002
  74.7279968  66.7009964  27.0160007  75.0780029  66.3359985  25.5869999
  39.4900017  36.7159996  80.8170013  39.3639984  35.7589989  80.8440018
  39.3079987  37.0190010  81.6800003  67.7269974  31.8430004  73.8889999
  66.7750015  31.8850002  74.1360016  68.0260010  31.0370007  74.2419968
  42.8030014  34.9129982  85.9300003  43.5849991  34.5760002  86.4769974
  42.0800018  34.6049995  86.5289993  45.8390007  36.9990005  79.2389984
  46.3429985  36.1860008  78.8830032  46.5670013  37.4339981  79.6880035
  63.4350014  76.6050034  25.8110008  63.1129990  77.0370026  26.6790009
  63.6189995  77.3850021  25.2779999  60.0730019  36.7929993  78.8960037
  60.6020012  37.5000000  78.4899979  60.2659988  36.9799995  79.8249969
  57.5900002  69.6679993  37.6889992  57.4140015  70.2160034  36.9080009
  56.6259995  69.5100021  37.9850006  41.3110008   8.9969997  16.3880005
  40.6119995   8.3640003  16.1550007  40.9749985   9.3990002  17.1539993
   9.8680000  17.7010002  25.8110008   9.1980000  17.2140007  25.2549992
  10.3820000  18.1609993  25.1690006  31.9050007  44.8139992  86.3330002
  31.8139992  44.0709991  85.7679977  32.6730003  44.5660019  86.9329987
  18.5380001  12.5439997  37.7579994  18.0340004  13.0039997  38.4179993
  19.3810005  12.4029999  38.2389984   9.0089998   5.6100001  29.5009995
   8.4490004   5.9920001  28.7849998   8.5459995   4.7350001  29.5970001
  50.4080009  50.4869995  76.1090012  49.9360008  50.9640007  75.3669968
  50.5730019  51.2480011  76.6900024  21.6369991   6.2140002  22.7339993
  22.5660000   6.3790002  22.4510002  21.4050007   5.5799999  22.0049992
  35.3600006   9.4770002  12.5310001  34.4300003   9.4849997  12.8450003
  35.5260010  10.3690004  12.2919998  33.6240005  46.0149994  83.0019989
  33.3619995  45.1080017  83.2369995  34.3790016  46.0419998  83.6920013
  14.2100000   3.7839999  28.6749992  13.6370001   4.0349998  27.8850002
  14.1929998   4.6339998  29.1870003  34.9090004  49.0509987  82.7610016
  35.5820007  48.6969986  83.4059982  34.6020012  48.1959991  82.3759995
  45.7410011  41.9959984  72.3229980  44.9760017  41.7109985  72.8320007
  46.4140015  41.3230019  72.5589981  13.0740004   6.0630002  21.4169998
  13.6859999   6.7020001  21.8110008  12.7189999   5.6059999  22.1840000
  23.6690006   0.1150000  26.1450005  22.8780003   0.6150000  25.8750000
  23.4939995  -0.7320000  25.6620007  45.0639992  40.5050011  85.0510025
  45.6520004  40.5060005  84.2669983  45.7039986  40.5029984  85.7460022
  12.7010002  15.5039997  21.6900005  13.5939999  15.7279997  21.8430004
  12.4770002  15.8990002  20.8090000  64.8209991  75.7279968  28.8199997
  65.1419983  75.9660034  27.9090004  65.5479965  76.1780014  29.3390007
  63.6440010  73.3659973  24.9230003  63.2290001  72.5000000  24.6490002
  64.5189972  73.2990036  24.5349998  68.2929993  71.5810013  24.7119999
  69.1689987  71.6240005  24.3349991  68.5380020  71.3939972  25.6749992
  56.3429985  76.9390030  22.3220005  57.3450012  76.9619980  22.3540001
  56.2249985  77.9459991  22.3069992  61.1759987  78.1969986  30.0849991
  60.3050003  78.1190033  30.5109997  61.5550003  77.3199997  30.3110008
  43.3120003  38.2130013  82.1549988  43.6529999  37.5820007  82.7919998
  42.4570007  38.4980011  82.5609970  22.4260006   4.1820002  21.2059994
  22.5020008   4.2189999  20.2320004  23.3360004   4.4260001  21.4939995
  60.6809998  75.4609985  35.9850006  60.5359993  74.7229996  36.6980019
  59.7379990  75.6060028  35.6930008  29.0769997   9.6689997  14.6120005
  28.8209991   9.0439997  13.8800001  29.6490002   8.9619999  15.1400003
  35.5099983  47.2750015  78.7460022  35.8709984  47.4099998  77.8170013
  35.6259995  48.1879997  79.0800018  47.3919983  73.8779984  27.3899994
  46.9389992  74.7279968  27.0660000  46.7400017  73.2249985  27.1110001
  33.1030006   9.1789999  19.2959995  32.1619987   9.3240004  19.2019997
  33.2610016   8.9209995  20.1879997  78.2910004  12.9630003  29.2530003
  78.4469986  13.4510002  30.1369991  77.7399979  12.2200003  29.5890007
  74.7949982  69.1419983  28.4710007  73.8539963  69.4290009  28.2819996
  75.1559982  69.4459991  27.6240005  55.5439987  81.1419983  26.6919994
  54.6660004  80.7229996  26.4270000  56.0120010  80.2949982  26.9270000
  11.3750000  16.2310009  19.5520000  10.6470003  15.9250002  20.0869999
  11.1590004  15.8439999  18.6499996  56.9269981  39.4370003  78.0790024
  56.1380005  39.2459984  77.5930023  56.9070015  40.4490013  78.0859985
  21.2110004   0.2520000  28.4309998  21.5470009   1.0310000  27.9200001
  21.4440002   0.4940000  29.3449993  28.9629993   2.9670000  19.7800007
  28.8250008   3.8910000  19.5489998  29.2959995   3.0309999  20.7019997
  67.1389999  71.5319977  22.2049999  67.4430008  71.2080002  23.0599995
  66.4410019  72.1869965  22.5200005   9.4610004  11.5990000  22.7830009
  10.3570004  12.0310001  22.5879993   9.5279999  10.8190002  22.2849998
  29.5550003   6.2069998  19.1459999  28.6860008   6.2560000  18.6720009
  29.1910000   6.4270000  20.0189991  57.2649994  80.0579987  29.7479992
  57.6269989  80.5589981  29.0219994  56.8889999  80.7750015  30.3290005
  37.9290009  48.5649986  76.6409988  37.0610008  48.1220016  76.4560013
  38.4959984  47.6990013  76.5910034  65.9369965  75.5350037  25.7789993
  64.9929962  75.8010025  25.8689995  65.7799988  74.7080002  25.3150005
  63.0600014  77.6729965  28.1450005  62.4280014  77.8000031  28.8969994
  63.8019981  77.3180008  28.6690006  63.9519997  78.1979980  23.3040009
  64.3069992  79.1340027  23.4060001  64.3089981  78.0339966  22.4179993
  25.9330006  46.6100006  83.0149994  25.1280003  47.1969986  82.7570038
  26.2049999  47.1720009  83.7669983  11.4989996  13.7939997  27.0680008
  12.4469995  14.0860004  27.0919991  11.2259998  14.1210003  27.9729996
  17.5470009  11.9910002  25.2779999  17.5690002  12.5349998  26.1439991
  18.4080009  12.3640003  24.9179993  25.1329994   8.8599997  22.5620003
  25.0779991   9.8540001  22.3640003  25.1910000   8.8730001  23.5189991
  16.3239994  16.9090004  24.7789993  15.6599998  16.1849995  25.0039997
  15.6859999  17.6240005  24.6790009  35.9930000  36.1220016  84.1480026
  35.4420013  35.5200005  84.6800003  35.5429993  36.9949989  84.3339996
  19.3309994  13.9600000  24.1560001  19.4740009  13.3610001  23.3859997
  19.5470009  14.8490000  23.7660007  16.2329998   3.8750000  23.9769993
  15.8839998   2.9640000  23.9389992  16.3990002   3.9740000  22.9810009
  41.1590004  34.4970016  78.7819977  40.8419991  34.8160019  77.9609985
  41.5359993  35.3400002  79.2119980  16.1679993  10.1040001  21.6959991
  17.0650005   9.9899998  22.0440006  15.6300001   9.6210003  22.4139996
  22.6970005  11.4960003  19.9769993  22.8799992  11.6719999  20.9839993
  22.1459999  12.2700005  19.8260002  49.1409988  84.0810013  28.7450008
  49.5169983  84.5599976  28.0149994  49.6969986  84.3479996  29.4950008
  33.3730011  48.4939995  85.9769974  33.9869995  47.7709999  85.6640015
  33.0639992  48.0470009  86.8109970  26.8859997  47.1720009  87.3059998
  26.7129993  46.7159996  88.1579971  27.4470005  47.9230003  87.6019974
  58.1609993  73.2799988  29.1580009  58.8950005  73.1920013  28.4810009
  57.5859985  73.8939972  28.6270008  43.9490013  36.6590004  84.3570023
  43.4920006  35.8590012  84.6839981  43.9650002  37.2169991  85.1640015
  20.2910004   2.6370001  22.1609993  21.1720009   2.9560001  21.8239994
  20.4099998   2.7809999  23.1429996  26.0480003   2.9449999  39.9990005
  25.8099995   2.6170001  39.1150017  25.4130001   2.3950000  40.5390015
  29.5660000  -2.4430001  23.7539997  28.7119999  -2.7620001  23.9839993
  29.8810005  -1.9980000  24.5590000  24.5990009  17.4969997  18.9099998
  24.9669991  16.7450008  19.4080009  24.7639999  18.2740002  19.4820004
  20.0860004  15.2170000  21.6779995  20.4270000  16.1779995  21.6679993
  19.1720009  15.3940001  21.5750008  29.7010002  37.9070015  82.0759964
  29.4080009  37.1069984  82.6340027  30.2420006  38.3489990  82.7580032
  47.2669983  46.9570007  80.8259964  46.4879990  46.3790016  80.6829987
  47.9760017  46.5190010  80.3860016  45.4020004  44.3979988  78.1930008
  45.6090012  44.4350014  77.2239990  45.9440002  43.6069984  78.4420013
  36.4939995   4.4670000  26.0020008  35.6969986   4.0549998  25.6310005
  36.9339981   4.7800002  25.1590004  23.8589993  -0.9820000  31.9810009
  23.3379993  -1.7660000  32.2330017  24.6609993  -1.4500000  31.5599995
  53.8629990  45.3079987  75.7070007  53.9910011  46.2350006  75.9039993
  52.8699989  45.3339996  75.7190018  27.4190006   5.9299998  17.6009998
  26.6410007   5.4489999  17.7609997  27.0279999   6.8590002  17.5450001
  23.6089993   4.9260001  37.4329987  23.1259995   4.8649998  38.2830009
  23.8710003   5.8220000  37.4070015  25.6910000  46.3919983  79.3899994
  26.0340004  45.6110001  79.9229965  24.9260006  45.9589996  78.9889984
  61.6809998  66.4219971  28.8099995  61.4140015  66.6119995  27.8659992
  60.8400002  66.6060028  29.1989994  11.3739996   4.3579998  30.6720009
  10.5129995   4.7080002  30.2779999  11.9040003   5.1609998  30.6060009
  27.8419991  48.3149986  81.4720001  28.5860004  47.9560013  81.8880005
  27.1259995  47.7260017  81.7480011  49.9780006  36.1529999  82.4110031
  49.5950012  37.0620003  82.4629974  50.5989990  36.2859993  81.6719971
  26.7849998  -0.8360000  24.4389992  27.3789997  -0.1930000  23.9570007
  25.9309998  -0.5990000  23.9410000  29.0760002   7.7839999  23.8290005
  29.6949997   8.4020004  24.2129993  29.3589993   6.9660001  24.4279995
  27.1119995  44.2550011  83.1900024  26.8209991  45.1920013  83.1750031
  27.1459999  44.0849991  84.1689987  44.3279991  32.7620010  77.0289993
  43.3950005  32.3870010  77.0739975  44.7820015  32.0989990  76.4840012
  20.3020000  -1.3130000  35.5169983  19.5690002  -1.9660000  35.6759987
  20.7369995  -1.8090000  34.7939987  14.9910002   8.0229998  23.2000008
  15.4119997   8.7209997  23.7900009  14.9180002   7.3210001  23.9029999
  30.7649994  43.2379990  82.2200012  31.0349998  42.4889984  81.6790009
  29.8859997  43.0340004  82.5609970  34.5849991  18.3640003  31.4080009
  34.4729996  19.2520008  31.0389996  33.7869987  18.2789993  31.9150009
  34.4860001  20.7600002  29.9440002  35.1040001  20.8840008  29.1840000
  34.6259995  21.6070004  30.4190006   2.9849999  33.0159988  16.8859997
   2.3490000  33.1809998  16.1410007   3.5200000  32.2849998  16.4640007
  29.5090008  16.1450005  32.9980011  29.4440002  17.1410007  32.9720001
  28.5669994  15.8900003  33.2830009  21.0230007  19.2409992  41.2490005
  21.9440002  18.8740005  41.1450005  20.8740005  18.8460007  42.1440010
  20.1180000  21.0979996  12.9420004  19.3929996  21.7959995  13.1059999
  20.1870003  21.1019993  11.9980001  39.7970009  44.8419991  81.1640015
  39.1209984  45.0070000  81.9029999  39.1339989  44.8110008  80.4309998
  26.2670002  26.3150005  31.1989994  25.4839993  26.8700008  31.0130005
  25.7940006  25.4319992  31.2220001  13.7959995  19.6350002  32.6110001
  14.2010002  19.0949993  31.8950005  12.8710003  19.2169991  32.6150017
  12.5990000  21.6310005  15.4169998  12.5799999  21.8439999  16.3600006
  12.7480001  20.6970005  15.4169998  27.3239994   9.5860004  28.3120003
  26.3600006   9.4420004  28.2600002  27.4629993  10.1479998  27.5279999
  16.1140003  33.7070007  12.8260002  16.7310009  33.8790016  12.1320000
  16.2980003  32.7350006  13.0279999  39.4580002  19.0939999  26.1189995
  38.8180008  18.8209991  25.4419994  39.1320000  18.5559998  26.8689995
  31.7880001  13.9560003  19.1630001  31.3299999  13.1569996  18.8090000
  31.7779999  14.4540005  18.3400002  23.7639999  20.8490009  19.4650002
  22.9990005  20.2380009  19.3799992  24.3939991  20.2250004  19.9260006
  22.3869991  13.7049999  24.6219997  21.3990002  13.7139997  24.5149994
  22.5470009  14.6809998  24.6000004  63.0649986  41.8429985  77.1900024
  62.1990013  42.1899986  77.3750000  63.6269989  42.1209984  77.9449997
  32.4469986  22.8090000  47.4309998  31.6779995  22.8980007  46.8250008
  33.0419998  23.4930000  47.0120010  19.8770008  13.1450005  41.3569984
  19.4570007  13.6840000  40.6300011  20.4529991  13.8520002  41.7519989
  34.4700012  -2.3989999  20.4939995  35.4129982  -2.2720001  20.3390007
  34.2159996  -3.0250001  19.7840004  19.8659992  18.1380005  14.3789997
  19.8470001  19.0569992  14.0039997  18.8929996  18.0079994  14.5279999
  13.5600004  16.1380005  32.5979996  14.1230001  15.5319996  32.0750008
  13.3839998  15.5629997  33.3489990  18.8530006  20.2590008  16.7439995
  19.5540009  20.6089993  16.1620007  18.0610008  20.6970005  16.4729996
  24.9410000   9.8360004  37.0089989  25.6439991   9.7889996  37.7109985
  25.4500008  10.3490000  36.3260002  42.8129997   5.8130002  10.7119999
  42.3699989   6.6659999  10.8330002  42.1279984   5.3330002  10.2340002
  54.2630005  48.4900017  75.6399994  54.4430008  49.4259987  75.9309998
  53.3180008  48.5589981  75.5619965  16.8449993  16.5699997  30.2129993
  16.8180008  15.8070002  29.5869999  17.3050003  17.2390003  29.6569996
  25.0419998  19.7849998  32.9109993  25.8939991  19.5030003  33.2890015
  24.4090004  19.1660004  33.3639984  19.1569996   9.8000002  33.3979988
  18.2670002   9.9930000  33.0680008  19.4780006  10.7010002  33.7010002
  24.5879993  22.7420006  35.0429993  24.8950005  21.8869991  35.5120010
  24.8059998  23.3719997  35.7340012  39.1010017  26.7140007  11.6250000
  39.1629982  25.7980003  11.8970003  39.4550018  26.6399994  10.6899996
  17.4529991   2.3640001  32.8769989  17.3500004   1.5760000  32.2659988
  17.4740009   3.0369999  32.1409988  18.4039993  20.2070007  36.9650002
  18.6429996  19.6350002  36.1679993  19.1140003  19.7369995  37.5740013
  27.8239994  11.4930000  30.4680004  27.5039997  11.6070004  29.5629997
  28.8199997  11.5410004  30.2399998  20.6159992  13.4790001  31.4379997
  20.8190002  13.4460001  32.4099998  21.1529999  14.2770004  31.1889992
  23.8360004  25.0550003  25.9090004  24.0970001  24.3880005  25.3379993
  23.0480003  25.4920006  25.5039997  17.9279995  26.1860008  15.3319998
  18.1110001  27.1410007  15.5070000  18.9120007  25.8929996  15.3680000
  21.1669998  30.7740002  31.6480007  21.5529995  30.0389996  31.2350006
  21.3040009  31.5380001  31.0279999  15.3520002  12.8430004  23.9540005
  15.2019997  12.7690001  22.9969997  16.3129997  12.8230000  24.0440006
  24.9589996  24.2320004  37.3339996  24.8490009  24.2889996  38.3050003
  25.3279991  25.1250000  37.1920013  24.4790001   6.4169998  21.9909992
  24.1910000   6.9099998  21.1720009  24.8959999   7.2509999  22.4619999
  18.0330009  23.8040009  42.9630013  17.2380009  23.5370007  43.3499985
  18.7220001  23.2399998  43.3419991  37.0410004  48.7449989  84.4749985
  37.9819984  48.5540009  84.3619995  37.0600014  49.3759995  85.2529984
  48.0699997  20.5730000  20.0830002  48.1339989  21.4680004  20.5039997
  47.0960007  20.4829998  20.1310005  23.8799992  20.5470009  14.6929998
  24.4880009  21.0249996  14.1000004  24.2479992  20.7689991  15.5979996
  12.3719997   8.3140001  26.0400009  11.9919996   8.4480000  26.9419994
  13.3389997   8.3570004  26.2119999  16.8209991  21.3910007  15.2390003
  15.9910002  21.8369999  15.4969997  17.0839996  21.8750000  14.4689999
  27.2859993  20.5890007   9.2889996  26.6289997  20.8880005   8.6379995
  26.7779999  19.8959999   9.7360001  25.9640007   9.2460003  33.2439995
  26.3190002   8.8050003  32.4720001  25.1250000   8.8339996  33.4620018
  14.7060003  12.9709997  20.8980007  15.6490002  12.8599997  20.8360004
  14.4639997  13.0229998  19.9860001  32.0820007  29.4899998  36.2540016
  32.5070000  29.0429993  35.4630013  31.7609997  30.3239994  35.7579994
  23.7700005  28.0650005  30.8540001  24.0540009  28.9080009  31.3400002
  23.2420006  27.6809998  31.6410007  32.2029991  29.4599991  28.7460003
  31.4529991  29.9799995  28.3279991  32.0470009  28.5979996  28.2719994
  17.4570007  28.4950008  37.2610016  18.0090008  29.0650005  37.8279991
  16.7500000  29.0949993  37.0209999  24.9529991  10.6320000  30.6459999
  24.7789993  10.5050001  31.6320000  25.7630005  10.0360003  30.5970001
   7.6090002  16.3840008  24.8610001   7.9910002  15.5369997  25.2070007
   7.0040002  16.0249996  24.2280006  53.5489998  57.0559998  70.2740021
  53.1660004  57.7410011  70.8190002  53.0849991  56.2389984  70.6019974
  31.1329994  22.5730000  32.2159996  30.9360008  23.3780003  32.7649994
  32.0320015  22.3680000  32.5719986  24.5790005   5.3569999  17.6219997
  23.6630001   5.1620002  18.0270004  24.3169994   5.8239999  16.8260002
  22.8869991  -2.3859999  24.8740005  23.3250008  -2.9979999  24.1560001
  23.1599998  -2.9210000  25.6569996  17.5410004  13.3610001  20.5179996
  17.6840000  14.1980000  20.0750008  17.3150005  12.7480001  19.8309994
  26.6040001  21.3379993  14.1169996  27.1140003  21.5279999  14.9110003
  26.9200001  22.0830002  13.5579996  34.8059998  66.8929977  71.0070038
  34.7470016  67.8040009  71.3249969  35.7420006  66.9059982  70.6630020
  27.4459991  13.3599997  17.1989994  27.5629997  13.3629999  16.2469997
  26.9249992  12.5190001  17.3180008  45.3460007  40.0810013  80.9199982
  44.7290001  40.8110008  80.6989975  44.7620010  39.5419998  81.4929962
  33.0709991  26.0669994  34.1139984  32.1910019  25.6639996  34.0839996
  33.4819984  25.6009998  34.8619995  28.2830009  24.2999992  16.2700005
  27.7730007  24.7250004  16.9990005  28.7000008  25.1580009  15.8839998
  73.1559982  62.3629990  25.8209991  73.0469971  61.3730011  25.8279991
  72.1500015  62.5190010  25.8199997  50.3370018  49.8610001  67.0619965
  50.5330009  48.9210014  67.2180023  49.3479996  49.8380013  67.0609970
  20.0470009  21.8950005  10.1709995  20.7989998  21.6879997   9.5559998
  20.0869999  22.8759995  10.1320000  39.2610016  24.2919998  22.3090000
  39.4109993  24.2619991  23.2530003  39.6119995  23.4050007  22.0529995
  31.1800003  19.4820004  23.8199997  32.0120010  19.5349998  23.3239994
  30.7220001  20.2689991  23.4220009  47.9480019  49.0629997  77.4680023
  48.8069992  49.3909988  77.2450027  47.4889984  49.9410019  77.3389969
  44.3339996  57.4609985  75.3799973  43.7999992  57.1629982  74.6060028
  44.8149986  58.1899986  74.9830017  28.7049999  11.2900000  19.4969997
  28.0070000  10.6999998  19.9169998  29.3080006  10.5819998  19.1870003
  22.1310005  19.5559998  22.4529991  23.0160007  19.9890003  22.6380005
  21.6159992  20.3339996  22.1959991  54.1559982  40.8359985  78.8960037
  54.5110016  40.6399994  78.0400009  53.5730019  40.0690002  79.0540009
  13.4480000  28.9449997  30.2970009  13.2760000  29.4169998  29.4099998
  12.6730003  28.3880005  30.3409996  26.3330002  16.4720001  27.5359993
  26.1119995  16.2110004  28.4130001  26.6860008  17.3759995  27.6660004
  23.7830009  14.8979998  12.7810001  23.5970001  14.4029999  13.6350002
  22.9440002  15.4309998  12.7989998  30.3299999  21.6749992  22.4599991
  30.7460003  22.5790005  22.4629993  29.4009991  21.8880005  22.5559998
  20.0860004  18.5459995  29.4580002  20.6499996  19.2409992  29.1359997
  19.3470001  18.6389999  28.8680000  25.3390007  23.9619999  31.1049995
  24.7539997  23.2229996  31.4319992  25.0639992  24.0370007  30.1749992
  21.7579994  26.3220005  24.6100006  21.7980003  27.2889996  24.5760002
  20.8239994  26.2040005  24.9139996  37.5349998  20.2549992  23.0580006
  38.3559990  20.7719994  23.2169991  37.4760017  20.4410000  22.0650005
  31.7369995  20.8649998  29.9220009  32.6769981  20.7369995  30.1410007
  31.4069996  21.4179993  30.6329994  19.6170006  20.6110001  24.5070000
  18.7520008  20.4249992  24.1229992  19.3859997  20.5610008  25.4740009
  34.6959991  23.9529991  20.1149998  34.5390015  23.1949997  20.6860008
  35.6409988  23.8400002  19.9549999  20.8700008   7.3030000  18.1070004
  20.6429996   7.6599998  17.2740002  20.4729996   8.0410004  18.6770000
  17.3369999  18.7590008  21.4699993  17.1650009  19.2570000  22.2810001
  18.2169991  18.5170002  21.4669991  41.6310005  50.6230011  80.8860016
  41.7420006  49.8559990  80.2580032  41.1559982  51.2760010  80.2959976
  29.0650005  21.5680008  33.5149994  29.9069996  21.8040009  33.0379982
  28.4410000  22.0559998  32.9449997  28.5879993  17.1620007  21.7950001
  28.4109993  17.2849998  20.7950001  28.5400009  16.1900005  21.8369999
  33.0400009  20.1180000  34.4650002  32.6730003  19.6690006  35.2599983
  33.0260010  19.3750000  33.8339996  24.6389999  27.5510006  23.2639999
  24.4689999  27.6410007  24.2220001  25.5450001  27.2220001  23.2549992
  33.3839989   7.9310002  16.7989998  32.6549988   7.1960001  16.8190002
  33.2939987   8.2010002  17.7390003  23.3479996  31.2660007  24.3810005
  23.8530006  31.0990009  23.5410004  24.0429993  31.0750008  25.0109997
  21.2800007  17.5979996  24.2759991  21.9519997  17.2350006  23.6119995
  21.0510006  18.4449997  23.8449993  27.3640003  10.9919996  25.9400005
  26.5100002  11.5690002  25.8610001  27.9549999  11.6230001  25.4640007
  61.5660019  65.8320007  58.1629982  62.2570000  66.3180008  57.6510010
  61.9410019  64.9349976  58.2360001  25.1690006  20.0060005  41.4970016
  26.0580006  20.0330009  41.9710007  24.6560001  20.6259995  42.1020012
  28.4279995  27.5559998  34.8069992  28.8320007  27.0590000  35.5620003
  28.9080009  28.3910007  34.8409996  11.3100004  15.0690002  40.6860008
  11.9239998  15.0799999  39.8759995  10.4639997  14.8929996  40.2080002
  20.5949993  21.6959991  21.9930000  20.1650009  21.5559998  22.8670006
  19.8479996  22.0510006  21.4589996  30.7189999  12.1770000  17.3710003
  29.8199997  11.9499998  17.4979992  30.6490002  13.0830002  16.9370003
  21.0470009  -2.3659999  27.6700001  21.3419991  -1.4710000  27.9389992
  21.3530006  -2.8529999  28.4549999   7.7129998  25.5820007  20.0790005
   7.1830001  25.4489994  19.2570000   8.2840004  26.3180008  19.8390007
  17.1770000  16.4549999  33.0699997  17.3309994  16.7770004  32.1220016
  16.4379997  17.0669994  33.2680016  28.7229996  30.1870003  33.9049988
  29.4909992  30.4279995  34.4080009  28.6569996  31.0410004  33.3899994
  23.5310001  28.2980003  25.9389992  23.2159996  29.1940002  26.1450005
  23.3889999  27.8139992  26.6879997  37.0110016  59.1629982  75.1399994
  37.4150009  59.2879982  76.0159988  36.6230011  60.0279999  74.9830017
  36.0000000  17.6369991  33.9580002  36.9269981  17.8719997  34.0569992
  35.7430000  17.9829998  33.0999985  26.3320007  30.6770000  28.1560001
  26.5629997  30.6019993  29.0860004  27.1779995  30.9969997  27.7670002
  32.5890007  21.3180008  14.3629999  33.1100006  21.9190006  14.9099998
  31.6930008  21.6690006  14.6599998  17.0259991  18.3390007  14.9680004
  17.0119991  18.3470001  15.9560003  16.1259995  18.6749992  14.7419996
  35.7900009  15.2840004  20.6289997  35.1899986  15.8769999  21.0949993
  35.4910011  15.2799997  19.6830006  20.8859997  16.3260002  31.2220001
  20.2269993  16.9039993  31.6509991  20.9060001  16.8369999  30.3859997
  22.9480000  23.5569992  16.5359993  22.1889992  22.9810009  16.2329998
  23.2210007  23.8939991  15.6499996  36.4930000  27.4699993  27.0909996
  35.8740005  28.0970001  26.7040005  35.9010010  26.9529991  27.6819992
  33.7369995  19.3770008  38.1180000  32.9710007  19.0009995  37.6119995
  33.3460007  20.1359997  38.5579987  26.6049995  25.8509998  23.6439991
  26.4190006  25.6459999  24.5319996  27.4729996  25.4179993  23.4480000
  18.5499992  22.6700001  20.7600002  18.2649994  22.7409992  19.8129997
  17.7390003  22.3390007  21.1270008  27.0319996  16.8750000  39.8240013
  27.7639999  17.1219997  40.4000015  27.0070000  15.9080000  39.8839989
  26.5139999  26.4820004  26.3349991  26.5900002  27.3120003  26.8840008
  25.5769997  26.3939991  26.2360001  18.6919994  16.6299992  25.9279995
  19.3649998  17.0139999  25.3780003  17.8859997  16.7870007  25.4139996
  13.7139997  21.3859997  22.5680008  14.4069996  21.0839996  21.9629993
  13.9890003  22.2539997  22.8360004  22.9729996  14.3039999  15.3090000
  22.7159996  13.3699999  15.5410004  22.0919991  14.7209997  15.4770002
  30.7989998  14.1759996  31.4960003  30.4669991  15.0629997  31.8160000
  31.5370007  14.1070004  32.1310005  21.1450005  10.8979998  30.4319992
  20.9190006  11.8149996  30.6580009  21.9179993  10.9980001  29.8799992
  24.8680000  25.7089996  33.7639999  25.3509998  24.8959999  34.0660019
  24.7810001  25.5359993  32.8199997  16.9370003  12.3459997  18.0529995
  16.3330002  11.5889997  18.2709999  16.3419991  12.8549995  17.4169998
  32.5909996  32.1609993  31.7919998  33.3069992  32.6599998  31.4109993
  31.9650002  32.8680000  32.0099983   5.1350002  26.4309998  23.3230000
   4.7340002  27.0189991  22.7579994   4.9349999  26.7709999  24.2549992
  31.8190002  27.2919998  27.3689995  32.0480003  26.7999992  26.5739994
  30.9050007  26.8829994  27.5249996  14.1020002  18.7549992  18.5669994
  14.9860001  18.5960007  18.2010002  14.3559999  19.1509991  19.4209995
   9.1459999  25.4410000  25.4839993   9.4490004  24.8349991  26.2019997
   8.2299995  25.0750008  25.3120003  26.6989994  14.9720001  19.1060009
  26.9209995  14.2019997  18.4300003  25.8509998  14.5790005  19.4419994
  17.7570000  15.5880003  17.1679993  17.3010006  15.5860004  16.3099995
  17.0289993  15.3629999  17.7579994  21.4680004  26.6590004  19.3579998
  21.6700001  26.6310005  20.3549995  22.3279991  26.3549995  19.0259991
  28.8029995  24.1079998  23.6879997  29.3880005  23.9419994  24.4400005
  28.4589996  23.1599998  23.6250000  25.5919991  -5.0170002  27.8610001
  25.2800007  -4.1450000  28.2649994  26.3279991  -5.2360001  28.5259991
  54.7999992  40.5200005  76.3130035  54.8089981  39.5400009  76.3089981
  53.8759995  40.6150017  75.9540024  37.9749985  39.9830017  85.5739975
  37.6559982  40.0040016  84.6809998  38.0369987  38.9819984  85.7080002
  30.5520000  18.3560009  20.4790001  30.1229992  18.1690006  21.3439999
  30.0760002  17.6949997  19.9330006  16.4680004   5.9380002  27.2779999
  16.8330002   5.9480000  26.3659992  16.8630009   5.1560001  27.6679993
  23.0079994  16.0860004  36.7029991  22.9290009  16.1860008  35.7309990
  23.5310001  16.8269997  36.9790001  23.1270008  32.2639999  17.4930000
  23.8069992  31.6170006  17.8040009  23.3689995  33.0309982  18.0699997
   1.8690000  19.7350006  37.0130005   2.7670000  20.0739994  37.3689995
   1.7840000  20.4410000  36.2379990  17.8029995   8.5889997  19.8719997
  17.6989994   8.7950001  20.8090000  18.7880001   8.8170004  19.7999992
  56.0620003  35.4490013  76.6610031  56.9469986  35.0740013  76.8069992
  55.9690018  35.4679985  75.7050018  30.1700001  23.6499996  25.8190002
  31.0139999  24.1140003  26.0160007  29.8579998  23.3540001  26.6580009
  27.7500000  27.7099991  10.1610003  28.5669994  27.8789997   9.6230001
  27.0970001  28.2849998   9.6750002   5.9489999  19.1070004  39.7179985
   6.7189999  18.5809994  39.5740013   6.2930002  19.8470001  40.2700005
  41.4710007  33.7649994  17.7040005  41.1860008  34.4399986  17.0620003
  41.7239990  34.4099998  18.4459991  18.7779999  12.3780003  27.9200001
  19.4020004  11.8020000  27.4860001  19.3430004  13.1960001  27.9780006
  20.8470001  32.8120003  23.2320004  21.3759995  33.1920013  22.5130005
  21.5869999  32.2470016  23.6580009  23.2630005  18.6499996  28.2490005
  23.9599991  18.6310005  28.9850006  23.0160007  17.7199993  28.2110004
  24.6450005  15.9820004  30.0070000  24.5690002  16.9360008  29.9880009
  24.6709995  15.8009996  30.9820004  26.6560001  24.9529991  18.3859997
  26.9510002  25.1590004  19.2639999  25.7709999  25.4669991  18.3780003
  22.3040009   2.8360000  27.6970005  21.6350002   3.4990001  27.4960003
  22.9020004   3.3659999  28.3059998  29.5960007  19.6709995  35.5289993
  29.1550007  20.0160007  36.3419991  29.6389999  20.5259991  35.0000000
  29.2199993  20.7849998  41.2360001  28.9470005  20.1630001  40.4589996
  30.0340004  20.3029995  41.4939995  40.8359985  52.5929985  75.2239990
  41.5660019  52.1199989  74.7279968  40.5989990  51.8380013  75.8359985
  28.3840008  28.2600002  23.0930004  29.1130009  28.1679993  23.7800007
  27.6800003  27.7840004  23.5809994  20.4950008  10.8809996  24.8439999
  20.3850002  10.5270004  23.9669991  19.9659996  10.2830000  25.3610001
  34.7910004  28.9659996  25.6779995  34.9309998  28.2530003  25.0259991
  33.9309998  29.3059998  25.3110008  29.3080006  26.4150009  27.1690006
  28.4069996  26.3330002  26.7420006  29.0499992  26.8740005  28.0179996
  24.9080009  16.0869999  25.1070004  25.5009995  16.7649994  24.5990009
  25.5000000  15.8599997  25.8279991  21.2110004  16.3269997  12.8780003
  20.9540005  16.8449993  13.6750002  20.7770004  16.9069996  12.2349997
  27.7999992  22.6770000  31.3990002  28.4190006  23.1410007  30.8260002
  26.9669991  23.1609993  31.3020000  37.2719994  46.2809982  82.3970032
  37.4679985  46.1910019  83.3809967  36.4589996  45.7270012  82.3140030
  36.1290016  14.0159998  27.7229996  36.4350014  14.9390001  27.6110001
  35.3170013  14.2250004  28.2649994  25.3670006  35.5579987  13.0640001
  24.8659992  35.2179985  13.8030005  24.7649994  36.3110008  12.7430000
  26.8519993  17.0620003  47.3279991  27.6639996  17.2369995  46.7599983
  27.2970009  16.6000004  48.0639992  21.8199997   7.7550001  25.7900009
  22.6369991   7.2160001  25.8999996  22.1879997   8.5089998  25.2830009
  35.1329994  23.5869999   2.7690001  34.9850006  24.5760002   2.7900000
  35.0940018  23.4729996   1.7589999  26.3820000  29.1509991  33.0999985
  27.2380009  29.4300003  33.5060005  26.6420002  28.3640003  32.5909996
  24.9549999  12.3559999  25.7910004  24.5470009  12.8090000  26.5380001
  24.4729996  12.6829996  25.0179996  46.4669991  49.2439995  71.1340027
  46.7140007  48.3380013  71.3970032  46.1469994  49.6119995  71.9860001
  41.7639999  14.2240000  25.0799999  41.2919998  13.5810003  24.5389996
  42.2099991  14.8559999  24.4260006  29.1329994  12.1049995  22.5470009
  28.5249996  12.4949999  23.2290001  28.9810009  12.7790003  21.8670006
  32.2229996  16.9950008  18.4020004  32.3899994  16.9109993  19.3710003
  33.0270004  16.5510006  18.0970001  27.7840004  21.6480007  23.3649998
  27.9120007  20.6480007  23.5359993  26.8759995  21.5680008  22.9790001
  27.6849995  29.0900002  39.2410011  27.6380005  30.0699997  39.2270012
  28.6389999  28.8950005  39.1069984  42.1380005  57.5960007  77.0599976
  43.0419998  57.1580009  76.9280014  41.8089981  57.0330009  77.8209991
  36.3079987  51.2280006  77.0889969  35.5289993  50.5989990  76.9889984
  36.9179993  50.6790009  76.5289993  14.4150000  18.4340000  23.4340000
  13.4820004  18.0970001  23.5020008  14.2290001  19.3099995  23.8600006
  24.8379993   0.1640000  23.0690002  24.2029991   0.9080000  23.2619991
  25.3530006   0.5840000  22.3700008  44.3339996   2.1489999  16.5289993
  45.0089989   2.1040001  15.8030005  44.8460007   2.3440001  17.3349991
  25.0429993  19.8619995  36.0810013  24.3980007  19.4060001  35.4939995
  25.8490009  19.4309998  35.8400002  42.1619987  48.9440002  78.7310028
  43.1030006  48.8839989  79.0130005  41.7120018  48.3829994  79.2969971
  26.0559998  17.4279995  23.1690006  26.9130001  17.7970009  23.5660000
  26.1310005  17.8610001  22.2999992  38.8050003   8.1770000  11.9980001
  37.8079987   7.9629998  11.8059998  38.6430016   9.1300001  12.2360001
  27.9599991  14.2700005  27.0660000  28.0730000  14.2010002  28.0550003
  27.4750004  15.1499996  27.0189991  11.1199999  19.2399998  31.9759998
  11.1730003  19.7320004  31.1560001  10.9160004  20.0359993  32.6170006
  16.1350002  20.5900002  25.9510002  16.6809998  21.0440006  26.6100006
  15.3249998  20.4389992  26.5160007  22.6790009  10.3520002  26.5709991
  22.8969994  10.8640003  27.3640003  22.0349998  10.8809996  26.0769997
  30.3390007  19.6970005  28.0760002  31.1049995  19.3600006  27.6210003
  30.7290001  20.3929996  28.6700001  19.2089996  12.0889997  22.0699997
  18.9389992  11.1780005  21.9330006  18.6310005  12.5389996  21.4410000
  37.8009987  19.6240005  30.4740009  38.1290016  20.4349995  30.8680000
  37.9379997  18.9920006  31.2759991  32.1510010  18.5909996  26.1110001
  31.7670002  18.8850002  25.2210007  32.5800018  19.4360008  26.3619995
  24.6760006  17.4810009  38.7060013  25.4969997  17.1450005  39.1430016
  24.0070000  17.1399994  39.3269997  29.5939999  30.2000008  10.0830002
  30.3799992  29.6289997   9.9549999  29.4810009  30.4689999   9.1599998
  31.2950001  19.7700005  17.5520000  31.3619995  18.7940006  17.7579994
  30.8759995  19.7070007  16.6900005  38.2089996  16.9449997  22.0820007
  37.8059998  16.4820004  22.8750000  39.0060005  17.3139992  22.5559998
  41.5660019  17.9589996  16.9340000  40.9490013  18.5820007  17.2250004
  42.2290001  17.9589996  17.7110004  13.4119997  30.0270004  19.4449997
  14.3439999  30.3449993  19.4990005  13.4280005  29.2619991  20.0680008
  25.1420002  28.0529995  17.1870003  25.8160000  28.2210007  16.4629993
  24.3230000  28.0660000  16.5849991  38.4519997  45.1590004  84.8089981
  37.6590004  44.6139984  84.8529968  39.0550003  44.5709991  85.3489990
  18.6480007   9.1870003  22.4930000  19.3250008   8.5070000  22.2280006
  18.6340008   8.9160004  23.4899998  29.1779995  23.9810009  43.7820015
  29.7029991  24.8260002  43.7750015  28.2490005  24.4379997  43.9059982
  51.0699997  60.7260017  68.8529968  51.3139992  61.2120018  69.6949997
  50.8940010  59.8279991  69.1969986  29.2539997  24.0760002  29.2199993
  30.2049999  23.7779999  29.0669994  29.2049999  24.8160000  28.6110001
  11.3780003  25.5580006  32.9459991  11.9110003  25.4249992  33.7410011
  10.7060003  26.2080002  33.2540016  27.8220005  18.8950005  27.0580006
  28.1550007  18.1310005  26.5149994  28.6879997  19.3770008  27.2089996
   5.0980000  17.4930000  42.2029991   5.4369998  17.9890003  41.3919983
   4.5850000  16.8129997  41.7400017  31.7420006  30.2290001   5.5229998
  31.2070007  29.4540005   5.3930001  31.6679993  30.3449993   6.4689999
  39.7630005  30.0049992  25.1030006  39.9589996  29.8349991  24.1420002
  39.4500008  30.9640007  24.9839993  41.8629990  29.9680004   8.9270000
  41.3680000  30.6469994   8.4309998  42.0410004  29.3570004   8.1309996
  30.3670006  31.6130009  15.4350004  31.0590000  30.8939991  15.4630003
  30.9440002  32.3240013  15.1459999  22.5900002  26.8010006  21.9340000
  22.1550007  26.5230007  22.8309994  23.5189991  26.8630009  22.2169991
  39.2350006  30.8299999  20.1420002  38.4819984  30.7500000  19.5380001
  39.9650002  30.6650009  19.4759998  36.0190010  33.8380013  26.1380005
  36.8429985  33.6339989  26.6189995  36.3569984  34.5019989  25.4580002
  23.6119995  27.8390007  15.1400003  23.3719997  26.9659996  14.6920004
  22.9500008  28.4160004  14.7440004  35.5410004  22.1940002  24.5970001
  36.1790009  21.7080002  24.0130005  36.1980019  22.5970001  25.2310009
  27.5599995  29.6660004  19.3649998  27.6410007  30.1800003  20.2199993
  27.0410004  28.9230003  19.6919994  33.3139992  18.4260006  47.3370018
  32.5579987  19.0130005  47.3320007  33.8110008  18.7609997  48.1279984
  22.3269997  22.3619995  30.4330006  22.7940006  22.3010006  31.3099995
  21.9330006  23.2329998  30.6000004  34.7200012  21.4230003  21.2089996
  34.0979996  21.1040001  20.4850006  35.5569992  21.2320004  20.7600002
  27.9939995  25.5330009  11.8760004  27.9920006  26.2539997  11.3129997
  28.5240002  25.8610001  12.6890001  38.0660019  31.2460003  27.3059998
  38.4370003  32.1800003  27.2369995  38.7430000  30.7269993  26.8169994
  23.3630009  26.0520000  41.3160019  23.9270000  25.3980007  40.8530006
  22.5160007  25.9379997  40.8740005  39.1489983  18.8120003  19.5049992
  39.9440002  18.6450005  20.0779991  39.0079994  17.8680000  19.2320004
  44.3339996  29.5049992   9.8380003  43.4410019  29.7040005   9.4840002
  44.6240005  30.4480000  10.1009998  32.3069992  28.4669991  21.8430004
  31.5690002  27.9349995  21.5359993  33.0349998  28.1200008  21.3239994
  38.6879997  21.3880005  14.1750002  39.5449982  21.4860001  13.7100000
  38.6959991  20.5009995  14.4849997  22.7950001  32.2799988  14.7799997
  22.9069996  32.2210007  15.7799997  22.0890007  31.6149998  14.6750002
  35.5130005  17.8349991  18.3490009  35.9309998  17.0170002  18.5249996
  35.7550011  18.4610004  19.0769997  33.2060013  32.0789986   9.7349997
  33.7869987  31.8239994  10.4809999  33.7939987  32.1749992   8.9829998
  46.2459984  21.7259998  15.2810001  45.6320000  22.1930008  14.6420002
  45.6110001  21.5569992  15.9899998  40.0410004  27.8540001  19.6669998
  39.2089996  27.8579998  19.2000008  40.7200012  27.9480000  19.0030003
  27.8020000  20.0000000  30.0860004  27.9549999  20.9349995  30.1049995
  28.1539993  19.8080006  29.1849995  23.1490002  27.3780003  28.4389992
  23.4169998  27.7119999  29.3729992  22.2399998  27.6410007  28.4629993
  42.6180000  22.0540009  16.3339996  41.9799995  21.6639996  16.9480000
  43.2949982  21.3080006  16.4179993  15.2690001  29.4029999  32.2210007
  15.2480001  28.4319992  32.4140015  14.7349997  29.4740009  31.4360008
  23.9349995  33.8100014  30.0279999  24.9029999  33.6839981  29.8279991
  24.0669994  33.7010002  31.0049992  24.6709995  33.3390007  27.0009995
  25.0919991  32.5070000  27.2490005  25.4909992  33.9169998  26.9969997
  37.0439987  16.2259998  36.7070007  36.8279991  15.2770004  36.7649994
  36.4729996  16.5559998  35.9830017  29.6800003  38.7319984  26.0599995
  30.4090004  39.0530014  26.6270008  30.1040001  39.0120010  25.1469994
  20.5779991  25.7409992  12.7399998  21.3920002  25.3950005  13.1870003
  20.8390007  26.7049999  12.6809998  20.7660007  23.2849998  38.0909996
  21.1639996  22.4869995  37.6920013  20.7189999  22.9349995  39.0309982
  48.0219994  20.2590008  17.5709991  48.3160019  19.9990005  18.4659996
  48.1749992  21.2600002  17.7029991  40.1220016  21.3059998  22.4209995
  40.7949982  21.5839996  23.0660000  40.5270004  20.6879997  21.8430004
  39.3899994  23.1340008  29.3530006  39.3800011  22.3199997  28.7950001
  39.5159988  23.8269997  28.6539993  28.1580009  31.7950001  24.2310009
  29.1609993  31.6529999  24.2950001  28.0779991  31.9589996  25.2240009
  25.1980000  20.5869999  23.3020000  25.3710003  19.8600006  23.9610004
  24.5739994  21.1380005  23.7280006  32.4780006  28.6949997  33.6069984
  31.9960003  28.6819992  32.7779999  32.6619987  27.7089996  33.8040009
  24.5660000  30.4629993  31.8829994  25.1790009  30.0520000  32.5320015
  25.1569996  31.1019993  31.4610004  21.7819996  23.6739998  27.2689991
  22.0419998  22.7129993  27.3719997  22.6690006  24.0410004  26.9580002
  30.9290009  34.2150002  31.6749992  30.8519993  35.2229996  31.4150009
  30.5480003  33.8409996  30.8519993  29.7579994  32.7210007  11.5850000
  28.8349991  32.3699989  11.6639996  30.2339993  31.8530006  11.4670000
  24.4200001  31.4080009  12.8079996  23.6189995  31.4009991  13.2989998
  24.2870007  30.6359997  12.2139997  32.5209999  29.4559994  24.2530003
  32.4690018  29.2770004  23.2670002  31.9540005  28.7439995  24.5590000
  28.6170006  26.3110008  32.4000015  28.4540005  26.9810009  33.1430016
  27.7320004  26.0960007  32.1899986  51.2029991  69.5240021  61.5750008
  51.2080002  68.8949966  62.3520012  50.5489998  70.1389999  61.9099998
  42.0639992  21.5599995  24.6620007  42.2500000  20.6760006  25.0650005
  42.9990005  21.8920002  24.7539997  43.0079994  27.9290009  22.3500004
  43.8160019  28.5289993  22.4220009  42.7739983  28.0990009  21.4020004
  25.6840000  30.7450008  25.5809994  26.1520004  30.8369999  26.4440002
  26.4270000  30.6289997  24.9699993  22.3509998  21.1609993  27.9990005
  22.6480007  20.2169991  28.2759991  22.4209995  21.6480007  28.8540001
  29.7049999  27.6879997  20.8859997  29.2099991  28.0869999  21.6270008
  29.3349991  26.7579994  20.9529991  30.5020008  13.2010002  26.8640003
  29.6170006  13.7469997  26.8540001  30.9780006  13.9340000  27.4020004
  39.4490013  44.4539986  14.8999996  39.9329987  43.8349991  14.2360001
  38.7449989  43.8610001  15.1389999  31.6320000  37.1389999  31.3980007
  32.0919991  37.6180000  30.6340008  31.3099995  37.9010010  31.9230003
  40.0999985  36.0680008  16.4759998  39.4850006  36.0309982  15.7600002
  40.0390015  37.0309982  16.7509995  32.1290016  26.1060009  24.6660004
  32.3800011  25.1700001  24.4500008  33.0379982  26.4850006  24.5200005
  39.0839996  27.5270004  26.2609997  38.0970001  27.5799999  26.4009991
  39.3120003  28.4249992  26.1270008  28.3400002  23.1119995  12.8030005
  28.2740002  24.0520000  12.4029999  28.7299995  22.7180004  11.9779997
  33.9519997  18.8199997  22.6739998  34.6409988  18.5960007  23.3910007
  34.5660019  19.4330006  22.1590004  36.1980019  40.9249992  16.1980000
  35.6660004  40.3720016  15.6199999  36.3750000  40.3769989  16.9650002
  36.9249992  37.3870010  14.5400000  37.3540001  36.4739990  14.5200005
  37.0079994  37.6090012  15.4879999  32.9809990  32.5719986  17.1980000
  32.6250000  33.1180000  16.4979992  33.2500000  33.2449989  17.8600006
  45.3860016  18.5769997  24.4139996  45.4290009  17.6280003  24.6970005
  44.9370003  18.5289993  23.6019993  44.0320015  31.5470009  13.3559999
  43.5410004  31.8490009  14.1899996  44.3499985  30.6800003  13.6660004
  24.5559998  30.3230000  22.1140003  24.7730007  29.4060001  22.0559998
  25.3990002  30.7590008  22.0090008  31.9099998  24.5310001  15.1099997
  32.6290016  24.9659996  15.5609999  32.0279999  24.8570004  14.1630001
  33.4900017  24.2910004  17.7830009  33.7099991  23.5060005  17.2240009
  33.7400017  23.9150009  18.6910000  34.7960014  27.9260006  37.2080002
  34.1769981  28.2630005  36.5649986  34.8930016  26.9759998  36.8650017
  49.2939987  16.0480003  17.8190002  48.7529984  15.6210003  17.1329994
  49.9169998  16.5380001  17.2029991  42.8619995  23.0660000  27.0289993
  43.1180000  22.8899994  27.9109993  43.6510010  23.2509995  26.4850006
  52.3499985  19.4699993  13.5410004  51.5929985  18.8160000  13.7080002
  51.7820015  20.1770000  13.1549997  58.0530014  21.3640003  11.5260000
  58.5690002  20.6550007  11.9940004  57.5769997  21.6849995  12.3649998
  37.5629997  30.6770000  18.0680008  36.6100006  30.5259991  17.7630005
  37.9329987  30.9440002  17.1739998  43.1080017  37.1440010  15.5839996
  43.7729988  36.6049995  16.0979996  42.9420013  37.8429985  16.2989998
  34.0219994  33.9650002  29.9969997  33.7420006  34.6559982  29.3209991
  33.7080002  34.4620018  30.7619991  31.7800007  26.4109993  19.3509998
  31.7019997  25.4389992  19.3069992  30.8169994  26.6459999  19.3430004
  42.2210007  12.2910004  29.9559994  41.4350014  11.8330002  29.5450001
  42.4179993  11.6470003  30.6650009  37.1520004  22.7180004  30.8479996
  37.6759987  23.0160007  30.0979996  36.3059998  23.1959991  30.7639999
  55.4920006  45.7630005  18.7460003  54.8559990  45.3429985  19.3710003
  56.3460007  45.3160019  18.9750004  46.7649994  49.9430008   9.3459997
  47.4029999  50.6580009   9.5089998  46.2630005  49.9519997  10.1730003
  41.6209984  44.3250008  19.5590000  40.7799988  43.8660011  19.7740002
  41.7350006  44.1220016  18.5909996  44.6430016  39.9550018  19.9130001
  45.5639992  40.1129990  19.6180000  44.3079987  40.8940010  19.8160000
  46.4230003  49.1139984  14.5749998  45.5890007  49.0699997  15.1009998
  46.9589996  48.5200005  15.1269999  37.1279984  38.1049995  17.1630001
  36.9160004  38.3989983  18.0970001  38.0940018  38.3610001  17.2000008
  53.8100014  44.7029991  20.3160000  53.4959984  45.5209999  20.8110008
  52.9230003  44.3849983  20.0130005  57.3709984  42.6990013  23.1089993
  57.0730019  43.3199997  22.4060001  57.5369987  41.9150009  22.5520000
  47.6720009  50.3300018  20.9330006  47.1290016  49.7760010  20.3470001
  47.6320000  51.1959991  20.4389992  47.8339996  46.1520004  19.0830002
  48.4309998  46.8390007  19.5499992  46.9790001  46.5639992  19.3230000
  66.0439987  42.3300018  18.4120007  66.6630020  42.5089989  17.6509991
  65.8909988  41.3829994  18.2159996  55.6510010  64.4479980  15.3730001
  55.2319984  64.2419968  14.5059996  55.1489983  65.2239990  15.7049999
  45.7659988  47.3400002  20.0900002  45.6819992  47.6030006  21.0279999
  45.0029984  47.7939987  19.7019997  46.5159988  34.6959991  21.2910004
  46.6329994  33.7330017  21.5429993  46.6969986  34.6199989  20.3509998
  46.2529984  35.9000015  24.1849995  46.6160011  35.5379982  23.3360004
  47.0639992  36.4599991  24.4090004  40.4109993  46.2470016  17.1520004
  39.6300011  46.3289986  16.5330009  40.1139984  46.8310013  17.8509998
  43.5970001  42.3670006  19.9080009  42.7700005  42.8559990  19.7399998
  44.1699982  43.1250000  20.2010002  49.7249985  37.6059990  19.6480007
  48.8260002  37.6119995  19.3880005  50.2039986  38.1010017  18.9270000
  37.2000008  39.0970001  12.5039997  36.5979996  39.7760010  12.8360004
  37.3730011  38.5449982  13.3059998  42.0670013  40.7000008  16.7010002
  41.7249985  41.6500015  16.9319992  42.4980011  40.9420013  15.8230000
  50.6259995  59.9080009  12.7690001  50.4790001  60.4710007  13.5209999
  49.7519989  59.7939987  12.3769999  47.3600006  43.2949982  19.7119999
  47.9160004  44.0890007  19.4500008  46.6199989  43.7500000  20.2070007
  45.2239990  44.7439995  20.4979992  45.5209999  45.6819992  20.3969994
  44.4729996  44.8709984  21.0620003  49.1850014  51.1320000   9.8070002
  49.3450012  50.8590012  10.7609997  49.2669983  52.0830002   9.9300003
  54.4459991  48.5859985  16.7900009  53.8279991  48.4650002  17.5130005
  54.7060013  47.6310005  16.6380005  49.1419983  34.7550011  13.3070002
  48.6879997  34.4169998  12.5649996  50.0519981  34.8660011  12.9350004
  48.7379990  41.0849991  21.0279999  48.0719986  41.6500015  20.6380005
  49.4490013  41.1679993  20.4090004  49.6759987  53.8089981  10.3020000
  49.3370018  54.4440002  11.0039997  49.9449997  54.5890007   9.6619997
  51.7630005  44.2200012  15.9420004  51.3989983  44.9290009  15.3570004
  51.4160004  44.6119995  16.7970009  49.3339996  40.2120018  10.9460001
  48.3580017  40.0229988  11.0930004  49.2910004  40.0670013   9.9020004
  60.6990013  48.6780014  18.4899998  60.5950012  48.2589989  17.6030006
  60.5919991  49.6469994  18.1569996  59.0239983  49.5110016  34.0660019
  58.5279999  50.0180016  34.7039986  59.5509987  50.2519989  33.6030006
  51.1720009  58.7639999   6.9670000  50.3730011  58.2770004   6.5599999
  50.7830009  58.9780006   7.8810000  51.0760002  50.3300018  21.3220005
  51.1290016  50.7589989  20.4629993  51.5149994  50.9720001  21.9120007
  62.6790009  55.4690018  31.1560001  62.5110016  55.4119987  30.1609993
  62.9029999  54.5330009  31.3059998  40.2019997  38.6389999  17.2749996
  40.6910019  38.6629982  18.1149998  40.7500000  39.2099991  16.7399998
  50.9010010  38.3709984  21.9559994  50.0589981  38.8269997  22.1889992
  50.7120018  37.9589996  21.0779991  49.9430008  53.9160004  21.0410004
  49.9080009  54.6250000  21.6959991  49.6980019  53.1590004  21.6280003
  53.5750008  38.9480019  24.0109997  54.2299995  38.4430008  24.4009991
  53.9539986  39.8750000  23.9619999  55.2859993  44.0470009  11.7709999
  54.8149986  43.1749992  11.8579998  55.4420013  44.0800018  10.8179998
  61.5940018  47.2350006  28.5750008  61.3240013  47.2550011  29.5359993
  61.7080002  48.1699982  28.4290009  65.8580017  44.0410004  29.0599995
  65.9560013  44.7700005  28.4680004  65.5449982  43.3250008  28.4950008
  54.7910004  44.7669983  24.6580009  53.9169998  44.5299988  25.0000000
  55.2680016  44.9809990  25.4969997  44.1949997  37.8919983  24.6760006
  44.1339989  38.2630005  23.7600002  44.8800011  37.2130013  24.5279999
  42.4539986  40.9119987  13.9879999  41.9480019  41.6660004  13.6269999
  43.1380005  40.9440002  13.2410002  37.8969994  46.2560005  11.9350004
  38.7109985  46.5900002  12.4130001  37.4169998  45.9290009  12.7189999
  52.9910011  51.8120003   8.8929996  53.4339981  51.7509995   9.7349997
  52.3419991  51.0620003   9.0389996  40.2299995  50.4930000  14.9680004
  39.2779999  50.3950005  15.0480003  40.2579994  51.5330009  15.0830002
  64.9089966  50.4840012  34.4990005  65.2470016  49.8969994  33.8310013
  65.4960022  50.3409996  35.2939987  42.1020012  35.9239998  24.4920006
  41.7849998  36.1440010  23.5900002  42.6720009  36.6689987  24.7110004
  48.6020012  37.4780006  24.6259995  48.6590004  38.3170013  24.0809994
  49.5600014  37.4249992  24.8400002  58.2410011  48.5960007   9.9200001
  58.1580009  49.3870010   9.4340000  59.1969986  48.6119995  10.2010002
  55.7639999  39.0610008  22.1639996  54.9020004  38.8820000  21.7189999
  55.7999992  38.2690010  22.7469997  51.4099998  43.5130005  20.1019993
  50.8610001  43.5649986  20.9050007  51.1139984  42.6660004  19.7600002
  58.8479996  37.0429993  20.1690006  59.1389999  37.8289986  20.7029991
  58.7480011  37.3940010  19.2880001  46.2999992  45.2620010  13.5209999
  46.8050003  45.5849991  14.2370005  46.9760017  44.5880013  13.1599998
  58.8800011  43.4119987  11.6059999  58.4500008  42.6259995  11.3109999
  59.7929993  43.3699989  11.2089996  54.7570000  41.7270012  24.2369995
  54.5550003  42.6730003  24.1130009  55.6459999  41.7080002  23.8320007
  76.4660034  33.0779991  39.0620003  75.4789963  32.8559990  39.0789986
  76.6900024  32.4119987  38.3699989  44.4760017  44.9160004  17.8759995
  44.5800018  44.4739990  17.0160007  45.1240005  44.5769997  18.4330006
  50.5149994  42.8069992   6.1110001  49.6459999  42.6440010   6.5270000
  51.0779991  42.2369995   6.7659998  41.3440018  36.8079987  22.1289997
  42.2159996  37.1710014  22.2390003  40.9399986  37.5040016  21.5429993
  32.9169998  21.4880009  72.6490021  33.5970001  21.7199993  73.3079987
  33.4090004  20.9050007  72.0579987  64.0849991  59.4070015  39.2439995
  64.2320023  60.3149986  38.8009987  65.0110016  59.3400002  39.6689987
  46.9550018  65.4120026  15.7320004  47.1769981  65.2239990  16.6849995
  46.2000008  64.8010025  15.5710001  47.2690010  62.8779984  41.4259987
  46.6199989  62.1800003  41.2760010  47.8059998  62.4869995  42.1529999
  52.0089989  55.9539986  22.3309994  52.5099983  55.1879997  21.9540005
  52.6150017  56.3120003  22.9780006  33.0390015  37.2789993  76.9459991
  33.2220001  36.3380013  77.1780014  33.8849983  37.5000000  76.5100021
  61.8199997  63.1020012  27.5070000  62.4729996  63.0690002  28.2660007
  61.0060005  62.9799995  28.0279999  55.4129982  67.6859970  31.7770004
  55.0099983  66.9700012  31.2660007  55.1920013  67.5780029  32.6819992
  53.7480011  68.3789978  18.7970009  54.6520004  68.0189972  18.6919994
  53.2509995  67.7620010  18.2199993  49.6559982  50.5730019  12.4069996
  50.1510010  49.6920013  12.5000000  50.4830017  51.1040001  12.6569996
  56.0839996  62.8660011  27.7700005  56.2770004  61.9790001  28.0790005
  56.9249992  63.3569984  27.9939995  40.4900017  20.2859993  72.2929993
  40.6570015  19.3689995  72.6080017  41.0079994  20.3029995  71.4639969
  58.1030006  60.5680008  25.8290005  58.7120018  60.3889999  26.5830002
  57.7719994  59.6580009  25.7189999  57.7949982  47.5400009  17.0769997
  58.5070000  46.9760017  17.4050007  57.0159988  47.1230011  17.6019993
  50.3619995  50.7929993  28.2759991  51.3359985  50.8530006  28.4759998
  50.4220009  50.6510010  27.2929993  63.4970016  58.6570015  34.1189995
  64.3580017  58.3030014  34.4529991  63.5439987  58.3720016  33.1870003
  61.4029999  57.2050018  18.0629997  61.4350014  56.1969986  17.8020000
  61.1539993  57.0789986  19.0020008  54.2729988  69.0619965  27.0370007
  53.7610016  68.9639969  27.8139992  53.6389999  69.6259995  26.5219994
  50.8549995  57.3880005  20.3659992  51.0779991  56.8019981  21.1289997
  51.1590004  58.2739983  20.6919994  73.6660004  49.2120018  20.1590004
  73.2320023  49.0649986  21.0070000  73.2109985  50.0400009  19.9150009
  63.5110016  49.8289986  22.8080006  63.1010017  50.6129990  22.4160004
  64.3990021  49.8800011  22.4370003  49.8790016  64.0380020  28.7880001
  49.6250000  63.5449982  29.6280003  48.9589996  64.2760010  28.4920006
  40.0769997  30.5049992  80.1959991  39.5250015  29.6959991  80.3600006
  40.2070007  30.8589993  81.0680008  53.3019981  70.9309998  42.8680000
  53.3639984  70.4899979  41.9819984  52.3470001  71.1660004  42.8540001
  66.7160034  67.7149963  23.8540001  66.2740021  66.9739990  24.3649998
  66.2990036  68.5029984  24.2280006  61.4150009  60.4889984  24.2689991
  61.4949989  61.4519997  24.5960007  60.5940018  60.6090012  23.7299995
  47.4539986  60.0120010  35.8149986  46.9490013  59.1829987  35.9269981
  48.2470016  59.8510017  36.4249992  62.5719986  55.1020012  41.7140007
  63.1629982  54.3079987  41.5379982  63.0200005  55.3940010  42.5499992
  61.0870018  51.4210014  28.7150002  61.4459991  51.9550018  29.4340000
  61.8440018  50.9300003  28.3670006  68.9990005  66.7119980  37.2350006
  69.9820023  67.0230026  37.1739998  68.9110031  66.8649979  38.2389984
  61.0120010  71.9670029  20.7619991  61.2270012  71.2789993  20.0990009
  60.1549988  71.7340012  21.1420002  63.2719994  52.7430000  31.4309998
  63.2890015  51.7369995  31.3759995  63.6590004  52.8689995  32.3170013
  57.7470016  55.3079987  27.9069996  57.7919998  56.1640015  28.3409996
  57.2589989  54.7919998  28.5499992  53.6679993  62.7910004  28.8369999
  54.4360008  63.0379982  28.2590008  52.9010010  63.1269989  28.3360004
  52.7319984  57.3199997  34.7879982  52.7120018  56.6399994  35.5369987
  51.8209991  57.3059998  34.5070000  55.5400009  52.4309998  23.1130009
  55.8199997  52.1640015  23.9689999  55.4529991  51.5279999  22.6210003
  22.9939995  34.5369987  78.4670029  23.1930008  35.5429993  78.5609970
  23.3780003  34.2799988  79.3470001  44.3310013  58.2900009  19.3250008
  44.5830002  59.1110001  18.8560009  44.2529984  58.7389984  20.2150002
  56.1940002  70.2710037  31.3220005  55.7750015  69.3759995  31.3409996
  56.5880013  70.2320023  30.4179993  53.5740013  53.3019981  30.8939991
  52.6790009  52.8800011  30.8610001  53.2939987  54.2120018  31.2509995
  48.0670013  52.4599991  19.1930008  48.8019981  52.9459991  19.5620003
  48.1290016  52.5569992  18.2220001  63.8790016  65.6880035  25.9930000
  62.9780006  65.3899994  26.2019997  63.9080009  65.2839966  25.0610008
  56.4930000  65.5110016  19.6420002  56.0190010  64.6809998  19.8640003
  56.9910011  65.1849976  18.7970009  46.9869995  61.8429985  33.0130005
  47.4339981  61.0569992  32.7620010  46.0740013  61.7309990  32.5439987
  57.4700012  63.0779991  22.6450005  56.7939987  63.0870018  23.3729992
  56.9269981  63.1020012  21.8670006  49.3740005  53.4199982  27.7870007
  49.6879997  52.5000000  28.1070004  49.4539986  53.8199997  28.7399998
  60.1010017  61.2639999  33.4129982  60.2319984  62.2400017  33.5870018
  60.3779984  61.3139992  32.4300003  30.1170006  34.3950005  79.8870010
  29.9640007  34.2140007  78.9319992  30.9880009  34.8190002  79.8619995
  51.8479996  59.8359985  21.3530006  51.1669998  60.4080009  21.8379993
  52.2809982  59.4290009  22.1590004  57.0830002  60.7610016  29.5779991
  57.0330009  59.8380013  29.7080002  57.0009995  61.1339989  30.4869995
  58.3209991  45.7010002  22.8379993  57.4199982  45.4780006  22.5970001
  58.8680000  45.1640015  22.2439995  50.9609985  45.5390015  18.3299999
  50.9790001  44.7750015  18.8750000  50.1380005  45.9879990  18.7010002
  61.7360001  68.2119980  22.1609993  61.9620018  67.2819977  22.4039993
  62.5019989  68.4580002  21.6070004  62.2879982  65.7559967  15.4340000
  62.2140007  65.1900024  14.6490002  61.8470001  65.2190018  16.1060009
  66.4430008  50.4609985  24.9680004  66.8489990  51.3810005  24.9559994
  66.6029968  50.1370010  24.0730000  56.7890015  56.0309982  24.0949993
  56.3390007  55.3440018  24.6040001  57.6030006  55.5960007  23.8190002
  65.7949982  61.7490005  16.0209999  66.0940018  61.5139999  15.0889997
  66.4069977  62.5070000  16.2080002  45.7260017  53.7080002  19.1529999
  46.6010017  53.2459984  19.1149998  45.1850014  52.9039993  18.9570007
  34.9220009  31.1480007  74.6750031  34.0760002  31.7119999  74.6320038
  35.1080017  31.0909996  73.7450027  61.8779984  58.9500008  27.7810001
  61.1930008  59.6020012  27.8330002  62.6730003  59.5340004  27.5039997
  64.2109985  44.6629982  15.0649996  64.6699982  45.4840012  15.1169996
  64.0380020  44.4280014  15.9799995  57.1780014  52.8909988  18.7689991
  57.8510017  53.5909996  18.8199997  57.3820000  52.5050011  17.8959999
  53.5079994  53.5509987  21.6770000  54.2560005  53.2260017  22.1520004
  53.7989998  53.5509987  20.7639999  48.3050003  58.2970009  23.2369995
  48.7360001  57.4700012  23.5139999  47.9650002  57.9580002  22.3619995
  59.6100006  64.8180008  13.6829996  60.4860001  64.4029999  13.6400003
  59.1069984  64.2340012  14.2489996  27.1210003  35.0670013  72.5279999
  26.5650005  34.5000000  73.0950012  26.8470001  34.7949982  71.6409988
  63.9469986  54.6059990  25.7360001  63.7760010  54.9630013  26.6289997
  63.4129982  53.7840004  25.7779999  70.1809998  56.1399994  32.7779999
  70.4960022  56.8349991  33.3520012  69.4889984  56.5859985  32.2080002
  51.4239998  63.0900002  19.7600002  50.8610001  62.3390007  19.6569996
  51.3559990  63.4980011  18.8630009  57.8040009  68.1910019  33.1310005
  57.1489983  67.9110031  32.4329987  57.3310013  67.7570038  33.9029999
  49.8829994  53.9129982  25.0440006  50.7229996  53.3600006  24.8969994
  49.8260002  53.7120018  26.0039997  56.3680000  72.9250031  24.5480003
  55.4129982  72.8669968  24.2250004  56.4900017  71.9069977  24.6200008
  65.3679962  48.9259987  29.3640003  66.2710037  49.2900009  29.4459991
  64.9280014  49.6339989  28.8540001  58.8460007  59.6829987  20.8880005
  57.9510002  59.7130013  20.5049992  58.7229996  60.0919991  21.7539997
  50.8689995  51.7430000  16.2439995  51.3370018  52.4570007  16.7169991
  51.5099983  51.4970016  15.5530005  57.4389992  58.1489983  25.9370003
  56.7210007  57.7750015  26.5419998  57.2919998  57.5579987  25.1669998
  57.3899994  67.2620010  22.7749996  57.9700012  66.8099976  22.1299992
  56.5219994  67.1790009  22.3160000  59.1129990  64.4769974  25.2830009
  58.6339989  65.2620010  24.8719997  58.3279991  63.8279991  25.3059998
  38.9199982  29.6569996  76.1110001  39.1759987  29.9410000  75.2289963
  39.7960014  29.3579998  76.5139999  58.6110001  50.7980003  29.3649998
  58.9049988  51.4389992  30.1070004  59.4119987  50.9420013  28.8400002
  74.4459991  63.8720016  38.5349998  74.1880035  63.9080009  37.5940018
  73.5530014  63.8479996  38.9669991  48.8269997  66.5390015  14.3900003
  48.2350006  65.9980011  15.0270004  48.1259995  66.7229996  13.7220001
  56.8470001  65.0039978  36.7210007  56.1650009  65.0510025  37.4360008
  57.3390007  64.1809998  36.9889984  43.8499985  62.2519989  26.9880009
  43.6360016  61.8390007  27.8680000  44.8330002  62.3510017  27.0720005
  44.9290009  62.7490005  20.5289993  45.1570015  63.2410011  21.3610001
  45.7669983  62.2779999  20.4419994  42.9819984  60.6020012  29.6930008
  42.7150002  59.7599983  29.2229996  42.1739998  61.1430016  29.4950008
  64.6740036  63.6720009  39.2989998  64.0599976  63.1160011  39.7709999
  65.4319992  63.7039986  40.0429993  49.4720001  55.9280014  23.2560005
  50.2789993  56.0870018  22.7889996  49.7589989  55.2150002  23.9020004
  48.9900017  61.4589996  39.6160011  48.3919983  62.1450005  39.9620018
  49.0530014  61.7490005  38.6660004  55.1320000  57.6129990  33.5079994
  55.5779991  56.7809982  33.5079994  54.4720001  57.5579987  34.2159996
  55.8870010  62.9830017  17.5769997  55.4739990  62.1549988  17.2229996
  55.9809990  63.4630013  16.7329998  33.9290009  27.6669998  74.0329971
  33.5079994  27.1580009  74.7779999  33.2169991  28.2779999  73.7730026
  53.4160004  66.2939987  23.6380005  53.8330002  66.5009995  22.7789993
  52.7859993  65.6210022  23.3939991  48.6870003  62.0079994  27.1870003
  49.4449997  61.4850006  26.8689995  49.1739998  62.5359993  27.8239994
  54.4430008  53.5859985   7.3410001  53.7639999  53.0040016   7.7680001
  54.6520004  52.9840012   6.5500002  44.6250000  56.4070015  26.8050003
  45.4700012  56.0830002  26.4599991  44.0820007  55.6450005  26.6119995
  63.7550011  69.3270035  30.7099991  62.8860016  68.9430008  30.5909996
  63.5219994  70.2819977  30.6580009  52.8950005  56.5260010  29.2000008
  53.4760017  57.1469994  29.7360001  52.0960007  56.5979996  29.6980000
  43.3089981  75.9810028  16.9440002  44.0890007  76.6760025  17.0459995
  43.8489990  75.1859970  17.2029991  41.5499992  61.5070000  17.9689999
  40.9700012  61.3709984  18.7259998  41.6040001  62.5070000  17.9549999
  61.9819984  57.7919998  24.8309994  62.1419983  57.9049988  25.8029995
  61.7099991  58.7200012  24.6469994  53.1170006  80.6510010  30.5160007
  53.9819984  80.9369965  30.8670006  52.7089996  81.4359970  30.1940002
  53.6049995  61.2050018  19.5079994  53.0139999  61.8199997  19.1560001
  53.0429993  60.7919998  20.2220001  39.0019989  50.4309998  11.7869997
  38.3730011  51.2369995  11.7080002  38.6080017  50.0709991  12.6059999
  66.3700027  55.9879990  31.4389992  65.7539978  56.3279991  30.7450008
  67.1210022  56.6199989  31.3160000  51.3610001  72.6179962  27.4720001
  51.8450012  71.8170013  27.2189999  50.6749992  72.6849976  26.7840004
  58.8199997  61.0390015  23.3419991  58.3629990  61.8889999  23.1140003
  58.6889992  60.9939995  24.3150005  55.7309990  50.4700012  29.0189991
  55.8699989  49.7980003  29.7310009  56.6139984  50.9259987  28.9839993
  60.9570007  69.4199982  24.8379993  60.0369987  69.5009995  24.4340000
  61.5009995  69.5699997  24.0799999  53.4020004  56.5079994  24.7840004
  53.8040009  57.0470009  25.4890003  53.5820007  55.6220016  25.1590004
  37.4199982  23.9909992  77.4879990  36.7109985  23.3220005  77.6299973
  37.4480019  24.3490009  78.4469986  66.5210037  61.0470009  32.4280014
  67.0270004  61.0569992  31.5419998  65.7320023  60.5750008  32.0519981
  65.9449997  55.6759987  21.7280006  65.2500000  55.4309998  21.0189991
  65.2659988  55.8800011  22.4130001  52.1739998  72.3150024  21.6560001
  52.5839996  71.4680023  21.5300007  51.4659996  72.1549988  22.3230000
  34.0890007  44.3730011  87.5670013  34.5079994  43.8199997  88.2689972
  34.7980003  45.0480003  87.4469986  53.2820015  53.2789993  44.4659996
  53.1699982  52.9309998  45.3590012  53.1559982  54.2480011  44.5919991
  46.0699997  59.7659988  23.5990009  46.8790016  59.2120018  23.4769993
  45.6329994  59.2340012  24.3139992  52.7669983  59.2309990  23.7399998
  53.4930000  59.7989998  24.0869999  53.1259995  58.3619995  24.0289993
  51.6479988  77.4400024  25.5620003  51.0760002  77.8929977  24.8330002
  50.9860001  77.0329971  26.0779991  66.8990021  69.1409988  35.9939995
  67.0199966  68.4530029  36.7089996  66.1269989  69.6630020  36.3680000
  49.5330009  48.4010010  19.9179993  50.5079994  48.5209999  19.8519993
  49.2550011  49.1889992  20.3390007  43.2439995  74.3170013  27.2770004
  42.3059998  74.2539978  27.2299995  43.5060005  73.9240036  28.0919991
  40.9869995  62.4529991  29.3279991  40.8440018  62.1419983  28.4449997
  40.6240005  63.4210014  29.2399998  52.7449989  71.1569977  25.5349998
  53.2019997  72.0110016  25.3899994  52.5540009  70.8830032  24.5909996
  47.6529999  47.1069984  16.1630001  47.5289993  46.6329994  17.0139999
  48.5680008  47.4049988  16.2570000  62.4500008  55.5400009  28.0130005
  61.7630005  56.1809998  28.3190002  61.9550018  54.9749985  27.4060001
  47.6699982  62.2050018  20.0709991  48.2379990  61.4840012  19.8029995
  47.6290016  62.1139984  21.0610008  58.5600014  69.6999969  28.0909996
  58.4239998  69.2190018  27.2730007  57.8269997  70.3369980  28.1009998
  54.7410011  65.6090012  25.8859997  54.3600006  65.9059982  25.0410004
  53.9889984  65.6940002  26.4920006  75.6179962  36.7799988  29.9880009
  75.2350006  36.0989990  30.6040001  74.7919998  36.8889999  29.4640007
  55.1389999  50.3530006  21.5330009  55.5639992  49.5239983  21.1870003
  54.9990005  50.8520012  20.7320004  56.4920006  58.1689987  22.2749996
  56.3569984  57.4840012  22.9669991  56.1759987  58.9210014  22.7250004
  50.6969986  46.4049988  15.0330000  50.5239983  47.1959991  15.6359997
  50.4780006  46.7169991  14.1759996  74.1660004  58.2789993  30.8780003
  74.4869995  58.0530014  31.7670002  74.9909973  58.1409988  30.4160004
  59.9319992  55.3370018  31.4459991  60.9189987  55.4959984  31.5410004
  59.7589989  55.9049988  30.6910000  57.7610016  62.8100014  14.9080000
  57.0169983  63.4109993  15.0869999  57.3030014  62.0029984  14.6280003
  45.6040001  64.1869965  22.6580009  45.0270004  64.6480026  23.3090000
  46.1469994  64.9179993  22.3129997  67.3119965  39.9230003  21.2730007
  68.0380020  40.4710007  20.9209995  67.3320007  39.1609993  20.6630001
  50.5970001  50.1329994  25.5230007  50.2029991  49.6300011  24.7420006
  50.8680000  50.9329987  25.1459999  52.6160011  69.6630020  20.8400002
  52.1759987  68.8079987  21.1389999  53.0089989  69.3590012  19.9969997
  56.3979988  48.6090012  23.5359993  57.2760010  48.6959991  23.0319996
  55.8779984  49.2570000  22.9960003  43.5579987  57.9990005  33.3810005
  44.2830009  58.0470009  32.6959991  44.0320015  58.1710014  34.1809998
  61.9939995  52.2070007  14.2469997  62.2260017  51.4510002  14.8490000
  62.0330009  52.9090004  14.8750000  54.1020012  75.7409973  26.5259991
  53.4770012  76.3909988  26.0179996  53.5239983  75.5660019  27.2609997
  64.1419983  59.7550011  23.8689995  63.2159996  60.1459999  23.6499996
  63.8359985  59.2490005  24.6730003  34.8629990  40.2719994  78.7770004
  35.2270012  39.4529991  79.2200012  34.6459999  40.8320007  79.5599976
  45.6010017  57.3079987  29.1560001  45.2439995  56.8880005  28.3379993
  46.3209991  56.7229996  29.3589993  47.3680000  64.7839966  28.1000004
  47.1790009  65.6100006  28.5629997  46.6730003  64.1520004  28.4650002
  60.4529991  63.9640007  36.5940018  60.8930016  64.8759995  36.5019989
  60.3240013  63.7369995  35.6450005  55.8160019  66.7089996  34.7070007
  56.0909996  66.3150024  35.5029984  54.8680000  67.0159988  34.9399986
  44.8409996  67.1029968  17.6049995  45.0940018  67.3339996  16.7320004
  43.8759995  66.9560013  17.4790001  60.5929985  56.7299995  44.2010002
  61.0839996  56.4970016  45.0359993  59.6489983  56.6549988  44.5050011
  48.7540016  57.9010010  29.3279991  48.6349983  57.2379990  28.6369991
  49.5229988  57.4080009  29.8150005  63.3650017  59.5569992  41.7659988
  63.2649994  60.4650002  41.4780006  63.5610008  59.1669998  40.8610001
   2.5430000  58.2360001  25.4799995   2.6359999  59.2130013  25.4950008
   1.5540000  58.1699982  25.6580009  68.1029968  51.3069992  32.1850014
  67.4860001  51.9959984  31.9480000  67.5199966  50.5359993  32.3820000
  23.0930004  36.4309998  73.5289993  23.8789997  36.7480011  74.0599976
  22.4829998  37.1839981  73.7099991  56.7019997  53.9440002  30.9279995
  56.7070007  54.4529991  31.7549992  55.8569984  53.5299988  30.8719997
  51.3720016  67.4430008  21.4389992  50.8559990  66.7020035  21.1119995
  50.9679985  67.5260010  22.3850002  58.7910004  44.1930008  25.1019993
  58.1180000  43.6850014  24.6040001  58.6399994  45.0740013  24.8209991
  25.3969994  22.7469997  64.7860031  25.6459999  22.1770000  64.0739975
  26.1219997  23.3920002  64.8130035  60.0169983  72.7320023  27.1830006
  59.5750008  72.7770004  26.3010006  60.6539993  72.0009995  27.0440006
  60.5449982  57.1189995  29.3209991  60.9980011  57.7010002  28.6490002
  60.1940002  57.8300018  29.8950005  55.4739990  67.4000015  15.6099997
  55.6500015  68.3420029  15.8179998  56.2509995  67.1839981  15.0880003
  36.3709984  33.0449982  78.5510025  36.2500000  32.0830002  78.3610001
  37.3629990  33.0769997  78.5569992  58.8170013  58.3019981  36.9309998
  58.4140015  58.8339996  37.6489983  59.7639999  58.3059998  37.2369995
  54.4280014  55.9630013  17.6720009  55.0690002  55.8720016  18.3710003
  53.8930016  56.7509995  18.0300007  63.2939987  64.5469971  32.3849983
  63.4039993  65.5400009  32.5299988  63.8230019  64.2490005  33.1739998
  63.8730011  66.8369980  19.6970005  63.3180008  66.5510025  20.4440002
  63.9959984  66.0120010  19.2259998   5.0520000  66.0859985  27.3139992
   5.3010001  65.7610016  26.3759995   4.2680001  66.5830002  27.1140003
  68.4169998  57.7820015  31.6119995  69.0960007  58.3269997  31.1790009
  67.7429962  58.4379997  31.8379993  52.7620010  66.2389984  33.8479996
  52.1980019  65.4599991  33.6030006  53.0359993  65.9089966  34.7319984
  51.7579994  58.0369987  14.3739996  51.3400002  57.2400017  14.0489998
  51.4580002  58.6529999  13.6049995  48.9070015  62.7470016  30.8409996
  48.1899986  62.8940010  31.4500008  48.6669998  61.8250008  30.5070000
  53.1749992  59.6860008  12.0010004  52.3580017  59.8409996  12.5039997
  53.3870010  60.6230011  11.7290001  61.4850006  43.6870003  14.6110001
  62.4659996  43.7270012  14.5830002  61.3149986  44.6020012  14.2150002
  56.8650017  55.8650017  14.7749996  56.1209984  56.3759995  15.1429996
  56.3959999  54.9889984  14.7679996  62.5709991  50.0489998  15.6029997
  61.8810005  49.3310013  15.6719999  63.3559990  49.5419998  15.3879995
  58.8120003  47.9729996  20.1959991  59.2010002  47.0579987  20.2269993
  59.4319992  48.3260002  19.5039997  61.6829987  60.2519989  53.1010017
  62.4319992  59.6969986  53.4309998  61.2989998  59.6870003  52.3860016
  46.2449989  57.5330009  21.2919998  45.7120018  57.5540009  20.5389996
  46.1930008  56.6459999  21.5990009  46.9500008  55.3149986  25.0629997
  47.5760002  55.7449989  24.4279995  46.7309990  54.5299988  24.5529995
  49.6819992  57.3530006  33.3230019  49.8779984  57.3250008  32.3569984
  48.9440002  57.9869995  33.2980003  45.8230019  54.0110016   8.2959995
  45.2770004  53.5709991   7.6160002  45.1469994  54.1980019   8.9930000
  60.8790016  54.3779984  18.3630009  61.2229996  54.7239990  19.2240009
  59.9210014  54.6069984  18.4370003  65.0859985  55.2770004  17.2810001
  66.0059967  55.0760002  17.5939999  65.1110001  56.1889992  17.0319996
  39.5849991  70.8949966  21.2810001  40.1300011  70.4309998  20.6040001
  38.7400017  70.9449997  20.7940006  52.6339989  67.0599976  16.6089993
  53.5239983  67.2119980  16.2290001  52.0950012  67.2080002  15.8249998
  43.5019989  24.9860001  68.7839966  42.5870018  25.0230007  69.1569977
  43.6320000  24.0049992  68.9179993  73.1340027  59.8339996  35.0680008
  72.7959976  60.1489983  35.9580002  72.6090012  60.3230019  34.4529991
   0.8580000  51.0239983  20.7080002   0.9090000  50.3940010  19.9419994
   1.6750000  50.7500000  21.2000008  53.7669983  69.1159973  23.8509998
  53.6129990  68.1490021  23.8810005  53.5810013  69.3270035  22.9080009
  22.7210007  28.2630005  73.4810028  22.8630009  28.8439999  72.7099991
  21.7189999  28.2579994  73.4199982  56.7809982  58.0270004  10.5520000
  56.3009987  58.3370018  11.3420000  56.1040001  58.1250000   9.8649998
  52.8180008  62.5139999  25.0000000  52.4500008  62.8199997  24.1569996
  52.2999992  62.9710007  25.6819992  52.2010002  51.4269981  18.8099995
  52.4420013  50.9099998  17.9950008  53.0589981  51.7150002  19.1140003
  46.3069992  74.5139999  31.8829994  45.7420006  75.2720032  31.5330009
  46.3549995  74.8199997  32.7869987  44.8790016  58.9210014  25.8120003
  44.9059982  57.9459991  25.9979992  45.1160011  59.2999992  26.6280003
  58.0589981  42.4640007  29.4960003  58.5690002  43.1879997  29.9820004
  57.9049988  41.8160019  30.1669998  59.2000008  70.3740005  33.2299995
  58.5019989  69.6859970  33.1370010  59.2989998  70.6559982  32.3260002
  42.5890007  36.8810005  79.6169968  43.2669983  36.1619987  79.7890015
  42.8330002  37.4399986  80.3679962  76.6070023  70.0139999  26.0660000
  76.7149963  69.0899963  25.6779995  77.3150024  69.9970016  26.7169991
  40.5690002  40.8979988  85.3059998  40.2400017  41.8289986  85.3560028
  39.6870003  40.4319992  85.3880005  68.4520035  68.3359985  27.7600002
  67.8339996  67.6399994  28.1189995  69.2200012  68.1600037  28.3820000
  19.9629993  -2.0580001  25.3630009  20.2649994  -2.3320000  26.2570000
  20.8540001  -2.0409999  24.9340000  21.1210003   4.0760002  24.6009998
  21.1569996   4.9710002  24.2290001  20.8369999   4.3470001  25.5330009
  70.5530014  67.4459991  28.9190006  70.8310013  66.5889969  28.6369991
  71.3430023  67.8550034  29.2810001  56.3610001  67.6539993  26.6569996
  55.6090012  68.3059998  26.8470001  55.7490005  66.8809967  26.4659996
  65.7139969  63.7849998  29.4130001  65.8690033  62.8829994  29.1189995
  64.7229996  63.8400002  29.5079994  52.3629990  64.0000000  22.0520000
  52.0470009  63.4249992  21.3099995  51.5449982  64.3799973  22.3740005
  57.5040016  73.6110001  21.5389996  57.5250015  72.6259995  21.4319992
  56.5680008  73.8089981  21.1879997  14.5860004   5.6719999  24.9659996
  14.9799995   4.8210001  24.6229992  15.0299997   5.6520000  25.8640003
  72.4960022  59.8380013  26.3829994  72.4860001  59.3250008  27.2849998
  71.5759964  60.1850014  26.4410000   9.0930004   5.2529998  41.8079987
   9.9700003   5.2240000  42.2000008   9.1639996   4.6919999  41.0439987
  62.6049995  73.9160004  33.8750000  62.9570007  73.0979996  34.2200012
  62.1870003  74.3349991  34.6220016  53.5600014  73.8119965  24.7670002
  53.8279991  74.4720001  25.4650002  52.6650009  74.1380005  24.5639992
  60.8400002  75.8529968  24.5960007  61.5550003  75.5699997  25.2250004
  60.3320007  75.0449982  24.4589996  35.0940018  38.1220016  80.5759964
  35.1119995  37.1269989  80.5709991  34.0909996  38.2249985  80.7399979
  58.6279984  78.2850037  38.0439987  58.8829994  77.9509964  37.1780014
  57.6240005  78.3109970  37.9410019  59.1049995  63.7120018  28.0049992
  58.8440018  64.5859985  28.3570004  59.3349991  63.9659996  27.0820007
  35.5940018  35.3129997  80.0839996  35.7319984  34.4560013  79.6579971
  36.0940018  35.1870003  80.9130020  51.0569992  74.7559967  24.4549999
  50.7340012  75.7020035  24.6210003  50.2620010  74.3809967  24.0119991
  62.3149986  70.4199982  41.0709991  61.9640007  69.4929962  40.9669991
  62.0530014  70.5650024  42.0200005  48.3839989  83.0029984  38.5060005
  47.8889999  83.7929993  38.8440018  48.1160011  83.1009979  37.5349998
  70.1009979  10.5190001  48.2389984  69.2919998  11.0459995  48.4360008
  70.0139999  10.4040003  47.3030014   8.7980003   8.0279999  36.2089996
   9.2889996   8.7810001  35.6819992   9.3470001   7.2950001  35.9659996
  66.5800018  64.9800034  26.1539993  65.6940002  65.4020004  26.0230007
  66.8899994  65.5230026  26.9150009  31.1369991  38.4840012  78.3030014
  30.4790001  38.7919998  77.6119995  31.8570004  38.2039986  77.7190018
  57.3849983  68.6829987  19.7630005  57.5480003  68.4110031  18.8080006
  58.0859985  68.1760025  20.2000008  70.1729965  68.0080032  25.5249996
  70.2740021  68.9970016  25.4640007  69.3980026  68.0080032  26.1060009
  70.0989990  58.8619995  34.3170013  70.4400024  59.7070007  33.9430008
  69.1750031  59.1189995  34.5470009  72.9039993  71.2289963  38.9039993
  73.3850021  71.7289963  38.2869987  73.5370026  71.2259979  39.6609993
  25.9309998  36.9440002  78.9420013  26.5890007  36.4990005  79.5179977
  26.4349995  37.6030006  78.4690018  26.5680008   8.5059996  25.1210003
  26.6989994   9.3059998  25.6490002  27.4650002   8.1429996  25.0799999
  72.8010025  65.8119965  29.5330009  72.8339996  65.1699982  30.2689991
  72.9079971  65.2300034  28.7740002   0.8580000  66.2200012  33.9640007
   1.0549999  65.4860001  34.5769997   0.8040000  66.9260025  34.7000008
  28.1009998  36.3600006  80.1669998  28.5440006  35.5029984  80.3759995
  28.7950001  37.0019989  80.3860016  58.3880005  67.0839996  25.2439995
  57.6500015  67.2740021  25.8980007  57.8209991  66.8820038  24.4440002
  44.5200005  34.8300018  80.8570023  44.9609985  33.9879990  80.7720032
  45.2480011  35.4679985  80.8669968  50.3580017  67.4540024  30.4379997
  49.8160019  66.9069977  31.0709991  49.7439995  68.2190018  30.3239994
  54.9389992  80.3909988  23.3400002  54.0480003  80.4410019  22.9270000
  54.8269997  79.5049973  23.7619991  39.0909996  46.3709984  77.0179977
  40.0460014  46.1720009  76.9980011  38.8300018  45.6619987  77.6900024
  49.0690002  74.1579971  22.6060009  48.1559982  74.5950012  22.6790009
  48.8339996  73.4309998  22.0340004  59.9930000  73.8000031  32.8030014
  59.7779999  72.9069977  33.1489983  61.0060005  73.7040024  32.8820000
  62.2649994  70.9319992  37.1720009  61.7739983  70.6190033  37.9179993
  61.8450012  70.4889984  36.4259987  59.4099998  74.1979980  19.6980000
  59.0040016  73.6269989  18.9979992  58.7599983  73.9260025  20.4559994
  67.2949982  73.5970001  37.1660004  66.6669998  74.2009964  36.6080017
  67.3980026  74.0839996  37.9550018  63.5660019  78.2779999  33.1730003
  63.7840004  78.7269974  32.3540001  63.6710014  77.3710022  32.9440002
  38.6279984  48.1949997  81.1559982  38.2550011  47.4570007  81.6829987
  39.5999985  47.9729996  81.0899963  56.2639999  63.2620010  25.0610008
  55.8330002  62.8440018  25.8390007  55.8510017  64.1669998  25.2070007
  73.8629990  69.5490036  25.1870003  74.7229996  69.9749985  25.2240009
  74.0889969  68.6689987  24.8050003  59.0849991  70.1279984  17.4379997
  59.3699989  69.5569992  18.1739998  59.9160004  70.0270004  16.8740005
  61.4459991  67.9199982  31.8630009  60.9220009  67.7040024  32.6629982
  62.3170013  67.6800003  32.2410011  58.5970001  77.9079971  30.7970009
  57.9189987  78.5950012  30.9710007  57.9410019  77.1320038  30.8740005
  52.8790016  81.9229965  37.5600014  52.4550018  81.0490036  37.2919998
  53.4910011  81.9899979  36.7649994  54.3199997  71.8389969  30.0079994
  53.6339989  71.3190002  30.5259991  55.1049995  71.4540024  30.3799992
  59.4500008  62.6749992  30.8479996  58.6310005  62.5110016  31.3619995
  59.1819992  63.5320015  30.4300003  12.5459995  11.2810001  37.4910011
  13.3369999  11.6630001  37.9529991  12.8520002  10.3970003  37.2140007
  77.7720032  11.7030001  38.2820015  78.4349976  11.3959999  37.6329994
  78.2730026  11.4849997  39.1360016  44.5040016  66.6569977  23.0860004
  43.5639992  66.6510010  23.4050007  44.8740005  67.2259979  23.8409996
  64.2669983  60.5470009  31.2199993  63.3680000  60.9329987  31.0109997
  63.9760017  59.7099991  31.7180004  40.3409996  35.1119995  83.6159973
  39.6180000  35.0960007  84.2500000  40.9710007  35.7089996  84.1210022
  40.6040001  38.8479996  79.2809982  41.5200005  38.7420006  78.9670029
  40.4760017  38.1360016  79.8779984  63.9959984  61.8129997  21.6240005
  64.8420029  62.1189995  21.8950005  64.3320007  60.9620018  21.1830006
  61.2830009  56.9760017  34.6500015  61.9280014  56.5320015  35.2649994
  61.8820000  57.5979996  34.2319984  38.5369987  27.9820004  80.8629990
  38.7480011  27.6819992  81.7570038  37.5079994  27.9629993  80.9120026
  51.0309982  27.8080006  76.8750000  50.2099991  27.3950005  77.0869980
  51.4990005  27.6630001  77.7259979  56.3279991  60.2910004  19.9130001
  56.1730003  59.3320007  19.7439995  55.3880005  60.6609993  19.7789993
  31.9029999  40.9179993  80.9280014  32.8460007  41.3149986  80.9219971
  31.5779991  41.4150009  80.1330032  61.8390007  75.3489990  31.0289993
  61.0149994  75.0390015  31.4710007  61.9379997  74.7149963  30.2800007
  54.1920013  79.4079971  34.6870003  54.1990013  78.4729996  34.2350006
  53.3530006  79.3929977  35.1510010  60.9519997  77.9110031  22.5529995
  60.8699989  77.2919998  23.2749996  61.9150009  78.0739975  22.5860004
  55.2989998  67.3109970  21.1879997  55.4449997  68.0410004  20.5310001
  55.7470016  66.5899963  20.6809998  55.0449982  77.9069977  40.7480011
  54.7869987  77.9609985  39.8390007  54.5569992  78.5699997  41.1969986
  12.1999998  18.1320000  28.2940006  12.0990000  17.4230003  28.9979992
  11.2379999  18.2700005  28.1140003  34.5989990  38.6399994  84.9609985
  34.2579994  39.0569992  85.8239975  33.9029999  37.9920006  84.7600021
  53.9280014  82.6890030  39.9309998  53.4280014  82.4369965  39.1730003
  53.2620010  82.7080002  40.6360016  56.2540016  78.5189972  26.1089993
  57.1469994  78.3050003  25.8449993  55.7159996  78.3840027  25.3199997
  27.3449993  39.1469994  78.1019974  28.0559998  39.2430000  77.4179993
  27.9230003  39.3540001  78.9140015  73.4290009  66.2409973  33.1399994
  73.7949982  66.8539963  32.4500008  72.4570007  66.3079987  32.9339981
  53.1409988  58.0810013  18.3719997  53.5600014  58.9539986  18.4589996
  52.6980019  57.9570007  19.2250004  71.8759995  63.1829987  41.4049988
  71.5690002  63.9099998  41.9570007  71.8779984  63.6290016  40.5589981
  45.4210014  30.8959999  83.5800018  45.0830002  30.6690006  82.6620026
  45.6160011  31.8069992  83.4189987  23.1639996   0.9050000  33.9150009
  22.9069996   1.7050000  33.3889999  23.2150002   0.1990000  33.2760010
  30.7320004  38.6380005  74.4280014  31.3770008  37.9840012  74.0800018
  31.3160000  39.4049988  74.5449982  57.9539986  71.0000000  21.3799992
  57.6980019  70.2519989  20.8700008  58.1150017  70.6340027  22.2910004
  59.6250000  64.9660034  21.8990002  60.2649994  64.2119980  21.8759995
  58.8180008  64.5059967  22.1569996  72.7099991  58.4430008  24.0400009
  73.4069977  57.8390007  24.4759998  72.4449997  58.9510002  24.8680000
  11.2589998   6.6589999  35.9010010  10.5559998   6.1139998  36.3380013
  11.8839998   5.9499998  35.6679993  48.4179993  72.3939972  20.3460007
  47.9420013  73.1750031  19.9599991  48.6199989  71.9300003  19.5030003
  63.7989998  69.2289963  18.4570007  64.0839996  68.3330002  18.8479996
  64.7229996  69.5579987  18.2759991  50.1860008  34.5909996  85.4049988
  51.1879997  34.5690002  85.3889999  50.0540009  33.9580002  84.6520004
  71.4499969  71.0469971  21.9960003  71.4290009  70.8059998  22.9009991
  71.9769974  71.9260025  22.0270004   1.2500000  10.9200001  34.8429985
   1.3660001  11.8100004  35.2750015   2.1570001  10.7969999  34.5309982
  38.1010017  50.8969994  82.4629974  38.0830002  51.1829987  81.5220032
  37.6910019  50.0009995  82.3669968  62.1180000  70.7229996  26.6949997
  62.5250015  69.8840027  27.0410004  61.5950012  70.3349991  25.9470005
  55.5550003  71.3539963  18.9340000  55.5600014  70.4209976  18.8120003
  56.4669991  71.6510010  18.8190002  74.1660004  60.0209999  20.0450001
  74.3830032  59.1139984  19.7119999  74.9029999  60.5530014  19.6420002
  53.6920013  75.1470032  31.1019993  53.2750015  74.8570023  30.2709999
  54.0320015  76.0149994  30.8770008  54.4889984  29.7320004  85.0910034
  55.4249992  29.3630009  85.2200012  54.3680000  29.9430008  86.0650024
   2.6470001  61.0740013  25.6119995   3.3150001  61.5779991  26.0919991
   1.8500000  61.6500015  25.7189999  56.0810013  64.7969971  41.3160019
  56.1020012  64.0329971  40.6710014  57.0229988  64.7389984  41.6010017
  55.6920013  39.2500000  81.2050018  54.8930016  39.8040009  81.2760010
  55.7630005  39.2809982  80.2409973  49.6329994  37.3750000  78.4000015
  49.1459999  37.7509995  79.1920013  50.0589981  36.6440010  78.9020004
  59.8050003  34.2470016  78.1110001  59.9920006  35.1409988  78.4570007
  59.3540001  34.5400009  77.2330017  48.5919991  42.3699989  83.4739990
  48.0800018  41.6180000  83.1989975  47.9570007  43.1150017  83.4769974
  54.3409996  28.3889999  80.7480011  53.9879990  28.6340008  81.6669998
  54.5870018  29.3220005  80.4599991  27.3180008   1.1390001  18.7229996
  27.0919991   1.6849999  17.9330006  28.0610008   1.6610000  19.0799999
  24.4850006   6.9200001  25.1089993  24.4880009   6.5370002  24.2380009
  25.2709999   7.4790001  25.0979996  62.3199997  38.5139999  78.2070007
  62.8590012  38.4830017  77.4339981  61.5299988  39.0200005  77.8759995
  59.1720009  32.7430000  73.5630035  59.6030006  32.4879990  72.7020035
  58.2680016  32.9389992  73.2300034  16.6819992   1.4250000  27.0160007
  16.6410007   0.6960000  27.6980000  17.5370007   1.1710000  26.6070004
  24.5569992  15.0089998  20.7189999  23.6170006  14.7749996  20.6849995
  24.9160004  14.4589996  21.3899994  36.1930008   7.9250002  19.0849991
  36.6910019   7.7069998  18.2719994  35.9109993   8.8420000  18.9069996
  30.0820007   5.4439998  25.1480007  30.0450001   5.7160001  26.1389999
  31.0510006   5.2859998  25.0769997  46.0410004   8.3719997  26.3600006
  47.0060005   8.4980001  26.4009991  45.9749985   7.6479998  27.0060005
  56.3289986  33.3230019  79.3990021  56.6049995  34.2369995  79.2509995
  57.0690002  33.0639992  80.0279999   7.2870002  68.5130005  25.1849995
   7.9070001  67.7080002  25.2929993   7.3660002  68.7679977  26.1819992
  37.6389999   0.5930000  15.2589998  36.9119987   0.9280000  14.6619997
  38.0779991   1.4210000  15.5000000  28.8969994   6.6859999  31.0839996
  29.6879997   6.9740000  30.4869995  29.4440002   6.3499999  31.8460007
  35.2010002   6.8660002  15.0039997  36.0139999   7.2069998  15.4379997
  34.5159988   7.2900000  15.5670004  32.0789986  15.0129995  28.5839996
  32.5719986  14.4429998  29.2280006  32.6040001  15.8540001  28.7409992
  36.6889992  17.2539997  10.4720001  36.4720001  18.2469997  10.4700003
  35.9879990  16.9939995  11.1409998  61.1069984  52.2089996  71.3789978
  61.9309998  51.6669998  71.2279968  60.4440002  51.5159988  71.2389984
  36.7159996  15.3369999  13.8859997  36.8190002  16.1389999  14.5139999
  36.1529999  15.7650003  13.2390003  33.8569984  13.4289999  10.6120005
  34.7389984  12.9540005  10.7349997  33.6949997  13.7299995  11.5520000
  31.2119999  14.7240000  16.5860004  30.6669998  14.7469997  15.7740002
  31.1569996  15.7100000  16.7549992  29.1119995  25.0470009  20.9340000
  29.8290005  24.3910007  20.6630001  29.0310001  24.7049999  21.8430004
  52.5429993  39.9389992  69.6370010  52.1980019  40.0810013  68.7570038
  53.2000008  40.7109985  69.7760010  57.4109993  48.3590012  73.1989975
  56.5800018  48.0540009  72.7740021  57.6110001  49.1300011  72.6520004
  58.9830017  46.8909988  69.9769974  58.7249985  46.2700005  70.7109985
  59.9459991  46.8930016  69.9940033  66.2490005  35.1570015  79.0619965
  67.0940018  34.9000015  78.5879974  66.0299988  35.9939995  78.5960007
  29.8430004  17.7000008  12.5480003  29.8959999  16.7950001  12.9250002
  29.7150002  17.4990005  11.5979996  39.0470009   3.2520001  18.9689999
  39.7649994   3.6819999  19.4300003  38.3380013   3.9310000  19.0830002
  31.1219997  11.7760000  14.4930000  30.7609997  12.6330004  14.2510004
  30.3640003  11.2580004  14.6630001  43.7019997  14.7270002   8.2620001
  43.8969994  13.7679996   8.2690001  42.7270012  14.7379999   8.0839996
  46.0460014  17.8369999  18.0109997  45.9679985  17.1110001  17.3959999
  47.0369987  17.9069996  17.9669991  24.5820007  18.4139996  12.9829998
  23.8209991  18.5219994  13.5570002  25.2649994  18.1070004  13.6350002
  35.2620010  29.7110004   6.1770000  34.7649994  28.9470005   6.5250001
  34.8660011  29.7779999   5.2800002  38.2099991   0.7060000  18.8969994
  38.9959984   0.2530000  18.4810009  38.5470009   1.6190000  18.8409996
  38.7360001   2.7980001  16.3680000  39.6759987   2.5090001  16.5620003
  38.5390015   2.9800000  17.2889996  28.2730007  18.3509998  16.5750008
  29.0039997  18.4920006  15.9270000  27.9890003  19.2649994  16.7430000
  36.5209999  11.3950005  18.8759995  35.6839981  11.5209999  19.3090000
  36.4269981  11.8149996  18.0470009  36.7570000  10.6400003  23.4370003
  36.5019989  11.4750004  23.8209991  37.1660004  10.8559999  22.6030006
  61.9760017  46.8289986  70.1080017  62.9700012  47.0859985  70.2249985
  62.0709991  46.5379982  69.2050018  49.2379990  11.0990000  17.1250000
  49.5239983  11.0860004  16.1910000  50.0639992  11.3100004  17.5480003
  45.5999985   5.9340000  24.4969997  45.0460014   5.3699999  25.1070004
  45.4070015   6.8080001  24.8889999  48.4850006  10.3109999  19.9050007
  47.9280014  10.0950003  19.1000004  48.1769981  11.1890001  20.1089993
  37.8810005  11.8610001  21.3330002  38.3559990  12.4790001  20.7570000
  37.1180000  11.5749998  20.8099995  45.0610008  10.5459995  14.0260000
  45.1839981   9.9740000  14.7670002  44.2410011  11.0539999  14.2939997
  54.2270012  51.6860008  69.1279984  53.3339996  51.6609993  69.5350037
  54.2330017  50.8170013  68.6760025  41.4090004   8.0170002  11.7019997
  40.5169983   7.8649998  12.0749998  41.2589989   8.8409996  11.1829996
  36.5800018  14.2620001  23.1019993  35.6619987  14.2229996  23.4969997
  36.3790016  14.5450001  22.1720009  52.6279984  51.5009995  63.2159996
  53.5120010  51.6160011  62.8580017  52.8440018  51.1599998  64.1110001
  31.6660004  11.1739998  21.3269997  30.6709995  11.2989998  21.2910004
  31.7010002  10.2559996  21.6149998  54.0320015   8.9989996  26.4619999
  54.1839981   9.8179998  26.0680008  54.8230019   8.9029999  27.0520000
  35.9510002  18.0569992   7.6230001  36.2420006  17.2950001   7.1180000
  35.8409996  17.6609993   8.5170002  34.2220001   5.2270002  13.2770004
  33.4480019   5.8239999  13.1090002  34.7579994   5.8210001  13.8730001
  64.6159973  47.3429985  70.0960007  64.8030014  47.1320000  69.1940002
  65.5009995  47.2770004  70.5240021  39.4290009   7.7969999  14.8640003
  39.1720009   8.2980003  14.0459995  39.8199997   6.9390001  14.4759998
  32.7459984   8.2229996  22.0960007  32.1679993   8.4350004  22.8470001
  33.6090012   8.1899996  22.5540009  37.1829987  16.4519997  24.5599995
  37.4500008  16.4480000  25.4769993  37.0209999  15.5159998  24.3929996
  42.3750000  19.7549992   5.1710000  41.8030014  19.6079998   4.3740001
  42.0169983  20.6469994   5.4780002  44.6609993  22.8490009  13.3039999
  43.9770012  22.7670002  12.6239996  44.9900017  23.7380009  13.1160002
  39.0060005  18.3950005  15.3230000  39.5270004  17.6679993  15.7539997
  38.0970001  18.1089993  15.4680004  44.3629990   8.7980003  16.3449993
  43.5349998   9.0459995  16.7749996  44.1839981   7.8429999  16.2169991
  49.0750008   6.6750002  18.5750008  48.2150002   6.6259999  18.9500008
  49.1010017   6.0440001  17.8290005   0.3820000  45.9990005  63.1380005
   0.4210000  45.3650017  62.4090004  -0.4970000  46.4399986  62.8899994
  73.4960022  45.2639999  69.9049988  72.6729965  45.3730011  69.2740021
  74.2009964  45.4440002  69.2689972  46.2500000  17.0440006  14.6590004
  45.4129982  17.4650002  14.3149996  46.7350006  17.8999996  14.8529997
  39.1290016  13.7410002  17.3719997  39.0540009  14.1330004  18.2830009
  38.1689987  13.6650000  17.1529999  49.2859993  21.5839996  -0.9300000
  48.6619987  22.0009995  -0.2060000  48.6459999  21.6669998  -1.6490000
  59.1899986  41.6160011  75.5490036  59.7659988  41.4329987  74.8109970
  59.4269981  40.9449997  76.1760025  38.6899986  10.8780003  12.4840002
  38.5680008  11.7720003  12.1300001  38.2089996  10.9130001  13.3479996
  41.3740005  18.5990009  13.7189999  40.9070015  18.4480000  14.5930004
  40.5559998  18.9379997  13.2139997  50.4059982   5.2410002  10.9610004
  49.5999985   4.8140001  11.3660002  50.0060005   5.9629998  10.4350004
  59.9780006  54.5940018  69.9550018  60.2739983  54.4930000  69.0360031
  60.3050003  53.7820015  70.3379974  43.4640007  -0.5390000  15.8020000
  42.6809998  -0.3160000  15.2279997  43.5480003   0.3590000  16.2259998
  24.8190002  24.2430000   6.3530002  23.9379997  24.0790005   6.7430000
  25.0109997  25.1019993   6.8670001  35.9900017  11.8009996  11.3830004
  36.1749992  11.7200003  10.4589996  36.7369995  12.3959999  11.5850000
  48.9500008  13.6300001   8.0000000  48.7060013  13.2229996   7.1479998
  48.3160019  13.2010002   8.5900002  41.3800011   0.6720000  13.7729998
  40.4809990   0.5530000  13.3050003  41.0639992   1.3240000  14.4280005
  61.5970001  19.2229996   8.6450005  62.5470009  19.5489998   8.6320000
  61.6339989  18.6200008   7.8820000  29.0569992  22.2229996  10.4499998
  28.3780003  21.7320004   9.9600000  29.8309994  21.6860008  10.1149998
  29.8139992  25.9950008  14.0939999  30.3630009  26.4130001  13.3690004
  30.5060005  25.5559998  14.5839996  48.3209991  38.2729988  80.4879990
  48.4650002  39.2270012  80.1589966  47.5680008  38.4300003  81.0849991
  36.9690018   4.2659998  28.7469997  36.5730019   4.5669999  27.9050007
  37.4799995   3.4700000  28.4099998  42.4150009   3.4840000  19.3199997
  43.2779999   3.0020001  19.3339996  42.6520004   4.2859998  19.7900009
  37.3600006  10.4989996  14.8020000  36.8460007  11.2220001  15.2670002
  36.6940002  10.1239996  14.2320004  40.4620018  28.4689999  13.2729998
  39.8170013  27.9680004  12.7900000  41.2610016  28.4060001  12.6910000
  30.3199997  15.0480003  24.0270004  30.7570000  15.2019997  23.1590004
  31.1079998  15.1899996  24.5919991  66.9649963  61.3419991  61.6990013
  67.6549988  60.5999985  61.7220001  67.5879974  62.0060005  61.3160019
  23.0009995  20.0750008  10.9359999  23.6800003  19.8390007  11.5600004
  23.3379993  19.7849998  10.0450001  57.1240005  41.0289993  72.9629974
  57.9370003  41.5670013  72.8550034  57.3209991  40.6049995  73.8069992
  38.0180016   4.0050001  14.3269997  38.9339981   4.3000002  14.1800003
  38.2130013   3.6120000  15.2399998  49.2579994  22.9810009  20.3029995
  49.3740005  23.8840008  20.5590000  49.2719994  23.0699997  19.2989998
  41.6629982   7.0500002  23.0750008  42.0940018   6.4260001  23.6970005
  41.4169998   7.7069998  23.7240009  29.2530003  18.9790001  32.3590012
  29.0419998  19.8050003  32.8569984  28.8050003  19.1420002  31.4939995
  37.0470009   7.5980000  21.5639992  37.9850006   7.6420002  21.2980003
  36.6300011   7.6750002  20.6790009  65.7040024  51.2849998  69.5490036
  66.2860031  51.3979988  68.7220001  66.4309998  51.0110016  70.1819992
  27.4930000  29.5310001   8.0080004  28.1709995  29.0310001   7.4569998
  26.9309998  29.8649998   7.3179998  50.6240005  22.7010002   9.8599997
  51.4930000  22.7840004   9.5249996  50.0229988  22.3680000   9.1829996
  65.3270035  34.3069992  73.0279999  64.7740021  33.5359993  72.7289963
  65.7549973  33.8979988  73.7969971  26.6860008  30.1229992   4.4380002
  26.0340004  29.7070007   5.0689998  27.5319996  29.6599998   4.7210002
  30.4930000   9.6040001  18.2189999  30.4029999   9.0039997  17.5319996
  30.9909992  10.3260002  17.8150005  54.1269989  15.9840002  16.1250000
  53.3959999  15.3559999  16.1779995  54.2719994  15.9989996  15.1770000
  23.1240005  25.0650005  14.0570002  23.2420006  24.4200001  13.2799997
  24.0359993  25.0259991  14.3920002  54.1850014  49.8769989  71.5839996
  54.9500008  50.1809998  71.1169968  54.1360016  50.5410004  72.3099976
  26.8479996  10.9779997  14.5349998  27.0730000  11.9080000  14.2889996
  27.7619991  10.5769997  14.5500002  75.4909973  34.1850014  71.7880020
  74.7890015  34.8419991  72.0800018  75.9130020  34.7690010  71.1409988
  46.1529999  22.4160004   5.7639999  45.7770004  23.2549992   5.4039998
  46.6119995  22.1550007   4.9410000  66.7460022  55.1110001  66.0869980
  65.9489975  54.9370003  66.6009979  67.4609985  54.7120018  66.6259995
  32.7570000  10.1890001  13.1309996  32.4389992  10.4849997  12.2180004
  32.1139984  10.7670002  13.6780005  30.3470001   7.3759999  15.2989998
  30.8500004   7.0270000  16.0550003  29.6930008   6.6710000  15.1829996
  13.9709997  13.5590000  18.3630009  14.2510004  13.3050003  17.4710007
  13.0129995  13.6529999  18.2029991  25.2399998  30.7299995  18.1709995
  25.9260006  30.4659996  18.7779999  25.2590008  29.9790001  17.5200005
  51.9259987  44.6139984  79.7580032  52.8310013  44.4970016  79.4639969
  51.6769981  45.4119987  79.2340012  46.7010002  10.1669998  17.7560005
  46.1870003   9.5209999  17.2040005  47.3380013  10.4549999  17.0569992
  56.5410004  11.7980003  23.4400005  56.7789993  11.0740004  22.9540005
  56.1870003  11.5290003  24.2740002  38.6399994  12.7489996   8.5649996
  38.3750000  13.6940002   8.7299995  37.7360001  12.3179998   8.5819998
  39.5849991  12.9790001  23.2570000  38.9780006  12.5179996  22.6189995
  38.9490013  13.3230000  23.9109993  32.5680008  13.1929998  22.8460007
  32.4039993  12.4020004  22.2970009  32.4990005  13.8809996  22.1320000
  51.9070015  25.2749996   6.5630002  51.0639992  24.9510002   6.1919999
  52.4379997  24.4319992   6.6199999  41.3860016  11.0830002  12.1370001
  40.4469986  10.8830004  12.1899996  41.6749992  10.8470001  13.0170002
  59.3860016  31.1520004  75.7519989  59.4620018  31.6539993  74.9150009
  58.5279999  31.4009991  76.0569992  64.9929962  31.9549999  74.8720016
  64.1869965  31.8670006  74.1949997  64.4199982  31.9580002  75.6630020
  51.2849998  46.7490005  78.2689972  51.9029999  47.3849983  78.6849976
  51.2949982  47.0890007  77.3710022  33.7970009  12.8579998  15.7770004
  32.8559990  12.8430004  15.9150000  34.0309982  11.9270000  15.7510004
  42.2389984  15.9370003  15.3979998  41.9519997  16.7439995  15.9080000
  42.2470016  16.2600002  14.4639997  43.9869995   7.9340000  12.9160004
  43.1250000   7.9470000  12.5590000  44.2229996   8.8599997  12.8529997
  28.7199993  13.7329998  20.5769997  28.7600002  12.8879995  20.0119991
  28.1709995  14.2919998  19.9950008  70.0680008  44.2449989  63.2400017
  70.3479996  43.2939987  63.1790009  69.1399994  44.1949997  63.0600014
  56.5979996  23.9080009   6.4150000  55.8170013  24.4650002   6.5669999
  56.2449989  23.0590000   6.7670002  58.8139992  44.4220009  77.9270020
  59.2309990  45.2239990  78.2350006  58.2220001  44.7509995  77.2539978
  32.6479988  20.7240009  19.6399994  32.3769989  20.0400009  20.2770004
  32.0600014  20.4080009  18.8859997  25.9480000  33.6349983  11.0089998
  25.7880001  34.0719986  11.8739996  26.4249992  32.8330002  11.3299999
  34.6440010  19.3649998   5.7340002  35.0169983  18.9239998   6.5840001
  34.0410004  18.6049995   5.5440001  33.7190018  21.7390003   5.2360001
  34.0470009  21.7759991   4.3290000  34.1100006  20.8059998   5.4439998
  37.5239983  21.7350006  17.7490005  37.3610001  22.6070004  18.2210007
  37.3300018  22.0529995  16.8449993  57.8580017  50.6699982  66.9629974
  57.3380013  49.8680000  67.1699982  57.2239990  51.1959991  66.4530029
  38.5219994   8.4530001  23.9729996  37.9860001   8.4790001  23.1159992
  39.0919991   9.2259998  23.8279991  41.9129982  25.3579998   8.1169996
  42.7070007  24.9510002   8.3439999  42.0670013  26.1849995   7.7519999
  46.0410004  10.4740000  24.2910004  46.3110008  10.0200005  25.1310005
  46.4249992   9.8199997  23.6100006  34.6080017  13.5839996  24.7140007
  34.1259995  14.0070000  25.4319992  33.8720016  13.2220001  24.1849995
  67.8130035  41.7340012  74.1409988  67.5000000  40.8089981  73.8880005
  67.0999985  41.9230003  74.8069992  42.0349998   4.3610001  28.4249992
  41.8300018   5.2659998  28.7430000  41.3940010   4.3520002  27.6800003
  40.9249992  14.9180002  11.3319998  41.3230019  14.4700003  12.1330004
  40.9090004  14.1389999  10.7220001  51.1629982  17.2660007  16.1980000
  50.9329987  17.3519993  15.2460003  51.3429985  18.2399998  16.3390007
  52.9620018  33.8089981  74.6139984  52.5099983  34.7169991  74.6060028
  53.3969994  33.8839989  73.7289963  33.9430008   1.7460001  20.3899994
  33.3269997   0.9940000  20.1250000  34.5089989   1.7280000  19.6189995
  44.3660011   4.2280002  26.0349998  43.8530006   4.7420001  26.6970005
  43.7789993   3.4749999  26.0070000  47.4519997  28.5259991  13.1809998
  48.1269989  28.6739998  12.5240002  47.9589996  28.7770004  13.9980001
   2.1099999  49.3660011  67.1529999   2.3399999  48.5239983  67.5199966
   2.8870001  49.9370003  67.4850006  45.4020004  20.3369999  12.5070000
  45.3300018  21.3010006  12.7469997  45.0649986  20.4330006  11.5640001
  49.7089996  11.9930000  11.6680002  49.0830002  12.7700005  11.7379999
  50.1899986  12.2119999  10.8579998  41.2960014  10.6260004  19.3069992
  41.8580017  10.0030003  19.8519993  41.6699982  11.4670000  19.6280003
  61.3180008  16.6509991  13.5459995  61.4710007  17.2250004  14.3439999
  60.3909988  16.9379997  13.3269997  72.5260010  37.0649986  74.9950027
  71.9430008  37.2980003  75.7310028  72.4680023  37.8619995  74.4270020
  34.7739983  19.5200005  26.8530006  35.5320015  20.0499992  27.1529999
  35.0060005  19.4230003  25.9230003  44.0750008  18.3330002  13.7010002
  43.1780014  18.7409992  13.7860003  44.5859985  18.9650002  13.2019997
  30.4969997  12.0489998  29.6459999  31.4130001  11.6479998  29.7539997
  30.5179996  12.7639999  30.3139992  52.6010017  38.6839981  79.3440018
  52.6129990  37.6940002  79.3219986  51.7729988  38.8240013  78.8320007
  37.1980019  20.5319996  20.2830009  37.3530006  21.1119995  19.5209999
  37.8330002  19.7660007  20.0809994  27.7299995  13.5710001  14.5410004
  27.2000008  14.4060001  14.4899998  28.6000004  14.0769997  14.1750002
  30.9799995  27.8120003  11.7580004  31.3899994  27.3400002  11.0229998
  31.7840004  28.2609997  12.1420002  28.5599995  14.7760000  29.6340008
  28.6320000  15.7919998  29.6639996  29.4440002  14.5799999  29.9930000
  46.4659996  12.6879997  22.8710003  46.6660004  13.3179998  23.5930004
  46.5070000  11.8140001  23.4069996  55.7280006   4.2940001  25.4139996
  56.6020012   3.8880000  25.3110008  55.8610001   4.8140001  26.2220001
  51.9199982  60.8569984  63.3279991  51.9140015  61.7319984  62.9620018
  52.2299995  61.0900002  64.2490005  65.8270035  42.3660011  76.2109985
  65.1060028  43.0000000  76.3649979  65.3929977  41.5330009  76.1910019
  46.7719994  13.0469999  18.1679993  47.1669998  13.1110001  19.0510006
  46.7690010  12.0889997  18.0340004   1.2630000  43.2319984  64.6090012
   0.3380000  42.8149986  64.7610016   0.8700000  44.0410004  64.1019974
  35.9700012  33.2280006   5.2789998  35.3289986  33.1010017   4.4930000
  36.3549995  32.3160019   5.2440000  74.2289963  47.3520012  64.1259995
  74.5029984  47.2330017  65.0289993  74.7809982  48.1119995  63.8160019
  57.1209984  36.8470001  79.5640030  58.0779991  36.9280014  79.5240021
  56.8950005  37.5810013  78.9449997  34.8409996  16.3859997  12.4799995
  34.1250000  17.0790005  12.6560001  34.2280006  15.6239996  12.6199999
  29.1539993  24.5499992   8.8210001  29.4780006  25.3969994   9.1309996
  29.1280003  24.0820007   9.6800003  65.7740021  61.8769989  64.2910004
  66.0159988  61.8559990  63.3380013  65.8059998  60.9420013  64.5120010
  30.0699997   5.5790000  27.9599991  29.9330006   4.8540001  28.6369991
  30.4689999   6.2340002  28.5879993  46.8709984  24.6270008  16.6429996
  47.3549995  23.9599991  16.1079998  47.5999985  24.9659996  17.1930008
  39.5029984  25.0550003  17.7089996  39.9230003  24.7430000  16.8479996
  39.1170006  25.8990002  17.3899994  43.1619987  32.9360008  15.5649996
  43.9099998  32.4920006  16.0340004  42.7519989  33.3479996  16.3379993
  42.7500000  29.0149994  19.5599995  43.5870018  28.9699993  18.9920006
  42.2080002  29.6009998  19.0230007  34.1010017  33.1450005   3.3120000
  33.9679985  32.1619987   3.2309999  33.2589989  33.3660011   3.8310001
  41.9179993  35.1959991   5.3130002  41.3499985  34.4280014   5.1090002
  42.7570000  34.7859993   5.0440001  68.7350006  62.9039993  60.6100006
  68.7160034  63.8580017  60.3919983  69.1110001  62.5460014  59.7120018
  42.9179993  25.9580002  11.2410002  43.7630005  26.2639999  10.8199997
  42.7039986  26.8589993  11.6239996  34.6450005  28.7420006   9.6269999
  34.7700005  29.6949997   9.8389997  35.6209984  28.5060005   9.6569996
  66.2819977  62.3209991  55.1240005  65.4459991  61.8429985  55.0209999
  66.8389969  61.7939987  54.4420013  44.1669998  23.3959999   8.1730003
  44.0849991  22.7010002   7.4990001  43.9809990  23.0030003   9.0050001
  48.7029991  37.0130005   8.0909996  48.1839981  37.3059998   7.3309999
  47.9809990  36.5419998   8.6339998  62.3520012  23.0580006  15.6789999
  62.7550011  23.8969994  15.8059998  63.1570015  22.4839993  15.9230003
  38.7840004  23.3630009   4.8550000  38.5270004  24.2910004   4.7010002
  38.2000008  23.2229996   5.6840000  30.1420002  27.4179993   8.6400003
  30.9930000  27.1879997   9.0579996  30.4230003  27.3339996   7.7040000
  47.6160011  14.5469999  25.4430008  48.0989990  15.1969995  24.8460007
  48.3909988  13.9370003  25.5720005  35.8310013  19.7770004  10.6190004
  35.1080017  20.1569996  11.1940002  36.5660019  20.2989998  11.0080004
  52.4049988  33.3440018   8.1070004  52.5200005  34.2799988   7.7700000
  52.8349991  33.4140015   9.0260000  43.8470001  30.8649998   2.7890000
  43.9350014  31.8040009   2.4020000  44.7360001  30.5200005   2.4690001
  49.6969986  22.8759995  17.2590008  50.3339996  23.6350002  17.4549999
  49.9809990  22.5779991  16.3820000  47.0009995  20.0799999   9.4219999
  46.0089989  20.1940002   9.3070002  47.3149986  20.5610008   8.6549997
  46.3100014  32.2350006   0.2890000  46.9519997  32.7869987  -0.2500000
  46.3069992  31.3920002  -0.2610000  38.8370018  24.3799992  12.9860001
  39.4830017  23.6849995  13.3219995  39.0009995  25.0620003  13.6289997
  59.7939987  19.7049999  12.9779997  60.6370010  19.5970001  12.5570002
  59.9599991  20.2509995  13.7740002  51.6990013  20.1539993   7.4889998
  51.7960014  20.2420006   8.4320002  50.7290001  20.3090000   7.3649998
  52.2929993   9.9219999   9.2329998  52.1020012  10.9200001   9.3680000
  51.7970009   9.5830002  10.0249996  38.2890015  27.8589993  17.6690006
  38.1409988  28.8230000  17.7880001  37.5929985  27.7570000  16.9559994
  40.6689987  29.8729992  15.7040005  39.8199997  30.3649998  15.5059996
  40.7570000  29.4160004  14.8509998  46.1339989  11.5769997  11.8540001
  46.1510010  12.5200005  12.0129995  45.5289993  11.2510004  12.5299997
  51.0830002  27.0380001  17.3610001  51.7949982  27.6450005  17.4619999
  51.0200005  27.0279999  16.3959999  71.1579971  55.4210014  65.8140030
  71.0360031  56.3709984  65.4540024  70.9980011  54.9790001  64.9010010
  52.2130013  24.6499996  17.9309998  53.1539993  24.6989994  17.9020004
  51.8860016  25.5219994  17.6480007  46.2999992   6.7900000  12.2620001
  46.6279984   7.6840000  12.1660004  45.4220009   6.9320002  12.6789999
  42.2200012  18.5470009  11.1140003  41.7270012  18.8419991  11.9080000
  41.4510002  18.2210007  10.5970001  45.9020004  25.3409996  12.9919996
  45.7809982  25.9190006  12.2229996  46.7080002  24.8490009  12.6910000
  70.3820038  55.0970001  60.8709984  71.3580017  54.9249992  61.0330009
  70.2799988  54.5460014  60.0620003  44.1459999  24.4960003  16.9419994
  45.1049995  24.3759995  16.8850002  43.7719994  23.7490005  16.4659996
  49.8419991  59.6020012  66.1269989  50.4630013  59.3680000  66.8389969
  49.6040001  58.7210007  65.8010025  52.7290001  14.7559996   9.0790005
  52.6110001  15.2430000   8.2849998  53.4739990  15.2299995   9.4899998
  39.4350014  27.0450001   6.2909999  38.9440002  26.2980003   5.8030000
  38.7019997  27.7089996   6.2919998  50.3530006  28.9839993  19.3680000
  50.5250015  28.5340004  20.2310009  50.5550003  28.2579994  18.7409992
  44.6170006  20.0200005  17.1130009  44.0699997  19.8309994  17.9400005
  45.3670006  19.3600006  17.3290005  67.0970001  27.6849995  11.0430002
  66.7809982  28.3309994  11.7019997  66.5579987  27.9589996  10.2589998
  48.6679993  26.5699997   5.4949999  48.9350014  25.7240009   5.1799998
  49.5480003  26.9810009   5.5739999  48.6889992  23.9400005  14.6610003
  48.2789993  23.4200001  13.9750004  49.6419983  23.6149998  14.5679998
  51.8909988  65.8880005  67.7620010  52.2290001  65.1600037  68.3470001
  52.5349998  66.6110001  68.1129990  40.4399986  20.7999992  17.9659996
  39.7639999  20.3090000  18.4589996  39.9599991  20.8889999  17.0849991
  37.7610016  16.1720009  27.2689991  38.5219994  15.5749998  27.1889992
  38.0200005  16.6790009  28.0559998  25.4319992  19.3700008  20.7560005
  26.3379993  19.5370007  20.5130005  25.3910007  19.9220009  21.5709991
  41.0830002  30.7439995  18.2709999  41.1710014  31.6989994  17.9340000
  40.8889999  30.3029995  17.4200001  45.3040009  27.0650005  10.4490004
  45.1409988  28.0289993  10.1499996  46.0530014  26.8880005   9.8540001
  45.2340012  36.2169991  16.7929993  45.8120003  36.1040001  17.5450001
  45.8040009  35.8899994  16.0650005  46.1629982  15.8109999  22.1760006
  46.2750015  15.2779999  21.3920002  45.8880005  16.6849995  21.8010006
  38.7540016   9.8730001  18.0359993  37.9760017  10.3699999  18.3990002
  39.5019989  10.4420004  18.3379993  48.9970016  29.7840004   6.4670000
  49.5620003  28.9820004   6.3169999  49.5239983  30.4039993   5.9060001
  53.0550003  26.8990002  15.0699997  53.2739983  27.5520000  14.3660002
  52.4669991  26.2679996  14.5920000  39.3450012  20.5429993   7.6380000
  38.3870010  20.3670006   7.7049999  39.4630013  20.2929993   6.6729999
  41.8790016  13.6160002  13.4680004  41.9970016  13.6339998  14.4510002
  41.7220001  12.7159996  13.2519999  36.5050011  17.5079994  15.6339998
  35.9039993  18.1019993  15.2340002  36.3429985  17.5990009  16.5939999
  68.9899979  54.2639999  67.4629974  69.7379990  54.4290009  66.8909988
  69.3020020  54.4980011  68.3349991  12.6029997  59.2970009  63.3160019
  13.3420000  60.0099983  63.2200012  11.9160004  59.8009987  62.7630005
  40.0400009  29.4650002  -0.7650000  40.2830009  29.9230003   0.1150000
  40.5309982  28.6480007  -0.6420000  49.8199997  24.1429996   4.7470002
  49.2260017  23.4650002   4.3660002  50.5270004  24.1509991   4.0970001
  37.9860001  26.1100006  20.8029995  38.5719986  25.4459991  21.3279991
  38.6180000  26.8479996  20.7490005  45.1360016  12.9540005   5.5920000
  45.8510017  12.2580004   5.5960002  44.6749992  12.6969995   6.4359999
  65.4110031  44.4119987  72.1699982  65.0780029  43.8170013  72.8000031
  66.3850021  44.2799988  72.1360016  46.4350014  10.4329996   5.4899998
  46.0870018  10.1700001   4.5760002  46.4029999   9.5389996   5.8709998
  71.6589966  65.0830002  60.4090004  70.6470032  65.0370026  60.4249992
  71.8170013  64.1350021  60.6389999  20.4139996   1.6260000  51.5859985
  20.5459995   1.0910000  52.4070015  19.8430004   2.3060000  51.9300003
  51.9179993  20.0230007  10.2889996  52.7849998  20.1030006  10.7950001
  51.9360008  19.0680008  10.1920004  47.4119987  35.2319984   4.1009998
  47.4319992  34.2980003   3.8160000  47.1269989  35.6489983   3.2509999
  34.1769981  32.5660019   0.2620000  33.3059998  32.8330002  -0.1530000
  34.1559982  33.1399994   1.0140001  61.4819984  20.2649994  17.7119999
  62.0509987  19.4610004  17.7789993  61.7089996  20.7180004  18.5410004
  48.7050018  19.7929993   6.2329998  48.1370010  19.0200005   6.5289998
  48.4090004  20.4899998   6.7950001  49.3310013  34.5750008  15.9600000
  49.4309998  34.8969994  15.0179996  50.2000008  34.7280006  16.3120003
  53.9819984  34.2669983  10.1590004  54.5449982  34.3359985   9.3540001
  54.7010002  34.1959991  10.8210001  37.8829994  31.0629997   4.3109999
  37.8580017  31.1410007   3.3190000  38.6780014  31.5990009   4.4980001
  51.1020012  26.7189999  12.3350000  50.3520012  26.9340000  12.9809999
  50.9519997  25.7619991  12.2530003  39.9580002  33.8479996  -4.4730000
  40.7989998  34.2179985  -4.6550002  40.1450005  32.9029999  -4.3800001
  75.3880005  51.1139984  61.0239983  74.5370026  50.7529984  60.6800003
  75.8710022  50.2939987  61.2470016  55.8380013  28.7070007   6.3779998
  55.4830017  27.7779999   6.2240000  54.9910011  29.2080002   6.2280002
  47.3120003  29.2849998   8.3900003  47.9480019  29.5559998   7.6490002
  46.8149986  30.1539993   8.4659996  41.4770012  38.6170006  11.5609999
  42.1739998  39.2260017  11.1969995  41.7270012  37.8520012  11.0220003
  65.3499985  36.7449989  74.4649963  64.3410034  36.7249985  74.2720032
  65.6559982  36.1419983  73.7490005  59.9010010  23.0289993  10.9320002
  59.1279984  22.4599991  11.2340002  60.1599998  22.4780006  10.1730003
  49.1710014  26.5639992  14.5489998  48.4399986  27.1189995  14.1619997
  48.6769981  25.7049999  14.6009998  48.2529984  31.5450001  10.4580002
  48.0730019  31.7770004   9.5200005  47.3590012  31.3419991  10.7980003
  42.7960014  16.5270004   5.1919999  43.1430016  15.8590002   5.8000002
  42.0040016  16.8770008   5.6380000  36.5470009  20.9039993   7.7789998
  36.2120018  20.2450008   7.1640000  36.2439995  20.5650005   8.6120005
  41.6860008  28.5809994   6.7839999  41.5079994  29.1250000   5.9670000
  40.7739983  28.0790005   6.6900001  57.7400017  34.6720009  17.9930000
  57.4109993  35.5480003  18.2830009  57.0180016  34.4179993  17.3740005
  32.6450005  27.0209999   9.7089996  33.2830009  27.7560005   9.6689997
  33.2859993  26.2970009   9.6079998  42.8230019  37.1870003   9.8330002
  42.4869995  36.2439995   9.9169998  42.9700012  37.1629982   8.8520002
  42.7570000  28.4260006  12.0299997  43.0169983  29.0139999  11.3120003
  43.3289986  28.6940002  12.7600002  51.1349983  28.0419998   5.8690000
  51.4220009  27.2290001   6.2930002  51.9760017  28.4179993   5.5050001
  42.2410011  26.3829994  16.0070000  42.7350006  25.6690006  16.5259991
  42.9710007  26.9780006  15.9169998  34.2389984  21.9449997  16.5000000
  35.1959991  22.2490005  16.2450008  34.3569984  21.0450001  16.6779995
  45.3120003  24.9519997   4.7839999  44.5460014  25.4969997   4.8569999
  45.8510017  25.5149994   4.1669998  67.0510025  62.9389992  57.7509995
  68.0090027  62.7319984  57.8069992  66.8870010  62.7410011  56.8429985
  45.7879982  28.9860001   1.2190000  45.7970009  27.9710007   1.1680000
  46.7929993  29.1359997   1.1619999  58.0800018  69.7979965  62.0830002
  57.3339996  69.5169983  61.4809990  58.5970001  70.2850037  61.4300003
  50.8209991  22.3990002  14.7449999  51.7649994  22.6919994  14.6070004
  50.7050018  22.0039997  13.8470001  34.6119995  30.8929996  11.9180002
  34.4640007  31.6469994  12.4940004  35.5569992  30.7189999  12.0660000
  28.2220001  17.2390003  18.9610004  28.3899994  17.5820007  18.0750008
  27.5830002  16.5090008  18.7420006  40.9749985  31.9729996  11.6759996
  40.6220016  31.9909992  10.7360001  41.6360016  31.2269993  11.5369997
  52.7150002  30.3509998  11.8420000  53.5079994  30.9039993  12.1309996
  52.0880013  31.0330009  11.5860004  51.9459991  14.2810001  16.1879997
  51.6850014  14.9689999  16.7800007  51.2430000  14.3649998  15.5019999
  64.8809967  25.8810005   4.6250000  65.7880020  25.9599991   4.1729999
  64.4130020  26.4780006   3.9510000  47.0830002  31.7080002  21.7749996
  46.5410004  30.9519997  22.1539993  47.1409988  31.3360004  20.8320007
  49.7949982  16.1189995   0.8180000  50.1949997  16.7889996   1.4490000
  48.8289986  16.2560005   1.1220000  41.3800011  25.3700008  19.5330009
  41.1030006  26.2259998  19.9510002  40.5769997  25.2329998  18.9510002
  53.6650009  31.4640007   0.9230000  52.7169991  31.2450008   0.7260000
  54.0839996  31.1959991   0.0630000  44.1529999  14.5679998  18.2749996
  44.0820007  14.6510000  17.3180008  45.0009995  14.0050001  18.2999992
  44.7249985  28.7450008  17.8470001  45.7019997  28.9529991  17.7420006
  44.6930008  27.9430008  17.3740005  49.2449989  10.9680004  14.2390003
  48.7879982  11.8079996  14.4659996  49.2859993  11.0979996  13.2709999
  46.5449982  17.3059998   9.9250002  45.5999985  17.1130009  10.1459999
  46.5219994  18.2639999   9.8179998  50.2050018  31.4869995  13.6759996
  50.2400017  32.3950005  13.9849997  50.4000015  31.6079998  12.7110004
  19.8980007   9.3210001  57.6360016  19.8600006  10.2539997  57.2919998
  19.6320000   8.8299999  56.8359985  33.8110008  26.2740002  16.1900005
  34.0620003  27.1110001  16.7029991  33.7779999  25.6590004  16.9090004
  31.2830009  22.7380009   8.1929998  31.0030003  22.5779991   7.2719998
  30.4860001  23.3020000   8.4809999  44.7630005  29.1040001  13.9099998
  44.7719994  28.2999992  14.4969997  45.5670013  28.8780003  13.3640003
  34.8530006  23.4979992  11.3000002  34.3209991  22.6860008  11.5410004
  34.5120010  23.7070007  10.4119997  32.1459999  29.6679993  15.3789997
  32.3160019  29.4200001  14.4549999  32.8260002  29.1749992  15.8319998
  33.3129997  21.3349991  11.8889999  32.4189987  21.1229992  11.5719995
  33.0579987  21.4370003  12.8850002  59.1489983  33.2929993  10.4379997
  59.7060013  33.8370018   9.8610001  59.3979988  32.4049988  10.2030001
  37.1969986   5.6539998  23.8199997  37.4410019   6.5990000  23.8439999
  37.0089989   5.5520000  22.8759995  53.2050018  23.2770004  14.5550003
  53.4259987  23.1539993  13.5699997  53.7849998  23.9969997  14.7639999
  36.5279999  13.6049995  16.1030006  35.6710014  13.2489996  15.7930002
  36.7680016  14.1669998  15.2709999  51.7050018  17.4699993   9.9619999
  52.1949997  16.6450005  10.1689997  51.0200005  17.0170002   9.3470001
  55.5499992  29.2600002   8.9989996  56.0000000  29.1299992   8.1180000
  54.7470016  28.7689991   8.7690001  34.8680000  14.9490004  18.0580006
  35.3520012  14.5059996  17.3080006  34.2260017  14.2819996  18.2479992
  43.5940018  27.1700001   5.0359998  43.2949982  27.8090000   5.7100000
  44.3170013  27.7119999   4.5799999  61.6339989  40.1170006  68.8740005
  61.2229996  39.5530014  68.1829987  61.9749985  40.8320007  68.3830032
  23.8369999  23.5830002  20.4869995  23.6270008  23.3269997  21.4820004
  23.4619999  22.7070007  20.1350002  47.3230019  14.8299999  16.2590008
  47.0610008  14.1370001  16.9370003  46.4430008  14.8669996  15.7969999
  59.6699982  30.3540001   9.7629995  58.8190002  30.3850002  10.2189999
  59.8479996  29.4060001   9.6700001  44.4239998  32.2529984  10.6619997
  44.4490013  33.2070007  10.6820002  44.2379990  32.0379982  11.6070004
  68.8690033  52.6910019  64.7539978  69.8140030  52.5460014  64.5869980
  68.9369965  52.8779984  65.7279968  45.0960007  26.6420002  15.1000004
  45.3499985  25.7630005  15.6389999  45.3989983  26.2320004  14.2559996
  41.0079994  30.8449993   1.4730000  41.2089996  31.6380005   2.0100000
  41.6189995  30.1779995   1.8860000  27.8579998  30.7989998  14.4960003
  28.7240009  31.2719994  14.6219997  28.1639996  29.9139996  14.3290005
  55.0410004  60.9269981  63.1790009  54.1259995  60.6650009  62.8629990
  55.4959984  60.6599998  62.3180008  43.5110016  11.0500002  23.7250004
  43.5270004  10.6789999  24.6410007  44.4560013  10.7810001  23.4710007
  47.2649994  29.3129997  -3.7019999  47.6360016  29.8430004  -4.3950000
  46.4280014  28.9939995  -4.0320001  51.7700005  40.9739990  -2.4380000
  51.3629990  40.7130013  -1.5950000  52.0699997  41.8790016  -2.2609999
  31.5100002  23.2889996  20.3129997  31.8209991  22.4120007  20.5410004
  31.5340004  23.2670002  19.3209991  49.0509987  34.0890007   1.6350000
  48.3219986  34.7669983   1.5369999  48.4319992  33.4160004   2.1280000
  39.7210007  26.0760002  14.8909998  40.5340004  26.0730000  15.4759998
  39.9729996  26.8020000  14.2819996  54.9529991  42.0859985  16.6919994
  55.3650017  41.9239998  15.8450003  53.9889984  41.9539986  16.4619999
  73.2939987  53.7529984  66.1289978  72.4110031  54.1629982  66.1890030
  73.5749969  53.9650002  65.1959991  37.0209999  29.8530006  13.6260004
  37.2939987  29.7269993  12.7119999  36.7919998  28.8710003  13.8179998
  38.1409988  34.9129982  14.3009996  38.9119987  34.3650017  14.5010004
  37.5060005  34.2089996  14.0000000  31.4239998   8.9829998  24.2180004
  32.1080017   8.7910004  24.8770008  31.3479996   9.9709997  24.3139992
  56.9860001  32.9970016   6.0089998  57.5589981  32.4099998   5.5190001
  56.1780014  32.4049988   6.1589999  47.6829987  19.3899994  14.8990002
  47.2480011  20.2500000  14.7919998  47.9399986  19.5179996  15.8870001
  46.7599983  24.5750008  20.5349998  46.6150017  24.9740009  19.6690006
  47.6640015  24.8069992  20.6860008  61.3380013  29.5459995  15.9110003
  60.9949989  30.4459991  16.1119995  61.9300003  29.7350006  15.1800003
  55.3489990  21.5930004  16.3670006  54.7709999  22.2619991  15.9119997
  54.8849983  20.7859993  16.0650005  21.5820007  -2.9020000  50.3190002
  20.8320007  -2.7240000  49.6650009  21.0610008  -3.5750000  50.8310013
  54.0130005  15.4049997  13.2650003  53.2939987  15.1560001  12.6300001
  54.4589996  14.5469999  13.3140001  71.9359970  51.7179985  64.2750015
  72.6880035  51.7869987  64.8870010  72.2320023  51.0540009  63.6459999
  59.6510010  12.5640001   6.7210002  59.8240013  12.8929996   7.6420002
  59.3629990  13.4639997   6.2930002  40.3370018  32.2980003   5.0510001
  40.9300003  31.5629997   5.0630002  40.4319992  32.6250000   4.1279998
  53.2410011  28.1940002   8.0880003  52.8680000  29.0869999   8.1669998
  52.5009995  27.6980000   8.4750004  44.5060005  20.6599998   7.2179999
  45.2449989  21.0949993   6.7500000  44.0400009  20.3619995   6.4530001
  50.3709984  30.0400009   2.9400001  50.7830009  30.5779991   2.2639999
  50.5079994  30.6910000   3.7470000  56.5750008  17.3560009   6.2909999
  55.5800018  17.4740009   6.2719998  56.6160011  16.4710007   6.7119999
  47.4850006  28.6329994  17.6380005  47.8600006  27.8129997  18.0109997
  48.0270004  28.6420002  16.8330002  61.4539986  54.0419998  64.9400024
  61.2919998  53.0989990  64.9729996  61.2960014  54.1910019  63.9449997
  59.6879997  28.2670002   3.9700000  58.8260002  27.9009991   3.7850001
  59.4700012  28.7350006   4.8169999  52.6510010  31.9389992  15.3780003
  53.0559998  32.2949982  14.6009998  51.9339981  31.3820000  14.9429998
  51.4230003  12.8389997  26.1509991  50.7340012  12.8339996  25.4160004
  51.5250015  13.7810001  26.2169991  47.4609985  11.5349998   9.4549999
  46.9430008  11.5129995  10.3290005  46.9900017  10.8400002   8.9709997
  25.3610001  24.9540005  15.1800003  25.5919991  24.6499996  16.0919991
  26.2070007  25.3490009  14.8719997  34.9560013  27.1110001  12.2749996
  35.6819992  27.2600002  11.6759996  35.3139992  26.3840008  12.7950001
  73.6490021  38.9070015  69.7220001  72.9280014  39.0629997  69.0859985
  74.0940018  39.7159996  69.7959976  76.2600021  47.3260002  59.8390007
  75.5500031  47.1100006  59.1980019  77.0230026  47.4140015  59.2470016
  40.7490005  10.2709999  23.9360008  41.7270012  10.3059998  23.8519993
  40.5779991  11.2130003  23.6119995  44.1629982  29.5009995  -0.8180000
  43.5709991  28.7570000  -0.6510000  44.8409996  29.4279995  -0.1250000
  37.1539993  28.8400002  11.1210003  37.4910011  29.2840004  10.2880001
  37.8149986  28.1779995  11.2799997  53.4650002  14.9370003   6.1160002
  54.1510010  14.2849998   6.3299999  52.9010010  14.3859997   5.4429998
   6.2779999  51.1500015  62.9510002   6.3099999  50.2540016  63.2890015
   6.5209999  51.6549988  63.7690010  53.6969986  57.7709999  67.8099976
  53.7210007  57.6310005  68.8079987  52.7490005  57.5569992  67.6169968
  44.1780014  33.9059982   4.7600002  44.5299988  33.2080002   5.3800001
  44.6020012  33.5359993   3.9260001  46.2529984  31.8279991   8.6879997
  46.2400017  32.5559998   8.0690002  45.6850014  32.1150017   9.3620005
  56.4339981  14.9569998   7.8590002  56.3450012  14.2589998   8.5679998
  56.3050003  14.3680000   7.0460000  47.5489998  23.6100006  11.6840000
  47.3160019  24.0300007  10.8450003  47.9819984  22.7339993  11.3509998
  52.9650002  35.6969986  21.1749992  52.4179993  35.1489983  20.5599995
  53.4970016  34.9980011  21.5830002  37.8750000  31.4599991   1.6430000
  37.2770004  30.9419994   1.0470001  38.7529984  31.1490002   1.2770000
  40.7999992  22.2350006   9.0959997  41.1969986  22.2310009   8.1960001
  40.1720009  21.4510002   8.9049997  50.8279991  18.2049999   2.4110000
  51.5029984  18.7110004   1.8620000  50.3450012  18.9699993   2.7679999
  54.5029984  35.4319992   1.5280000  54.7910004  34.8619995   2.2240000
  55.3230019  35.5940018   0.9870000   5.9390001  44.8880005  72.0319977
   5.8049998  44.5139999  71.0950012   5.0460000  44.7820015  72.3170013
  51.2179985  24.5429993  -0.3310000  51.1990013  23.7849998  -0.9280000
  51.9580002  25.0660000  -0.6740000  23.8670006  25.3220005  18.4440002
  23.6100006  24.7849998  17.6410007  23.7560005  24.6019993  19.1030006
  41.8359985  13.1940002  16.0620003  41.0000000  13.1780005  16.5520000
  41.9379997  14.1940002  15.9189997  36.8260002  32.6590004  13.5559998
  36.8860016  31.6949997  13.3439999  35.8429985  32.6450005  13.7989998
  42.3940010  38.7470016   3.4300001  42.5789986  39.6949997   3.2030001
  42.3279991  38.3590012   2.5190001  45.2649994   9.7040005   8.9490004
  45.7770004   8.8889999   8.7030001  44.5229988   9.3680000   9.4639997
  38.3349991  16.2399998  19.3889999  37.9910011  16.5109997  20.3269997
  38.6759987  15.3579998  19.6320000  55.7290001  39.1839981  17.3630009
  55.4650002  40.0800018  17.6049995  54.9939995  38.9269981  16.7959995
  61.4360008  32.3310013   4.4070001  60.6609993  31.9860001   4.8400002
  61.8479996  31.4669991   4.1079998  41.7919998  41.8139992   8.9029999
  41.2529984  42.4199982   8.3160000  40.9770012  41.4959984   9.4639997
  47.7459984  32.6539993  17.0380001  48.3610001  33.4519997  16.7639999
  48.5299988  32.0000000  17.0419998  49.4230003  34.9109993  19.7549992
  50.3009987  34.5229988  19.5189991  49.5559998  35.8190002  19.4909992
  66.0979996  37.5169983   4.5000000  66.5749969  37.9389992   3.7920001
  66.7679977  37.0530014   5.0330000  40.7379990  35.9199982  11.8459997
  41.5690002  35.7439995  12.3559999  40.0699997  35.9850006  12.5819998
  56.2459984  48.1080017  20.2080002  56.1040001  47.1689987  19.9470005
  57.2400017  48.1220016  20.2679996  51.4799995  49.7019997   9.4250002
  50.6150017  49.9169998   9.6899996  51.3769989  49.1279984   8.6829996
  60.6329994  35.5159988   9.4270000  60.4760017  36.2290001   8.7530003
  61.5900002  35.6899986   9.6339998  49.8549995  32.2779999   8.1230001
  49.5429993  32.0379982   7.2490001  50.7639999  32.5589981   7.8790002
  34.0070000   4.0949998  63.8860016  34.4630013   3.7090001  63.0620003
  34.3510017   3.4470000  64.5520020  56.1199989  37.1240005  12.5349998
  56.5229988  37.9399986  12.9720001  56.5410004  37.1829987  11.6330004
  51.6389999  34.8670006  11.8009996  51.2550011  35.5139999  11.1059999
  52.4739990  34.7309990  11.4200001  38.1730003   8.7740002  67.3519974
  38.2299995   8.3310003  66.4899979  38.7560005   8.1780005  67.9010010
  57.1650009  28.7590008  18.5669994  56.7080002  28.4179993  19.3570004
  57.6180000  27.9699993  18.2570000  68.0640030  35.4869995   6.0939999
  68.8349991  35.2490005   5.6100001  68.2969971  35.1949997   7.0110002
  57.6689987  40.5750008  21.4829998  56.9550018  39.9780006  21.7730007
  58.4410019  40.0390015  21.9190006  48.1119995  37.5379982  15.9329996
  48.9830017  37.7610016  15.5209999  47.9269981  36.6650009  15.5019999
  77.7580032  48.2470016  19.3780003  76.9270020  48.7500000  19.2779999
  78.3779984  48.9700012  19.6569996  41.1879997  43.1380005  16.8129997
  41.1279984  44.0979996  16.5830002  40.2579994  42.8930016  16.9060001
  58.4760017  28.4039993   6.7010002  58.6049995  27.4750004   6.8030000
  57.5530014  28.5209999   6.4580002  52.8829994  46.4290009  10.4320002
  53.4269981  46.8650017   9.7749996  52.4749985  45.7999992   9.8509998
  51.3129997  37.3250008  24.6280003  52.0359993  37.8499985  25.0300007
  51.4529991  37.6220016  23.6840000  56.2949982  27.6480007  12.4729996
  56.2789993  26.6660004  12.5170002  55.3180008  27.7700005  12.5830002
  63.4370003  36.5000000   8.0970001  63.0789986  36.4469986   7.2579999
  64.4169998  36.4199982   7.9749999  60.5400009  42.2820015  24.9839993
  61.1899986  42.5730019  24.2959995  59.9860001  43.0929985  25.0330009
  53.7400017  36.7630005  13.9519997  53.3079987  37.5740013  13.5389996
  54.6160011  36.8489990  13.6379995  54.1710014  34.8600006  17.4300003
  54.8940010  35.5060005  17.6959991  54.7200012  34.1320000  17.0139999
  64.8379974  39.7519989  11.3839998  64.2429962  39.8950005  12.1300001
  64.1640015  39.4430008  10.6969995  61.8940010  33.2299995  11.5120001
  61.7840004  32.2639999  11.5710001  60.9589996  33.4879990  11.5749998
  58.8269997  34.6119995  23.9029999  59.0839996  35.5610008  23.9990005
  58.6510010  34.3660011  24.8419991  60.8930016  46.2369995  13.3360004
  61.2610016  47.1220016  13.2489996  59.9249992  46.4080009  13.2760000
  45.0460014  31.2339993  16.3980007  44.7210007  30.3810005  16.6720009
  45.6590004  31.4759998  17.0909996  55.1259995  52.3590012   5.2490001
  56.0960007  52.2540016   5.3179998  54.9199982  51.7830009   4.5479999
  54.0740013  37.8699989   8.1750002  53.6699982  38.5859985   7.6059999
  54.9910011  38.0159988   8.0260000  45.8209991  38.7770004   9.2069998
  44.9780006  38.7949982   9.7240000  46.1290016  37.8629990   9.4879999
  43.7330017  38.3950005  22.0109997  44.2270012  37.7859993  21.4400005
  43.9490013  39.2760010  21.5930004  47.8740005  51.6220016  14.0209999
  48.5929985  51.3100014  13.3900003  47.3139992  50.8139992  13.9919996
  62.4169998  43.0929985  26.9850006  61.8219986  42.7389984  26.2980003
  62.3300018  44.0470009  26.7910004  42.0950012  24.9750004   5.5339999
  41.8670006  25.1180000   6.4809999  42.6030006  25.7619991   5.3299999
  59.5369987  45.5270004  20.3869991  60.2719994  45.1599998  19.8339996
  58.7639999  45.1629982  19.9120007  62.9650002  29.4720001  20.9920006
  62.0449982  29.3209991  20.6569996  63.2150002  28.5620003  21.2080002
  73.6760025  38.5209999  19.8920002  72.7770004  38.9189987  20.1089993
  73.3809967  37.6889992  19.4960003  43.8279991  20.2609997  64.1389999
  44.0470009  20.9960003  64.7590027  43.7900009  20.8290005  63.3129997
  41.6609993  44.2999992  10.5120001  41.7179985  43.8559990   9.5869999
  41.5530014  45.2249985  10.2670002  54.7659988  46.9239998   8.3800001
  55.5260010  47.4199982   8.5459995  54.4189987  47.2389984   7.5359998
  46.3680000  32.7820015  14.3420000  45.5900002  32.4980011  13.7950001
  46.3860016  32.0779991  14.9960003  48.5509987  39.6209984  23.0660000
  48.6139984  40.1829987  22.2749996  47.9449997  40.1399994  23.5949993
  55.9480019  51.0960007  13.8839998  56.4529991  50.4840012  14.5410004
  56.0250015  50.5449982  13.0719995  57.7290001  44.0690002  19.0020008
  58.2560005  43.2109985  19.1639996  57.5079994  43.8009987  18.0389996
  48.6409988  52.3909988  22.9449997  48.8310013  52.7739983  23.8199997
  48.3190002  51.4650002  23.2119999  50.6829987  37.9389992  15.2180004
  51.3059998  37.2770004  15.6350002  51.0029984  37.8479996  14.3009996
  38.7939987  48.1269989   0.4090000  39.5820007  48.6209984   0.1480000
  39.2910004  47.3510017   0.7930000  56.1290016  31.9230003   1.9570000
  56.2519989  31.1630001   2.4570000  55.4119987  31.7380009   1.3430001
  25.7570000  60.1520004  76.6380005  25.8910007  59.3139992  76.1279984
  26.6560001  60.3820000  76.8190002  46.8230019  35.5559998  14.6809998
  47.7029991  35.3639984  14.2510004  46.4830017  34.6240005  14.5920000
  56.0299988  44.6479988  21.9370003  55.3619995  44.4119987  21.2329998
  55.3689995  45.0330009  22.6049995  10.3409996  70.8430023  61.1209984
   9.7150002  71.0650024  60.3989983  10.8009996  70.0510025  60.7960014
  60.0870018  37.6660004   8.1980000  60.4480019  38.5470009   8.4209995
  59.1110001  37.7799988   8.3330002  52.0550003  34.0839996  18.9899998
  52.6800003  34.5200005  18.3409996  52.1520004  33.1679993  18.7350006
  59.4669991  38.7179985   4.3230000  60.1899986  39.3069992   4.6310000
  59.9630013  38.1119995   3.7639999  49.6279984  37.9090004  12.2259998
  48.6580009  38.0470009  12.2790003  49.9589996  38.7420006  12.0430002
  73.1439972  38.6310005   4.9590001  73.7699966  39.2330017   5.4790001
  72.5540009  39.3680000   4.7399998  51.1580009  37.0079994   5.5190001
  51.6679993  36.5180016   6.1999998  51.1809998  36.3440018   4.7859998
  54.4640007  26.1009998   9.9980001  55.0200005  26.4239998  10.7259998
  53.6899986  26.6590004  10.0100002  52.3730011  30.5450001   8.7700005
  51.9840012  30.4389992   9.6409998  52.2060013  31.5410004   8.6560001
  32.0060005   1.4410000  61.8349991  31.9580002   1.5580000  60.8549995
  31.6389999   0.5220000  61.9090004  64.6979980  31.1679993  21.8680000
  65.2789993  30.3640003  21.6770000  63.8540001  30.7180004  21.4820004
  61.5449982  42.7210007   6.9200001  62.2089996  42.4630013   7.5660000
  61.5989990  43.6339989   6.7319999  64.5100021  40.2130013   5.0370002
  65.0680008  40.1549988   4.2719998  65.1220016  39.8650017   5.7189999
  60.5670013  40.1370010   8.8369999  59.9370003  40.4109993   9.5120001
  60.4440002  40.8440018   8.1409998  65.2590027  35.7910004  10.7440004
  65.4130020  35.5730019  11.7040005  64.3450012  36.1150017  10.8059998
  52.1850014  39.1899986  13.1099997  52.1349983  39.0890007  12.1479998
  51.8489990  40.1119995  13.1099997  11.7229996  56.8349991  70.7300034
  11.9829998  55.9370003  70.5989990  11.4670000  57.1980019  69.8880005
  53.6360016  27.7310009  12.5100002  52.6910019  27.3759995  12.3660002
  53.5149994  28.6439991  12.1420002  56.5270004  35.7859993  21.4720001
  57.3460007  36.1940002  21.1480007  56.3520012  36.2599983  22.3050003
  65.5400009  31.2810001   5.0949998  65.6999969  32.1749992   4.8330002
  66.2480011  31.1889992   5.7740002  39.7369995  40.2120018  14.7200003
  40.5120010  40.5569992  14.2849998  39.7439995  39.2309990  14.4960003
  56.1010017  49.1899986  11.4560003  56.7480011  49.0449982  10.7390003
  55.9850006  48.2809982  11.8219995  56.2470016  30.7320004  21.6650009
  57.1069984  30.2339993  21.6049995  56.5839996  31.6429996  21.5709991
  49.5149994  39.3400002   1.8550000  50.3889999  38.9570007   1.6040000
  49.6669998  39.3149986   2.9059999  47.2820015  26.6989994   7.9640002
  47.3160019  27.7119999   8.0039997  47.6879997  26.6340008   7.0710001
  63.4990005  45.9529991  11.0559998  62.8489990  46.1660004  11.6929998
  63.1160011  46.4910011  10.2980003  51.7610016  49.0589981  12.1140003
  52.4599991  48.8989983  12.7580004  52.2169991  49.5330009  11.4049997
  54.4360008  57.2939987  15.1980000  54.1990013  56.6759987  15.9300003
  53.5579987  57.6580009  15.0609999  41.6250000  48.5340004  13.5200005
  41.1679993  49.3709984  13.7620001  40.8530006  47.9090004  13.5600004
  42.0610008  49.2680016   7.6650000  42.9910011  49.5960007   7.7849998
  41.5480003  49.8660011   8.2830000  43.4449997  45.0309982  13.6330004
  44.4290009  44.9809990  13.4960003  43.2159996  45.6150017  12.9379997
  55.0000000  40.6780014   9.8230000  55.1459999  41.5699997   9.4630003
  55.6510010  40.2010002   9.3520002  52.7000008  42.0070000  14.6379995
  53.2669983  42.5169983  14.0080004  52.3450012  42.8110008  15.1350002
  66.6279984  35.3359985  15.7329998  67.4100037  35.9080009  15.8240004
  65.9319992  35.9360008  16.1009998  55.7729988  41.5870018  14.0769997
  56.2360001  42.3730011  13.7040005  54.9760017  41.6329994  13.4320002
  59.1450005  29.6849995  21.4009991  59.7599983  30.2759991  21.7889996
  59.4720001  29.4979992  20.5540009  33.0190010  11.5240002  63.9949989
  33.1529999  11.6470003  63.0460014  32.7439995  10.5909996  64.0400009
  59.3979988  38.9220009  22.3360004  59.4189987  38.1730003  22.9990005
  60.2050018  39.4309998  22.6259995  46.8870010  34.6240005  18.7889996
  47.0270004  34.0289993  17.9990005  47.7840004  34.7849998  19.0499992
  57.5410004  37.2029991   5.9889998  57.4500008  37.8660011   6.7360001
  57.9690018  37.8629990   5.3290000  64.5619965  40.5730019  20.6940002
  65.3799973  40.1790009  21.1210003  64.8870010  41.4949989  20.6350002
  62.6539993  39.4900017  13.2290001  62.7809982  39.1660004  14.1309996
  61.7490005  39.8489990  13.3310003  45.0569992  34.5340004   7.6350002
  45.1040001  34.6559982   6.6980000  44.1069984  34.4049988   7.8000002
  58.1640015  44.1749992   8.6610003  58.6529999  45.0200005   8.6020002
  58.8269997  43.5000000   8.4919996  49.2610016  38.8250008   4.6950002
  48.5909996  39.0149994   5.3480000  49.6399994  37.9539986   5.0349998
  62.4889984  32.7280006  18.9190006  62.4930000  33.5139999  19.5009995
  61.6730003  32.9539986  18.4160004  36.3530006  27.3509998  15.4680004
  36.9900017  26.6940002  15.1549997  35.5309982  26.8309994  15.4340000
  32.5149994   6.3070002  64.1829987  33.2220001   5.6469998  63.9959984
  32.0870018   6.3039999  63.3390007  28.8850002   4.2100000  59.1370010
  28.1250000   3.7330000  59.5810013  28.6860008   5.1399999  59.2410011
  63.9500008  33.5379982   9.1510000  63.4259987  33.5760002   9.9569998
  64.5830002  34.2579994   9.3400002  61.4329987  44.2140007  18.5359993
  61.2089996  43.2799988  18.7770004  62.3400002  44.0320015  18.2730007
  61.3199997  34.4370003  22.7019997  61.7430000  35.1980019  23.1660004
  60.4589996  34.4360008  23.2089996  54.7379990  43.2070007   4.1939998
  54.8660011  42.9939995   3.2400000  53.7550011  43.4199982   4.1690001
  46.5499992  36.2630005   9.2440004  47.1510010  35.7210007   9.8529997
  46.0320015  35.5880013   8.8109999  71.2129974  32.3829994  17.8419991
  72.1959991  32.1769981  17.9680004  71.1630020  32.0999985  16.8829994
  51.7319984  52.1899986  12.2650003  52.5670013  51.9199982  11.8149996
  51.4729996  52.9389992  11.7489996  62.4169998  39.0439987  19.3880005
  62.1329994  38.4500008  20.0769997  63.0359993  39.5950012  19.8729992
  73.6740036  29.1819992   9.0900002  72.9349976  29.2469997   8.4359999
  73.9690018  28.2460003   8.8850002  33.4860001   9.2690001  66.9059982
  34.1710014   9.9829998  66.8140030  32.9220009   9.6479998  67.5709991
  65.2939987  48.0709991  17.5349998  64.3430023  48.1419983  17.6770000
  65.5459976  47.4770012  18.2970009  51.7099991  41.1479988   8.2770004
  50.9529991  40.5169983   8.3330002  52.1879997  40.9039993   9.1280003
  56.7480011  31.0990009  14.3190002  56.8489990  30.1630001  14.4700003
  57.6870003  31.3810005  14.1910000  46.9529991  30.8250008  19.2450008
  47.5000000  31.4750004  18.6369991  47.2989998  29.9869995  18.8020000
  53.2999992  44.9529991   7.0780001  52.9140015  44.7550011   7.9270000
  54.2309990  44.9980011   7.2040000  55.1780014  53.5940018  14.6160002
  55.5690002  52.7350006  14.7290001  54.9440002  53.6020012  13.6719999
  44.9189987  31.4990005   5.8130002  45.1640015  31.1459999   6.6890001
  45.3400002  30.9500008   5.1789999  54.4020004  46.8120003  22.8269997
  55.1209984  47.4430008  23.1210003  54.4389992  46.1920013  23.6159992
  45.2529984  46.3559990   4.5590000  45.8269997  46.3429985   3.7470000
  44.7560005  45.5369987   4.4530001  46.6889992  57.3709984   5.0510001
  46.6389999  56.6730003   5.7620001  46.0660019  58.0379982   5.4219999
  45.1559982  39.8650017   6.6690001  45.4650002  39.4300003   7.4549999
  44.9830017  39.1419983   6.0730000  54.5849991  49.8580017   7.6599998
  53.9879990  50.4020004   8.1389999  54.1010017  49.2249985   7.1719999
  51.5639992  36.8730011  -1.8800000  52.2190018  36.3260002  -1.4040000
  51.7519989  36.6320000  -2.8000000  54.1809998  64.1819992  12.4440002
  54.1899986  63.3730011  11.8780003  53.9360008  64.8509979  11.7010002
  47.1279984  38.5270004  12.4130001  47.0089989  38.8619995  13.3059998
  46.1720009  38.3989983  12.1199999  45.7109985   7.9289999  68.3619995
  45.2280006   7.9130001  67.5449982  46.5309982   8.4540005  68.0729980
  58.4210014  39.2700005  16.7539997  58.7019997  40.0379982  17.2129993
  57.4399986  39.2299995  16.9209995  48.8660011  29.6369991  15.0979996
  49.1570015  30.3199997  14.4259996  49.3989983  30.0189991  15.8509998
  52.4589996  35.9700012   7.6459999  53.3440018  36.4160004   7.7329998
  51.9790001  36.2869987   8.4280005  49.3810005  39.7739983   8.1610003
  48.6580009  40.1150017   7.6620002  49.4319992  38.8359985   8.0059996
  52.0359993  38.9889984  18.5349998  52.6170006  38.7560005  17.7530003
  52.6090012  38.7630005  19.2859993  54.6399994  30.2749996  18.8939991
  55.2330017  29.4599991  18.9410000  55.0880013  30.8290005  19.5349998
  43.0699997  23.2660007  19.7019997  43.4490013  23.2420006  18.8309994
  42.5060005  24.0529995  19.7189999  64.3050003  37.2379990  14.8500004
  64.1750031  37.3450012  15.7980003  63.7999992  36.3870010  14.7379999
  38.1759987  41.8959999  13.4399996  38.9179993  41.3639984  13.8140001
  38.2589989  41.6409988  12.4910002  47.5089989  24.8929996   2.6780000
  48.4650002  25.0949993   2.5699999  47.5999985  23.9400005   2.9730000
  50.6969986  31.7250004   4.8790002  50.5040016  32.6930008   4.9790001
  51.6529999  31.8799992   4.5560002  56.7190018  39.2430000   3.0239999
  56.7719994  39.9389992   2.3069999  57.5519981  39.4790001   3.5230000
  34.3149986  13.4860001  69.5270004  34.6870003  13.8599997  68.7060013
  34.0419998  14.3149996  69.9589996  43.4910011  40.5589981  10.9750004
  44.1209984  41.2820015  11.3230000  43.2560005  40.9910011  10.1459999
  31.1860008  13.8129997  69.7880020  31.6539993  13.1899996  69.1689987
  31.7600002  13.7170000  70.5619965  50.7980003  53.9230003  18.5130005
  51.3209991  53.0159988  18.5599995  50.7620010  54.0730019  19.4810009
  52.5089989  39.3660011  10.3570004  52.4570007  38.6870003   9.6910000
  53.5200005  39.5320015  10.3400002  19.3040009  19.5769997  67.5490036
  19.6159992  19.5779991  68.4720001  19.6550007  20.4130001  67.2529984
  45.2130013  48.3289986   6.3410001  45.1469994  47.6279984   5.6170001
  45.1500015  47.6689987   7.0749998  49.9830017  30.7220001  17.4419994
  50.2140007  30.1119995  18.2159996  50.8479996  31.1809998  17.4689999
  61.8580017  48.7350006  12.5030003  61.3849983  48.8079987  11.6160002
  61.2529984  49.3219986  13.0260000  66.1470032  42.9329987  20.9200001
  67.0530014  42.6380005  21.0709991  66.1179962  42.8390007  19.9139996
  39.8019981  53.1290016   1.8820000  38.8750000  53.3310013   2.2240000
  39.5970001  52.7949982   0.9730000  66.2750015  42.0070000  10.6090002
  65.7870026  41.1030006  10.7980003  65.4520035  42.5369987  10.6859999
  60.3870010  35.3260002  13.8739996  60.3120003  36.0099983  14.5340004
  59.8619995  35.6870003  13.1219997  66.8330002  40.2089996  23.9340000
  67.2020035  40.2910004  23.0119991  66.3610001  39.3750000  23.8689995
  50.8359985  15.1169996  71.0699997  50.2109985  14.4540005  71.3580017
  51.1329994  15.4460001  71.9459991  62.6440010  47.4669991   8.5369997
  63.1209984  46.6679993   8.2609997  63.3019981  48.1739998   8.3109999
  57.3450012  39.2150002  13.3210001  56.9350014  40.0429993  13.7100000
  58.2939987  39.4269981  13.5760002  45.8489990  38.7229996  14.9219999
  44.9749985  38.3139992  14.9790001  46.3839989  37.9900017  15.2539997
  38.0229988  36.2610016  -1.4720000  37.8610001  35.9760017  -2.4370000
  37.5330009  35.5349998  -1.0150000  64.2350006  10.8100004  13.1949997
  63.7470016  10.1920004  12.5710001  64.1210022  11.6250000  12.6870003
  39.7410011   9.9899998  59.1489983  39.5390015   9.1359997  59.6650009
  39.3160019   9.6879997  58.3139992  62.7529984  36.9379997  11.3879995
  62.6180000  37.8639984  11.7639999  62.3499985  36.4099998  12.0520000
  53.1310005  29.2140007  16.8999996  52.3919983  29.8490009  17.0489998
  53.7879982  29.5730000  17.5230007  51.0859985  31.9060001  -4.4749999
  51.9690018  31.6380005  -4.8369999  51.1310005  32.8639984  -4.6810002
  34.7649994   0.3600000  60.8909988  34.0540009   0.4990000  60.2779999
  34.4949989  -0.4550000  61.3699989  61.2140007  29.9909992  19.0359993
  60.3530006  30.3250008  18.5529995  61.6590004  30.8780003  19.0569992
   5.2470002  54.4399986  61.6910019   5.7659998  55.1749992  61.5330009
   5.0730000  53.9700012  60.8610001  64.4899979  37.3110008  17.8139992
  63.7200012  37.8440018  18.1690006  63.9189987  36.5169983  17.5830002
  52.6899986  21.5970001  18.5559998  52.6090012  22.4549999  18.1089993
  52.3979988  21.7639999  19.4720001  75.1890030  37.8940010  13.8909998
  75.8909988  38.4990005  14.1929998  75.0879974  38.2890015  12.9940004
  71.0289993  45.0639992  20.8430004  71.8000031  44.4840012  20.9029999
  71.3369980  45.5839996  20.1009998  53.2929993  39.0660019  16.0300007
  52.9249992  39.9179993  15.6829996  53.2989998  38.5620003  15.1700001
  43.2519989  31.0860004  -4.4990001  42.6399994  31.6709995  -3.9340000
  42.9869995  30.2070007  -4.2040000  45.3450012  36.9840012  20.3680000
  45.8959999  37.3969994  19.6860008  45.8810005  36.2179985  20.6420002
  62.9360008  31.3810005   2.0439999  63.4129982  31.2269993   2.8269999
  62.8930016  30.5529995   1.6080000  56.0320015  33.4930000  15.9230003
  56.2260017  32.5589981  15.5419998  55.8680000  33.9529991  15.1180000
  51.6959991  38.1320000   0.6610000  52.6619987  38.3310013   0.6590000
  51.6030006  37.7760010  -0.2680000  53.5779991  38.2560005  20.9950008
  52.9850006  38.5719986  21.7299995  53.3479996  37.2910004  21.0170002
  61.9179993  30.2479992  11.6829996  62.6479988  29.5979996  11.7860003
  61.1489983  29.6660004  11.8400002  47.8950005  41.9350014  14.4099998
  48.6269989  41.4420013  14.7040005  47.2179985  41.7700005  15.1129999
  42.8250008  35.8800011  19.0389996  42.3660011  36.6650009  18.7639999
  43.7150002  36.2280006  19.2280006  43.8790016  43.2439995  15.8780003
  43.0359993  43.1220016  16.3269997  43.6269989  43.9329987  15.1850004
  10.1140003  65.8730011  63.1419983   9.7390003  64.9960022  63.0000000
  10.4300003  66.0230026  62.1910019  36.9650002   8.2570000  63.7519989
  37.5979996   7.9829998  63.1160011  36.5299988   7.4850001  64.0950012
  61.2080002  43.1020012  10.3030005  62.1539993  43.2849998  10.1560001
  61.1790009  42.1100006  10.2959995  59.8889999  42.1570015  15.8959999
  59.1469994  42.7299995  16.0860004  60.2879982  42.7010002  15.1429996
  46.9970016  37.1419983   5.7779999  46.1259995  37.3269997   5.3909998
  47.2589989  36.4930000   5.0819998  63.6119995  41.9259987   8.4580002
  63.7729988  40.9939995   8.5710001  64.0709991  42.3400002   9.2410002
  72.2009964  39.4239998  12.7279997  73.1510010  39.6940002  12.5839996
  71.7779999  40.2949982  12.8760004  71.5950012  45.8110008  17.4580002
  71.3249969  46.7239990  17.7530003  71.5520020  45.9809990  16.4680004
  57.5110016  43.3260002  16.3880005  56.6110001  42.9239998  16.5359993
  57.4290009  43.5730019  15.4480000  43.4389992   5.2199998  64.6159973
  42.7169991   4.5460000  64.7870026  44.1430016   4.6310000  64.2630005
  42.2719994   7.0209999  65.9950027  42.9249992   6.4619999  65.5260010
  42.8429985   7.8720002  66.0339966  50.2130013  46.5419998  12.0799999
  49.6320000  46.8909988  11.3950005  51.0670013  46.8089981  11.7180004
  57.3670006  47.2039986  28.1520004  57.4449997  47.8779984  28.8630009
  57.7560005  47.6800003  27.3859997  60.0779991  37.2400017  16.0580006
  60.8510017  37.8129997  16.1240005  59.4029999  37.8629990  16.3600006
  58.8800011  41.6850014  19.4930000  59.7490005  41.7200012  19.9449997
  58.2680016  41.4650002  20.1860008  62.4679985  42.8339996  23.1299992
  63.1850014  43.3839989  22.8260002  62.9480019  42.0099983  23.4599991
  58.5040016  31.4270000   4.2220001  58.8419991  31.6259995   3.3480000
  57.7280006  30.8010006   4.0250001  76.2389984  50.5279999  19.1499996
  75.5120010  50.2470016  19.7439995  76.6650009  51.1870003  19.7660007
  60.8930016  45.5250015   6.0310001  61.4490013  45.8779984   5.2420001
  60.3129997  44.9290009   5.4920001  25.8409996  23.1900005  61.0359993
  25.5790005  22.2779999  61.2529984  26.6170006  22.9470005  60.4020004
  62.8320007  53.8680000  16.1830006  63.5610008  54.4830017  16.4839993
  62.3089981  53.8349991  16.9860001  58.7070007  55.6769981   9.2609997
  58.4809990  56.5489998   9.5200005  57.8600006  55.1860008   9.0340004
  59.6250000  59.9399986  13.9659996  59.0139999  59.7709999  13.2259998
  59.9300003  59.0040016  14.1450005  32.0989990  23.5139999  68.1839981
  31.2479992  23.0979996  67.9690018  32.6949997  22.7080002  68.1959991
  37.2319984   6.4470000  61.6980019  36.2190018   6.3899999  61.7669983
  37.4550018   5.8260002  62.4659996  58.4679985  52.1419983  21.3020000
  58.6539993  51.8680000  20.3869991  58.3660011  51.2630005  21.7689991
  68.4860001  50.8050003  16.0300007  68.4720001  49.8069992  16.0219994
  67.7089996  50.9140015  16.6980000  72.1650009  43.3069992  17.5690002
  71.8580017  44.1889992  17.7409992  72.9909973  43.2919998  18.1399994
  63.0429993  62.3670006  15.0430002  62.1920013  62.0219994  15.3970003
  63.6769981  61.9239998  15.5979996  38.0270004   4.4790001  67.0240021
  38.5250015   4.7370000  67.8239975  38.6199989   4.7579999  66.3020020
  74.8270035  53.5670013  18.1639996  75.6490021  54.0359993  17.8689995
  75.0859985  53.4370003  19.1149998  52.4449997  61.7719994  16.1569996
  52.0639992  60.9850006  16.6000004  53.3470001  61.4990005  16.0249996
  59.6969986  47.0670013  24.5769997  60.2949982  47.6920013  24.0270004
  59.2239990  46.5940018  23.8799992  45.0040016  13.8820000  61.7529984
  44.6180000  13.6490002  62.6030006  44.2120018  14.2950001  61.3209991
  65.6880035  57.7939987  16.8670006  65.3939972  58.4980011  17.5799999
  66.6399994  58.0569992  16.9109993  74.0500031  55.7750015  27.5109997
  73.7429962  55.4879990  28.3759995  74.5380020  56.5639992  27.6550007
  64.8079987  59.1539993  21.3729992  64.4039993  59.1310005  22.2929993
  65.6880035  58.7910004  21.5690002  66.1859970  63.8709984  32.1800003
  66.2549973  62.8660011  32.3759995  66.0130005  63.7890015  31.2140007
  75.0100021  49.4259987  26.0790005  75.5869980  49.6809998  26.7889996
  74.3960037  48.7750015  26.4599991  73.0019989  51.7750015  19.9150009
  73.2149963  52.4129982  19.2129993  72.8899994  52.3510017  20.6910000
  64.9690018  55.2529984  13.9259996  64.8089981  54.5089989  13.2889996
  64.0299988  55.4819984  14.0939999  69.7429962  43.8320007  15.6490002
  69.6250000  42.9109993  15.4899998  70.6959991  43.8670006  15.8809996
  40.3400002  23.6919994  67.4260025  40.8650017  22.9769993  67.0009995
  40.7989998  23.7029991  68.3089981  47.2379990  15.8430004  69.1989975
  47.8040009  16.4629993  69.6549988  47.2639999  16.2590008  68.2720032
  51.8050003  52.0950012  23.9090004  52.2910004  52.2960014  24.7329998
  52.3660011  52.4869995  23.2220001  58.4160004  56.7570000  12.6190004
  57.9659996  57.2019997  11.8959999  57.7239990  56.6699982  13.3299999
  41.9650002  15.8310003  74.9420013  42.9570007  15.6110001  74.8769989
  41.8790016  15.7799997  75.9290009  60.0750008  50.8940010   8.8680000
  59.1529999  50.8619995   8.5400000  60.2929993  51.8349991   8.8140001
  69.8939972  60.0050011  19.1000004  70.6250000  60.6959991  19.0599995
  69.8000031  60.0099983  20.0690002  56.1539993  51.5000000  25.5990009
  56.2700005  51.1590004  26.5400009  56.0270004  52.4550018  25.8360004
  52.7010002  57.8160019  10.2349997  53.4580002  57.9990005   9.6719999
  52.9010010  58.4259987  10.9610004  35.3559990  25.0319996  66.5510025
  35.8680000  25.6989994  67.1100006  34.4599991  25.3059998  66.7600021
  28.8180008  18.4440002  71.4560013  28.6200008  17.5550003  71.8740005
  27.9330006  18.7450008  71.2549973  65.0410004  45.4739990  26.2000008
  64.0960007  45.5200005  26.4349995  65.0149994  44.6030006  25.7089996
  58.3440018  48.7949982  26.0730000  58.8989983  48.0999985  25.5979996
  57.6730003  48.9490013  25.3980007  70.8649979  63.4440002  27.0119991
  70.7379990  63.1549988  27.9239998  70.0759964  63.1459999  26.5650005
  44.2770004  30.0489998  67.1320038  45.1450005  30.3169994  67.5360031
  44.5499992  29.8540001  66.2399979  67.2910004  57.9770012  24.8560009
  67.7880020  57.1100006  24.8540001  67.1699982  58.0670013  25.8099995
  63.8740005  60.2960014  27.0590000  64.2220001  61.1580009  26.7840004
  64.5339966  60.0120010  27.6889992  74.2979965  42.0629997  13.0310001
  73.9670029  42.6559982  12.3009996  73.5680008  42.2439995  13.6680002
  66.3870010  62.1329994  19.0380001  67.0419998  62.3779984  18.4039993
  65.9990005  61.3120003  18.6250000  45.4860001  15.8009996  71.3499985
  45.8489990  15.5640001  70.4140015  44.5419998  15.6180000  71.0869980
  72.8199997  43.4199982  14.9270000  72.6129990  43.3199997  15.9049997
  73.2210007  44.3089981  14.9670000  65.6139984  50.0499992  12.1420002
  66.5199966  49.8549995  12.5410004  65.7949982  49.8889999  11.1809998
  71.3870010  52.9529991  11.9560003  71.1999969  53.7939987  12.4329996
  71.0810013  52.3160019  12.6580000  35.1250000   6.9749999  67.0729980
  34.4589996   7.6320000  66.9130020  35.6769981   7.4200001  67.7860031
  62.3680000  57.1749992  12.0209999  62.3530006  56.2430000  11.8859997
  63.2649994  57.4539986  11.7430000  56.2490005  44.8240013   5.6100001
  55.9029999  44.2659988   4.9130001  57.0870018  44.3390007   5.8169999
  49.1090012  22.0219994  77.8690033  48.6059990  21.2199993  78.1190033
  49.6139984  22.1849995  78.7200012  70.7129974  47.0480003   9.5019999
  70.0080032  46.7500000  10.1429996  71.4130020  46.4049988   9.6870003
  66.6060028  50.5670013  17.7609997  66.2330017  49.7109985  17.4150009
  65.9530029  50.7509995  18.4540005  60.4930000  48.2029991  15.7370005
  59.7949982  48.3619995  15.0869999  60.3269997  47.2669983  15.9779997
  45.0960007  25.7689991  71.3479996  45.5970001  25.6469994  72.2399979
  44.3899994  25.1620007  71.5400009  48.8260002  11.1330004  74.3259964
  47.9920006  11.4670000  74.6770020  49.2360001  10.8330002  75.1699982
  65.0149994  59.9700012  18.0620003  64.0599976  59.9199982  17.9689999
  65.2239990  60.4230003  17.2110004  62.4259987  59.8050003  17.8029995
  61.8009987  60.3510017  18.3500004  61.9580002  58.9650002  17.9029999
  53.5880013  13.1890001  71.8300018  52.6839981  12.8579998  71.6460037
  53.7150002  13.8909998  71.1640015  45.8450012  46.0750008   2.0890000
  46.4010010  46.8450012   1.8190000  46.4710007  45.3650017   2.1020000
  42.7050018  27.8799992  75.5410004  43.3860016  28.5869999  75.5970001
  43.1590004  27.1819992  75.0439987  52.8100014  47.9259987  20.9599991
  53.3769989  47.5040016  21.6270008  52.5250015  48.7389984  21.4270000
  62.6889992  52.5499992  19.3999996  62.4010010  52.7999992  20.3290005
  61.8260002  52.3820000  19.0349998  62.9410019  46.5929985  21.3729992
  63.5820007  45.9119987  21.7409992  62.1080017  46.1780014  21.6669998
  45.2680016  25.6980000  75.9580002  45.0769997  24.8160000  76.3089981
  45.4640007  26.2099991  76.7730026  68.3600006  44.9339981  18.3390007
  69.0469971  44.8409996  17.6650009  68.7710037  44.5070000  19.0890007
  67.3000031  54.4799995  14.9399996  66.3499985  54.7779999  14.7189999
  67.0810013  54.2150002  15.9010000  45.2369995  17.5669994  73.2770004
  45.3429985  17.0009995  72.4830017  44.4329987  18.0359993  73.0820007
  69.8779984  55.0509987  20.9360008  69.1299973  54.4669991  21.2500000
  70.1289978  55.5480003  21.7129993  31.0900002  19.6420002  71.1060028
  30.1459999  19.3770008  71.3190002  31.2859993  20.1299992  71.9079971
  58.5530014  69.8830032  24.0639992  57.6959991  70.1760025  24.4699993
  58.4189987  68.8939972  24.0489998  63.1669998  48.4959984  19.4239998
  62.2029991  48.6599998  19.2269993  63.1030006  47.7669983  20.0459995
  72.7239990  54.2900009  29.7110004  72.9520035  53.4090004  29.5380001
  72.4260025  54.3320007  30.6250000  61.7500000  39.3310013  16.6320000
  61.7509995  40.2690010  16.4139996  61.7929993  39.3779984  17.6009998
  41.7610016  20.1030006  69.8050003  42.3349991  20.6210003  69.1259995
  42.4760017  19.5189991  70.1579971  67.1900024  57.8460007  22.2259998
  67.0490036  57.8079987  23.2129993  66.7399979  57.0099983  22.0130005
  70.3040009  53.0029984  23.9480000  69.3840027  52.7830009  23.7399998
  70.7409973  52.1269989  23.9169998  38.2840004  22.1849995  69.6480026
  38.4379997  22.1420002  68.7009964  38.5190010  23.1189995  69.8010025
  67.1039963  40.8750000   3.3580000  67.8040009  40.4550018   3.8750000
  67.5100021  41.7389984   3.1080000  60.7220001  51.1990013  17.5209999
  60.0540009  51.7700005  17.1849995  61.2919998  50.9930000  16.7460003
  71.3629990  45.7029991  23.9069996  70.5130005  45.2719994  24.0160007
  71.9479980  44.8559990  24.0200005  71.6050034  53.7820015  14.9650002
  71.7259979  54.4410019  14.2390003  72.5370026  53.3709984  14.9670000
  64.0640030  75.6080017  22.5730000  64.0889969  76.2279968  23.3400002
  63.3829994  74.9589996  22.9589996  76.6979980  44.4749985  12.1079998
  76.7310028  43.7239990  12.7299995  76.5810013  44.0299988  11.2430000
  58.5870018  52.2840004  16.4020004  58.1020012  51.5029984  16.0559998
  58.5979996  52.8549995  15.6280003  63.1720009  57.1759987  15.3409996
  62.5800018  57.1570015  16.0799999  63.7690010  57.8899994  15.5070000
  30.5730000  23.8250008  65.5210037  31.2259998  24.3390007  65.0019989
  31.0790005  23.0720005  65.7330017  57.2179985  54.5079994  21.3199997
  56.6899986  53.9160004  21.8969994  57.7659988  53.7709999  20.9220009
  37.3460007  34.6870003  81.9390030  36.9269981  35.1759987  82.5960007
  37.2849998  33.7599983  82.2919998  53.7989998  48.5820007  13.9309998
  54.1419983  48.4109993  14.8559999  54.3790016  47.9669991  13.4259996
  59.8450012  39.9290009  14.3260002  59.8989983  40.7719994  14.8079996
  59.5940018  39.3209991  15.0860004  44.3160019  13.6700001  74.7819977
  44.8349991  12.8940001  75.0569992  44.5000000  14.2580004  75.5869980
  45.7350006  12.2030001  69.6839981  46.4879990  12.7440004  69.3209991
  46.1640015  11.8090000  70.4459991  64.0070038  43.3149986  10.7290001
  63.9469986  43.2309990  11.7729998  63.9070015  44.3089981  10.7259998
  41.1570015  24.6280003  70.0210037  41.5859985  24.5709991  70.9110031
  40.2400017  24.4069996  70.3320007  56.4049988  44.9949989  27.1569996
  56.8709984  45.8289986  27.4029999  57.1609993  44.4280014  27.0650005
  48.6990013  51.6339989   5.8499999  48.2350006  51.1059990   6.5580001
  49.5680008  51.8059998   6.3439999  65.7529984  46.8860016  15.1639996
  65.1439972  47.6030006  14.8240004  65.7020035  47.0820007  16.1310005
  63.7830009  43.0559998  17.3560009  64.5240021  43.0449982  18.0240002
  64.1470032  42.3499985  16.7929993  68.8759995  36.8359985  15.7650003
  69.4530029  36.0919991  15.5439997  69.1019974  37.5040016  15.1820002
  66.4179993  51.5009995   9.0559998  66.9960022  52.2350006   9.3940001
  67.0380020  50.7350006   9.0979996  42.8979988  15.5080004  70.9929962
  42.4000015  15.3210001  70.1800003  42.7680016  14.6809998  71.4980011
  58.9129982  54.0029984  11.5100002  58.8170013  54.9410019  11.7959995
  59.1689987  54.0670013  10.6079998   2.1220000  39.5470009  24.3840008
   1.2270000  39.8170013  24.0620003   2.6280000  39.7159996  23.5459995
  64.2549973  54.8540001  19.8260002  63.8450012  53.9790001  19.6720009
  64.5999985  55.0789986  18.9850006  59.4510002  67.5899963  20.8180008
  59.6040001  66.6399994  20.9340000  59.9840012  67.8750000  21.6200008
  54.2200012  37.7750015   3.3050001  55.0870018  38.2280006   3.1480000
  54.0769997  37.3069992   2.4860001  63.9930000  52.9739990  12.3730001
  64.4710007  52.2000008  12.2469997  63.3429985  52.6879997  13.0260000
  51.0250015  52.4039993  31.2000008  50.8450012  52.1889992  32.1209984
  50.3059998  53.0670013  31.0200005  66.1610031  57.5730019  14.3889999
  65.9670029  57.5209999  15.3269997  65.5640030  56.8339996  14.0990000
  58.2799988  41.0180016  10.7100000  57.9259987  40.5919991   9.9379997
  57.8569984  40.5629997  11.4600000  51.0530014  26.3719997  74.5100021
  51.3129997  25.5620003  74.9219971  51.1240005  27.0259991  75.2200012
  18.4570007  25.5620003  68.9589996  18.5200005  24.9799995  68.1569977
  19.4249992  25.6229992  69.1719971  73.7180023  49.0639992  29.4580002
  73.9049988  48.6529999  28.5370007  73.3820038  49.9510002  29.1369991
  70.2850037  53.3040009  17.5949993  70.9639969  53.9210014  17.9990005
  70.6839981  53.2799988  16.6620007  73.7480011  43.2789993  10.4020004
  73.6470032  44.2560005  10.5509996  74.0230026  43.2669983   9.4639997
  76.7210007  46.8489990  21.9099998  77.3820038  46.4420013  22.4570007
  77.2249985  47.1110001  21.0860004  62.0929985  25.3640003  77.0469971
  62.1380005  26.3090000  77.2839966  61.4119987  25.0569992  77.6859970
   2.8740001  58.2210007  21.9820004   3.8090000  58.3660011  21.6219997
   2.4449999  58.1189995  21.0459995  71.0680008  50.5309982  18.3540001
  71.6640015  50.9230003  19.0090008  70.4810028  51.3170013  18.2180004
  36.7200012  25.3589993  72.6859970  36.2890015  25.1639996  73.5609970
  36.6220016  26.3670006  72.6859970  73.8270035  39.9329987   7.8979998
  73.2070007  39.6889992   8.6780005  74.6259995  39.4720001   8.3579998
  54.9059982  46.5820007  12.2749996  55.1850014  45.6080017  12.2399998
  54.1949997  46.5209999  11.5539999  65.9860001  46.6720009  12.2570000
  65.4420013  46.4249992  11.5200005  65.3310013  47.0639992  12.8850002
  61.0579987  48.6580009  23.2970009  61.5439987  49.3829994  23.7819996
  61.7060013  48.2799988  22.7040005  74.0569992  48.9010010  15.7639999
  74.2630005  49.8470001  15.9870005  73.9520035  48.5130005  16.6700001
  75.0930023  51.1220016  16.7919998  74.7929993  52.0460014  16.6840000
  75.5289993  51.1650009  17.6840000  70.1900024  48.0139999  18.3859997
  70.6159973  48.9189987  18.2390003  70.1309967  48.1180000  19.3889999
  52.5200005   7.3720002  74.7239990  53.1640015   6.9450002  75.3249969
  51.7929993   6.5929999  74.7639999   1.0400000  45.3959999  15.9770002
   1.4890000  44.8530006  16.6980000   0.6510000  46.0719986  16.5779991
  75.5930023  57.4609985  22.6650009  76.3570023  56.8240013  22.8649998
  75.0910034  57.3400002  23.5249996  64.9589996  64.4400024  18.3509998
  65.6750031  63.8380013  18.5970001  64.1780014  63.8349991  18.2859993
  58.7919998  48.3320007  13.4010000  58.2509995  47.8409996  12.7130003
  59.1469994  49.0029984  12.7819996  62.0919991  41.6860008   2.8759999
  61.6380005  42.5149994   2.6410000  62.9309998  41.8320007   2.3770001
  20.5200005  73.8209991  68.7900009  19.9440002  73.1689987  69.2500000
  20.3090000  74.6060028  69.3470001  75.5879974  51.1619987  23.7940006
  75.6019974  50.6650009  24.6919994  76.5019989  50.8870010  23.4810009
  60.8030014  61.3009987  19.4829998  60.1899986  60.7319984  20.0370007
  60.1669998  61.8800011  19.0109997  49.4580002   6.2519999  70.5999985
  49.2120018   7.1450000  70.3270035  50.4140015   6.2690001  70.6650009
  68.2509995  47.1759987  14.2130003  68.2119980  47.5740013  15.1540003
  67.3489990  46.7960014  14.1969995  52.6809998  64.7740021  14.4709997
  53.1889992  64.5009995  13.6409998  52.5200005  65.6900024  14.1599998
  63.9850006  64.3580017  23.7560005  63.4300003  63.5779991  24.0249996
  64.8619995  64.0360031  23.6560001  69.7890015  61.7280006  23.2290001
  69.6019974  62.0120010  22.2910004  69.4899979  62.4819984  23.6980000
  70.6159973  62.1699982  16.5769997  70.6429977  61.2120018  16.4559994
  70.9830017  62.2529984  17.4629993  35.2680016  14.0690002  67.1880035
  35.0509987  13.1429996  66.9449997  34.5410004  14.5660000  66.8359985
  45.6570015  15.6120005  64.7990036  45.2470016  15.2170000  65.6210022
  45.1510010  15.1549997  64.1279984  23.3220005  68.9229965  70.1090012
  24.0440006  68.5719986  70.6439972  22.9449997  68.1060028  69.7440033
  58.9879990  57.7639999  17.0450001  59.0349998  57.6010017  16.0849991
  59.9739990  57.8479996  17.2280006  25.1779995  29.5249996  68.5080032
  25.6569996  29.0550003  67.7949982  24.5380001  28.7759991  68.7939987
  52.6469994  52.8440018  26.2570000  53.2340012  53.4739990  26.7740002
  52.6180000  52.1399994  26.9939995  76.9749985  63.2410011  23.8369999
  77.6100006  62.5029984  23.9300003  76.1989975  62.8180008  23.4640007
  64.3020020  49.4729996   7.7830000  65.0930023  49.1080017   8.2010002
  64.2689972  50.3429985   8.1490002  42.6269989  18.1019993  71.7429962
  42.6040001  17.2320004  71.2699966  41.8629990  17.9540005  72.3499985
  47.8139992  25.0839996  61.3880005  47.2910004  25.2549992  60.5509987
  48.5359993  25.7329998  61.2690010  79.5619965  44.5149994  23.0359993
  79.1320038  43.6549988  22.7849998  80.4869995  44.2070007  23.0650005
  64.5999985  50.6259995  19.6089993  64.1490021  49.7700005  19.4480000
  63.8829994  51.2420006  19.3899994  58.7210007  32.5719986  80.7089996
  59.4519997  32.1669998  81.1930008  59.2470016  33.0660019  80.0329971
  74.3519974  63.7010002  27.6320000  74.3960037  64.6129990  27.2240009
  73.8359985  63.2589989  26.8770008  67.5159988  54.4840012  17.7600002
  67.7740021  55.2779999  18.3029995  68.1869965  53.8190002  17.9610004
   4.8709998  68.6620026  23.8859997   4.8140001  69.6009979  23.6320000
   5.8520002  68.5739975  24.1469994  64.9759979  71.2109985  20.7460003
  64.9049988  70.3059998  20.2719994  65.6969986  71.0370026  21.3770008
  69.0960007  63.7729988  29.4979992  69.2559967  64.2969971  30.3209991
  68.3099976  64.2939987  29.1620007  35.6230011  26.5279999  78.2460022
  36.0159988  25.7619991  78.7809982  36.4080009  26.6119995  77.6510010
  56.0110016  25.5610008  78.6740036  56.3600006  24.7169991  78.3539963
  55.0699997  25.3439999  78.7239990  75.2419968  67.1650009  24.1329994
  75.8899994  66.7220001  23.5590000  74.5390015  67.3229980  23.4680004
  49.6889992  28.9260006  80.3320007  49.8510017  28.7719994  81.2750015
  50.3349991  28.4379997  79.8639984  54.7379990  60.6139984  24.9190006
  53.9780006  61.2340012  25.1380005  55.4269981  61.2890015  25.0009995
  63.8810005  68.1729965  26.9740009  63.5449982  67.3089981  26.5939999
  64.3460007  67.7679977  27.7759991  56.1049995  70.2539978  25.0400009
  55.4099998  69.6660004  24.6509991  56.0190010  70.1110001  25.9920006
  66.0410004  60.2070007  28.8789997  65.4380035  60.1629982  29.6369991
  66.7699966  60.7260017  29.1959991  46.5779991  16.1889992  75.2220001
  46.0460014  16.8630009  74.7480011  45.9280014  16.0529995  75.9479980
  75.3379974  64.1930008  30.5160007  76.3330002  64.2850037  30.5060005
  75.1470032  64.4649963  29.6100006  74.1439972  62.9230003  23.4220009
  73.8560028  62.1040001  23.0119991  73.6610031  62.8089981  24.2959995
  31.1259995  30.6840000  77.0299988  30.6389999  31.4419994  77.3830032
  31.3990002  30.2380009  77.8840027   4.8690000  59.9449997  24.5230007
   4.0400000  60.3590012  24.9810009   4.6919999  59.0410004  24.5590000
  19.8980007  74.8430023  13.3339996  20.3889999  74.4889984  12.5459995
  19.0030003  75.0500031  12.8839998   9.3920002  39.0000000  70.4489975
   8.6040001  39.1020012  69.8990021   9.3669996  39.7999992  71.0240021
  49.3129997   9.8809996   8.3030005  49.2779999  10.1730003   7.3940001
  49.0289993  10.7069998   8.7340002  66.1579971  34.6990013  70.4179993
  65.9540024  34.3829994  71.3180008  66.9779968  35.2439995  70.5889969
   4.3979998  43.2509995  70.2259979   4.8309999  42.4259987  70.2009964
   3.4410000  43.0470009  70.3919983  51.1800003   8.4610004  16.3820000
  50.5849991   8.5799999  17.1520004  52.0540009   8.5959997  16.8040009
  48.5449982   0.7850000  10.8420000  49.1539993   0.8450000  10.0530005
  47.6669998   0.7760000  10.3249998   3.7950001  46.9970016  70.1520004
   4.7670002  47.2910004  70.3300018   3.4879999  47.0519981  71.0910034
  56.0750008  12.5509996   6.1599998  55.2109985  12.0950003   6.0669999
  56.6839981  11.7910004   6.2090001  25.9410000  69.4739990   8.1400003
  26.5610008  69.2320023   7.3520002  26.3619995  70.2809982   8.3929996
  65.0569992  55.4910011  68.8239975  64.2330017  56.0509987  68.8929977
  64.6949997  54.7340012  68.3349991  50.8390007   3.8199999   7.9080000
  51.2360001   4.4800000   8.5150003  49.8730011   4.1220002   7.9569998
  59.0359993  14.9080000   5.1370001  59.1539993  15.6320000   5.7709999
  59.4090004  15.2690001   4.2960000  54.9819984  10.7309999   9.9469995
  54.0540009  10.6730003   9.6400003  54.9350014  10.0939999  10.6250000
   6.2690001  54.5620003  58.4819984   5.3290000  54.7439995  58.7750015
   6.0139999  54.2229996  57.5870018  42.6599998  -0.0060000  19.4190006
  42.3899994   0.5020000  20.2059994  43.5620003  -0.2400000  19.6480007
  49.0870018  16.8500004  11.3100004  49.6520004  16.8230000  10.5010004
  48.1920013  17.0779991  10.8750000  47.7150002  13.0600004  20.6580009
  48.6349983  13.2399998  20.9810009  47.2529984  12.9180002  21.5119991
  60.6090012  44.2500000  75.4909973  59.8740005  43.5950012  75.5110016
  60.1759987  45.0369987  75.8610001  53.2089996  11.0369997  22.5849991
  53.0540009  10.8120003  21.6250000  53.7109985  10.2069998  22.8139992
   6.1560001  54.5509987  55.6689987   5.8979998  54.8559990  54.8139992
   7.0700002  54.2249985  55.5489998   9.4169998  60.0439987  53.8639984
   9.0459995  60.5820007  54.5359993  10.2830000  59.7799988  54.2360001
   7.0739999  52.8619995  67.4540024   7.9790001  52.4770012  67.4449997
   7.2529998  53.7849998  67.6999969   0.3340000  52.1069984  55.0060005
   0.6030000  51.5219994  55.7719994  -0.2680000  52.7029991  55.5550003
  53.4669991  27.6790009  -5.9540000  54.1419983  28.4220009  -5.7680001
  52.6809998  28.2900009  -5.9499998  78.5130005  42.1889992  64.6839981
  77.5739975  42.4739990  64.5449982  78.3779984  41.4529991  65.3249969
  58.6160011  11.2860003  11.6859999  57.7109985  10.9010000  11.9049997
  59.0299988  11.2690001  12.5830002   4.6430001  48.7360001  58.6419983
   5.0079999  49.5320015  58.2970009   5.1350002  48.0519981  58.2779999
  75.5879974  49.4630013  63.6209984  76.3990021  49.5470009  63.0200005
  75.9980011  49.8930016  64.4100037   1.1820000  55.2379990  60.1980019
   1.0080000  55.8870010  60.8930016   0.7540000  54.4620018  60.5569992
   4.0170002  52.1520004  64.8140030   4.2700000  53.0760002  65.0699997
   3.1270001  52.0750008  65.1969986  51.4630013  15.9320002   3.7509999
  51.1790009  16.7800007   3.2760000  51.2249985  16.1910000   4.6469998
  12.3280001  45.4640007  66.2470016  11.9870005  46.3740005  66.3300018
  12.0860004  45.1940002  65.3170013  50.9770012   8.5950003  11.2609997
  50.5009995   8.5620003  12.0830002  51.9199982   8.3620005  11.4239998
  55.2400017  21.5960007   7.7309999  55.8730011  21.2460003   8.3400002
  55.0540009  20.7840004   7.1960001  20.1739998  49.3359985  63.5769997
  20.2380009  48.6920013  64.2659988  20.1459999  50.1609993  64.0319977
   2.2360001  59.8629990  61.3530006   2.7700000  60.6809998  61.2000008
   2.3810000  59.7490005  62.3219986   5.4740000  45.4570007  61.3030014
   5.9190001  45.0320015  62.0589981   5.9790001  46.2669983  61.1409988
  68.9690018  39.7080002  76.4800034  69.6849976  40.2989998  76.9150009
  68.5820007  39.4500008  77.3830032  73.2190018  39.4280014  73.8949966
  73.9929962  39.7890015  73.4960022  72.5329971  40.0779991  73.6080017
   5.4510002  57.2249985  64.0419998   4.5929999  57.5639992  63.7750015
   6.0270000  57.7859993  63.4090004   3.9110000  57.5989990  51.0999985
   4.0599999  56.8110008  51.6650009   4.7579999  58.1440010  51.1819992
  47.4300003  17.6340008   7.2210002  46.6860008  17.1040001   6.8369999
  47.3849983  17.4370003   8.1540003  57.6100006   7.2859998  15.2290001
  57.4550018   6.3579998  14.8590002  58.4480019   7.0469999  15.7270002
  50.9379997  31.1060009   0.3530000  50.7570000  30.5480003  -0.4440000
  50.8839989  31.9979992  -0.0340000  67.5609970  25.4559994  12.4930000
  67.3960037  26.2329998  11.9340000  68.2330017  25.8619995  13.1009998
  50.6059990   8.9689999  19.2430000  49.8209991   9.5139999  19.4519997
  50.1090012   8.0950003  19.1380005  56.9090004  29.9370003  11.0039997
  56.7879982  29.0410004  11.3950005  56.4819984  29.7159996  10.1110001
  41.8450012  42.6930008   3.6949999  40.9179993  42.6860008   3.9920001
  41.7080002  43.1469994   2.8299999  54.1860008  22.7849998  12.0000000
  53.8120003  23.0620003  11.1140003  54.4360008  21.8460007  11.7069998
  58.7459984  17.3069992  16.3540001  59.6339989  17.5790005  16.3160000
  58.7869987  16.4810009  16.8630009  11.8970003  56.4449997  60.2579994
  12.3660002  56.3950005  61.1430016  11.3350000  57.1920013  60.4259987
  61.2140007  26.2250004   5.0999999  61.2690010  25.4669991   4.4650002
  61.0070000  26.9400005   4.4600000  48.2939987  29.8439999   1.1380000
  49.2179985  29.9860001   1.3450000  48.2649994  30.0200005   0.1830000
   7.5159998  54.1549988  63.3950005   6.6910000  54.2690010  62.8219986
   8.1780005  54.2709999  62.6949997   9.6560001  52.2859993  58.1090012
  10.1269999  52.9379997  58.6990013   8.9200001  52.0800018  58.7789993
  55.7919998  22.7700005   2.8659999  55.9259987  21.8330002   2.5660000
  54.9389992  22.6329994   3.3570001   8.5539999  49.3660011  64.8040009
   8.8199997  50.2980003  64.7500000   7.7059999  49.5550003  65.2949982
  76.1790009  21.9130001  24.6030006  76.1559982  21.1849995  23.9610004
  76.1299973  22.7129993  24.0779991  54.5050011   6.0029998  13.3990002
  55.3260002   5.4899998  13.5010004  53.8779984   5.3270001  13.1549997
  47.8820000  21.8869991   7.7459998  47.8429985  22.7350006   8.3570004
  47.4239998  22.2390003   6.9530001  56.7980003   9.3059998   8.0150003
  56.1370010   9.8719997   8.4740000  57.0040016   8.6910000   8.7989998
   8.9090004  44.7169991  56.9220009   8.5520000  45.4490013  57.5200005
   8.8950005  43.9589996  57.5330009  46.5040016  27.5809994   4.1880002
  46.8450012  27.5279999   3.2550001  47.3409996  27.3239994   4.6479998
  14.8520002  57.1839981  59.9869995  15.3500004  57.0099983  59.1679993
  14.2770004  57.9329987  59.7729988  46.7869987   7.7360001   8.0869999
  46.7770004   7.7059999   7.1090002  47.7589989   7.7170000   8.2539997
  64.6729965  46.5800018  56.1399994  64.9670029  45.6100006  56.0789986
  64.4199982  46.7750015  55.2529984  66.2180023  24.5039997   7.9689999
  66.1110001  25.4440002   7.9990001  65.7630005  24.2740002   7.1399999
   2.8989999  62.6850014  59.4519997   3.1989999  62.1809998  58.6250000
   3.2360001  63.5470009  59.1110001  47.2220001  32.7280006   3.2449999
  47.2039986  31.7959995   3.5650001  46.7570000  32.6720009   2.3770001
  61.7430000  26.8110008   7.6750002  61.2690010  26.4260006   6.8579998
  62.1800003  27.5709991   7.2509999  76.2910004  68.0380020  57.0789986
  76.2149963  68.9649963  56.7369995  75.4700012  67.6579971  56.7350006
  50.2039986   9.5819998   4.4699998  49.7389984  10.2449999   4.9660001
  50.9099998   9.3570004   5.0840001  12.5790005   2.9260001  55.9410019
  11.6960001   2.4519999  55.9449997  12.6929998   3.1400001  54.9850006
  12.1379995  65.2679977  57.4480019  12.7080002  64.8779984  56.7439995
  12.8280001  65.5110016  58.0760002  57.5589981  17.3649998   2.9470000
  57.2949982  17.1439991   3.8780000  58.1450005  18.1420002   3.1949999
  29.8750000  -3.2939999  58.1520004  29.3209991  -3.3670001  57.3499985
  30.6930008  -3.6229999  57.7309990  55.2859993  17.5550003  12.3970003
  54.8930016  16.6539993  12.5799999  55.4469986  17.7660007  13.3730001
  52.5499992  35.9469986  -4.3540001  52.2290001  35.3930016  -5.1350002
  53.1080017  35.2439995  -3.9540000   4.0330000  58.2709999  55.0229988
   3.5990000  57.9259987  55.8440018   3.3230000  58.5439987  54.4560013
  52.9720001  31.6320000   3.3320000  53.4560013  31.5639992   2.4500000
  53.1920013  32.5320015   3.5539999  71.5439987  53.6780014  53.0089989
  72.3960037  54.1010017  52.8959999  71.7460022  52.7169991  53.0239983
  51.9840012  11.6840000  14.0609999  51.0250015  11.4049997  14.1199999
  51.9290009  12.2749996  13.3260002  60.5909996  29.2980003   1.0530000
  60.7669983  28.4300003   1.5089999  59.6349983  29.3269997   1.0820000
   0.2320000  59.2179985  59.4669991   0.0880000  60.1370010  59.3959999
   1.1150000  59.1819992  59.9150009  58.6529999  33.7439995  -4.2789998
  59.2709999  33.5190010  -3.5179999  57.8549995  33.2939987  -3.9710000
  51.3639984  12.5089998   9.4320002  51.9770012  13.2410002   9.1350002
  50.6220016  12.6190004   8.7589998   2.9430001  57.7459984  57.6030006
   2.5550001  56.8750000  57.1640015   2.8690000  57.4519997  58.4690018
  63.6730003  37.3009987   3.2639999  64.4700012  37.5000000   3.8110001
  62.9920006  37.6059990   3.8980000   2.7839999  42.6110001  56.6860008
   3.0810001  42.7550011  55.7299995   2.5530000  41.6580009  56.6539993
  45.3950005  14.4639997  12.2840004  44.7620010  14.2250004  12.9530001
  44.8079987  14.9359999  11.6429996   9.0920000  38.9879990  65.8830032
   8.3450003  38.8279991  65.2829971   8.6709995  38.6809998  66.7259979
  73.8020020  50.5830002  66.2249985  73.7519989  49.7500000  66.7740021
  74.7570038  50.7439995  66.1729965  46.9799995  19.9039993   0.5220000
  46.2470016  19.5569992   1.0870000  46.5940018  20.7350006   0.1600000
   3.7309999  51.5600014  62.0180016   4.5830002  51.1730003  62.4280014
   3.7590001  52.3940010  62.5600014  54.5400009  24.9519997   1.3000000
  54.0279999  24.2570000   0.8240000  54.7630005  24.5020008   2.1110001
   3.6940000  61.6240005  57.0449982   2.7939999  61.3829994  56.7529984
   4.1989999  61.3310013  56.3129997  48.2659988  21.0070000  11.9300003
  47.3849983  20.8199997  12.3070002  48.2019997  20.4720001  11.0730000
  49.6669998  27.6720009  -1.3160000  48.9930000  28.3349991  -1.1560000
  49.9749985  27.4589996  -0.4280000  36.5709991  22.9290009  15.3500004
  36.6529999  23.6359997  14.6560001  37.3199997  22.3199997  14.9879999
  53.8240013  17.6420002   5.5019999  53.3470001  16.7660007   5.7760000
  54.0559998  17.3770008   4.5819998  19.9659996  57.2859993  67.6999969
  20.4400005  57.6339989  66.9509964  20.5160007  56.5270004  68.0130005
  58.6860008  16.6189995  12.7980003  58.0789986  17.2229996  13.2480001
  58.3199997  16.6700001  11.8570004  56.4420013  12.8870001   9.5740004
  55.9580002  12.0349998   9.7580004  57.3380013  12.5260000   9.3879995
  15.1630001  53.9939995  72.9639969  14.4160004  53.8380013  73.6100006
  15.2329998  53.1010017  72.5370026  59.1080017  12.8310003   9.5920000
  59.9049988  13.3319998   9.9230003  58.8559990  12.2600002  10.3649998
  57.2540016  17.9470005  10.7930002  57.3559990  18.8959999  10.6429996
  56.5089989  17.9780006  11.5050001  76.8590012  45.2200012  65.7829971
  76.6719971  44.4039993  65.3310013  77.6579971  45.1049995  66.2910004
  56.7709999  18.4130001  14.6940002  55.9370003  18.6490002  15.1840000
  57.2949982  17.9960003  15.4119997  42.6220016  23.1350002  11.4250002
  41.9459991  22.9559994  10.7580004  42.6640015  24.1210003  11.3330002
   9.3730001  47.7109985  69.7080002   8.9399996  47.4539986  68.9020004
   9.1029997  48.6870003  69.7129974  72.8580017  50.2060013  62.3310013
  72.7750015  49.6279984  61.5180016  73.8619995  50.1119995  62.4480019
  46.9930000  24.3999996   9.2080002  46.0489998  24.3750000   8.8730001
  47.2789993  25.2150002   8.6850004  55.1180000  20.1140003   2.8980000
  54.4269981  19.9220009   2.2090001  55.4000015  19.1819992   3.1180000
  46.9230003  30.1970005   4.4850001  47.4819984  29.9249992   5.2659998
  46.8030014  29.2889996   4.0830002  74.1409988  55.3139992  63.8009987
  73.2809982  55.5499992  63.4080009  74.3379974  56.0419998  64.4049988
  49.8730011   8.0290003  13.9370003  49.3790016   8.8420000  13.8299999
  50.3889999   8.2559996  14.7840004  62.0019989  17.5499992  15.8669996
  62.7340012  18.1949997  15.8439999  62.4059982  16.9230003  16.5370007
  70.8259964  54.3209991  63.5089989  70.2939987  54.4550018  62.7540016
  71.3059998  53.5060005  63.2299995  48.3190002  21.8169994   4.0400000
  48.7379990  21.4440002   4.8109999  48.4729996  21.2159996   3.3260000
   8.0229998  42.1329994  76.0100021   8.8020000  42.2859993  75.4850006
   7.3249998  42.5919991  75.4459991  49.7540016   8.8280001  56.2649994
  48.8790016   9.1899996  55.8720016  50.3160019   9.5590000  56.0530014
  50.7350006  36.6710014   9.8120003  50.3230019  37.1829987  10.5839996
  49.9399986  36.7789993   9.1750002  15.9930000  72.4339981  65.5350037
  15.2659998  72.1669998  66.1510010  16.7220001  72.6419983  66.1520004
  38.9850006   1.1500000  54.5639992  38.8629990   1.4550000  53.6250000
  39.5139999   1.9220001  54.9080009  32.8759995  11.2460003  69.1880035
  32.9430008  11.0400000  70.1660004  33.5709991  11.9449997  69.1090012
  60.5400009  32.6020012   7.9499998  59.6529999  32.2319984   7.8390002
  60.8429985  32.3489990   8.7740002  17.6369991  68.8430023  66.0189972
  17.0860004  68.6119995  66.7799988  18.4899998  69.0110016  66.4879990
  42.1250000   5.5380001  68.2600021  42.2879982   6.3260002  67.7170029
  43.0950012   5.1770000  68.2590027  57.5449982  30.8080006  -4.8049998
  58.2760010  31.2509995  -5.2570000  58.0219994  30.5270004  -3.9449999
  68.7720032  23.1980000  11.6190004  68.4899979  24.0480003  12.0419998
  69.7580032  23.3729992  11.6829996  68.9940033  39.5149994   5.1510000
  69.3690033  38.8889999   4.5599999  69.7689972  40.0569992   5.3979998
  48.7159996   7.0079999  66.7730026  49.3390007   7.2630000  66.0000000
  48.5200005   7.9200001  67.0739975  67.9680023  37.6879997   2.4460001
  68.4440002  38.5110016   2.2520001  68.7330017  37.0870018   2.5469999
  13.2819996  71.3550034  61.3730011  13.6450005  71.9300003  60.6489983
  13.2810001  71.9369965  62.0870018  72.8870010  29.5149994  20.4120007
  72.6200027  28.6060009  20.4239998  73.6100006  29.4669991  19.7460003
  16.6200008  71.2580032  60.8349991  16.2719994  71.1060028  61.7200012
  15.8490000  71.2679977  60.2879982  39.6930008  -0.0640000  65.4520035
  40.2579994  -0.3160000  66.2539978  39.2529984   0.6930000  65.9140015
  55.6889992  43.2389984   9.0579996  56.5649986  43.6220016   8.8529997
  55.4490013  42.8959999   8.1459999  59.0229988  32.9119987  14.3559999
  59.4329987  33.7150002  13.9139996  58.1739998  33.2599983  14.6149998
  60.5639992  26.0830002   0.6080000  60.8489990  25.4519997   1.2350000
  61.2570000  26.1389999  -0.0670000  15.1470003  71.8410034  58.5400009
  14.8240004  70.9199982  58.2739983  14.3360004  72.3229980  58.5989990
  39.8260002  -1.1280000  59.1850014  39.8730011  -0.2660000  58.7280006
  38.8699989  -1.2140000  59.2470016  69.0719986  34.7220001   8.5120001
  69.6470032  34.7120018   9.3129997  69.5500031  33.9910011   8.0139999
  75.9229965  59.7229996  59.8359985  75.2829971  58.9799995  60.0009995
  76.0579987  59.6640015  58.8699989  63.1450005  34.7210007  14.1269999
  62.2109985  34.9070015  13.8970003  63.0999985  33.7309990  14.1440001
  60.6290016  36.1889992   3.0360000  59.6850014  36.3959999   2.8039999
  61.0279999  36.0289993   2.1580000  59.7680016  33.1459999  -1.8390000
  59.4599991  33.8349991  -1.2050000  60.4339981  32.7089996  -1.2840000
  67.0400009  32.4949989  11.9879999  66.6979980  33.2989998  12.4969997
  66.9670029  32.9329987  11.1009998  70.2529984  29.6760006   9.6289997
  69.6500015  30.2970009  10.0059996  70.9670029  30.3099995   9.3319998
  71.7360001  40.7649994  18.2999992  72.1370010  40.3499985  17.4780006
  71.8160019  41.7470016  18.0510006  36.8209991  13.7229996  53.8639984
  36.7490005  13.1269999  54.6399994  35.9160004  14.1199999  53.8359985
  68.7969971  46.2550011  11.3450003  69.5220032  45.9739990  11.9090004
  68.1969986  46.7080002  11.9390001  61.8740005  29.5580006   7.0580001
  61.0909996  30.1140003   6.9829998  62.3219986  29.9680004   7.8390002
  56.6889992  34.4809990  13.3369999  56.5089989  35.3989983  13.0050001
  56.7260017  34.0379982  12.4720001  19.9669991  -0.3140000  56.9129982
  19.0660000  -0.1230000  56.9370003  20.3729992   0.5990000  56.7509995
  58.7620010  25.6529999   6.7210002  59.2550011  25.5540009   5.8429999
  58.1489983  24.9090004   6.5770001  51.8370018   2.0309999  71.6640015
  51.4749985   2.5750000  70.9079971  52.2050018   2.7660000  72.1709976
  65.2959976  39.5470009   1.7079999  65.0299988  40.4710007   1.9460000
  66.2379990  39.5730019   1.9430000  61.9220009  32.2120018  -0.3580000
  62.6879997  32.4560013  -0.8830000  62.3660011  32.1679993   0.5110000
  59.2480011  34.8979988   0.3700000  59.1969986  34.1969986   1.0340000
  60.1790009  35.1469994   0.4790000  13.3260002  51.2739983  47.0779991
  13.2010002  51.8989983  47.7680016  12.7119999  51.5550003  46.3610001
  56.3409996  34.4230003   3.3469999  56.2459984  34.0929985   4.2760000
  56.3779984  33.5670013   2.8789999  65.6719971  34.5079994  13.2559996
  65.9879990  34.7060013  14.1759996  64.6900024  34.5550003  13.4379997
  62.9650002  33.8149986   6.3520002  62.1349983  33.3619995   6.6919999
  63.4920006  33.7709999   7.1469998  73.9649963  23.3780003  12.6960001
  73.8590012  22.3880005  12.8059998  74.8209991  23.3139992  12.2259998
  64.5950012  21.7619991  15.9099998  64.4179993  20.8169994  15.8929996
  65.4509964  21.8190002  15.4960003  55.0480003  36.1879997   5.5019999
  55.9879990  36.4640007   5.4629998  54.6609993  36.9259987   5.0089998
  15.0450001  62.2190018  60.8600006  15.2329998  63.1839981  60.9059982
  14.8009996  62.0540009  61.7869987  56.9830017  36.5950012   9.9289999
  56.7350006  37.3610001   9.3459997  56.8499985  35.8600006   9.3400002
  55.3569984  33.7809982  -1.9230000  55.7939987  34.4459991  -1.3180000
  55.4179993  34.2449989  -2.7630000  77.3130035  34.5830002  12.6389999
  77.6520004  33.6599998  12.6250000  76.6110001  34.4659996  13.3000002
  10.9110003  58.0279999  68.2190018  10.8369999  57.8660011  67.2559967
  11.5410004  58.7449989  68.2659988  13.7019997  69.5940018  58.2599983
  12.9890003  70.1119995  57.7610016  13.8020000  68.8720016  57.6580009
  48.5400009  25.0890007  -2.0360000  48.9910011  25.9379997  -1.9970000
  48.9129982  24.5860004  -1.3049999  59.5800018  32.2220001   1.7910000
  60.0180016  32.4809990   2.6610000  60.2770004  31.6459999   1.4560000
  62.6100006  54.3470001  10.2530003  63.0349998  53.8139992  10.9320002
  63.0900002  54.1549988   9.4499998  70.0179977  35.4599991   3.1329999
  70.5279999  35.9560013   3.7790000  69.8450012  34.6450005   3.6400001
  65.6600037  43.2750015   6.2810001  66.4929962  42.8689995   6.7509999
  65.0169983  42.6100006   6.5460000  59.6559982  34.8409996   5.8750000
  59.6529999  35.2140007   6.7670002  58.6749992  34.7229996   5.7969999
  63.9589996  32.1329994  13.8070002  64.4889984  31.5489998  14.4359999
  64.2659988  31.7310009  12.9630003  53.6399994  29.2940006   4.7440000
  53.4140015  30.1289997   4.2750001  53.6850014  28.6980000   3.9760001
  37.0410004   2.9930000  63.3580017  37.4679985   2.2639999  62.8190002
  36.2680016   3.1489999  62.7050018  58.6920013  22.7810001   0.1080000
  59.3279991  22.0359993   0.3390000  58.7560005  23.2700005   0.9390000
  51.5139999  26.7110004   9.4899998  51.0900002  25.8369999   9.4119997
  51.0820007  27.0709991  10.2799997  59.8769989  27.4650002   9.4080000
  59.1469994  27.0499992   8.9469995  60.6489983  27.1889992   8.8509998
   0.2850000  62.0379982  59.0270004   1.1930000  62.3810005  59.3190002
  -0.2800000  62.4620018  59.7389984  10.0699997  56.9809990  57.0880013
   9.1379995  57.2570000  56.9440002  10.3830004  57.6150017  57.7789993
  39.9210014  11.6870003  62.1250000  39.0009995  11.7919998  62.5480003
  40.1279984  10.7930002  62.3709984  57.6040001  20.7320004   8.8350000
  58.4589996  21.2150002   8.6980000  57.4259987  21.0070000   9.7430000
  18.2590008  64.0049973  62.1329994  18.8820000  64.6849976  61.7540016
  18.6940002  63.2340012  61.7050018  57.7649994  29.6070004   0.9490000
  56.9799995  29.5730000   1.4690000  57.6720009  30.4790001   0.5160000
  49.5849991   7.2779999   9.1330004  50.2190018   7.4070001   9.9139996
  49.5340004   8.2419996   8.8629999  50.2430000  25.2889996   2.0550001
  50.4039993  26.2439995   1.9020000  50.6599998  24.9069996   1.2640001
  53.6910019  20.1499996   5.9429998  52.8810005  20.0489998   6.5630002
  53.7000008  19.1900005   5.5830002  48.1349983  42.9220009  -0.5660000
  48.9889984  42.4099998  -0.3800000  48.5950012  43.7319984  -0.9760000
  13.3430004  70.0169983  65.0449982  12.5249996  70.5360031  65.1159973
  13.7810001  70.2570038  65.9029999  45.2789993   2.8910000  64.3789978
  46.1689987   2.8740001  64.1050034  44.8030014   2.2500000  63.8089981
  52.1119995  44.2669983   4.5980000  51.5449982  43.7570000   5.2979999
  52.6570015  44.7579994   5.2670002  48.8779984  28.7469997  10.7740002
  49.2560005  29.6580009  10.6759996  48.2809982  28.6770000   9.9820004
  69.0920029  44.5369987   7.8249998  69.7669983  43.9469986   8.2840004
  69.6900024  45.1790009   7.4180002  24.1560001  71.3010025  65.5569992
  24.4829998  70.6920013  66.2259979  23.6149998  71.9079971  66.1640015
  72.2409973  33.4729996   5.5469999  71.5650024  33.1349983   6.2779999
  73.0250015  33.0670013   5.9770002  59.7350006  25.5270004  12.4759998
  59.3479996  25.1469994  13.2860003  59.6969986  24.6970005  11.9020004
  26.4540005  61.1199989  73.4609985  27.1110001  61.0789986  74.2009964
  26.7609997  61.9370003  73.0500031  64.7450027  34.8489990   0.5670000
  64.9300003  35.8209991   0.5140000  64.0640030  34.7939987  -0.1510000
  37.2570000  -0.2160000  59.6609993  36.4809990  -0.0760000  60.2550011
  36.8650017  -0.8000000  59.0060005  65.3750000  34.0279999   4.1880002
  65.3300018  35.0009995   4.3239999  64.4639969  33.7570000   4.3790002
  69.5899963  71.8249969  54.9189987  69.1999969  72.2949982  54.1459999
  69.3079987  70.9280014  54.6650009  32.2779999   1.8360000  54.4770012
  31.6889992   1.3320000  55.1040001  31.6669998   2.5880001  54.3580017
  58.4420013  24.4020004  14.4659996  58.1040001  24.5739994  15.3850002
  57.7799988  23.6779995  14.2250004  53.3120003  34.3320007   4.1269999
  52.7939987  35.1170006   3.8880000  54.0009995  34.7980003   4.6329999
  72.5579987  35.1310005  22.3349991  73.1100006  34.6899986  21.6410007
  73.2419968  35.8750000  22.4559994  42.6469994  33.5289993   7.7420001
  42.0070000  34.0410004   8.2939997  42.1689987  32.6660004   7.7199998
  61.8019981  36.2029991   0.5070000  62.0299988  37.1889992   0.5750000
  62.3240013  36.0509987  -0.3320000  75.3000031  33.0180016  21.8160000
  75.0930023  32.0239983  21.8570004  75.9530029  33.0569992  22.5419998
  68.2559967  37.9290009  10.0200005  67.5400009  38.0079994   9.3140001
  68.3300018  36.9399986  10.0179996  57.0340004  38.1040001  -0.1990000
  57.2589989  39.0070000  -0.5420000  57.5890007  38.0800018   0.6150000
  56.4360008  32.6640015  11.0839996  57.0509987  33.0540009  10.5120001
  56.7019997  31.6860008  11.0939999  73.6370010  34.5750008  19.4839993
  73.5609970  33.9399986  18.7180004  74.5559998  34.3120003  19.7840004
  36.4710007   6.8390002  51.3230019  35.6389999   7.3169999  51.0719986
  36.1020012   5.9580002  51.2029991  21.9430008  69.2760010  64.9530029
  22.5869999  69.8779984  65.4100037  21.7430000  68.6689987  65.6269989
  62.8419991  25.6879997  10.1300001  61.9869995  25.8080006  10.5799999
  62.7109985  26.1800003   9.2889996  46.8569984   5.3010001  66.1959991
  47.5149994   6.0029998  66.5569992  47.1790009   5.3109999  65.2639999
  18.2150002  70.2220001  63.6479988  17.2929993  70.4020004  63.4020004
  18.1130009  69.8679962  64.5449982  74.2500000  43.6990013  19.2919998
  74.2060013  44.5320015  19.8670006  74.5579987  43.0589981  19.9920006
  45.7809982   0.0620000  61.7299995  45.1370010   0.0930000  62.4980011
  45.3199997  -0.5470000  61.1100006  46.7999992   5.5650001  69.6589966
  46.5750008   6.4190001  69.2190018  47.7369995   5.6680002  69.8069992
  78.3209991  38.9220009  10.1800003  78.7080002  39.7480011  10.4989996
  78.2180023  38.4070015  10.9910002  43.4970016  12.1850004  67.9250031
  42.7760010  12.2539997  68.5930023  44.2960014  12.2069998  68.5360031
  40.7330017  18.8610001  58.5419998  40.5670013  18.0070000  59.0270004
  40.7470016  19.4890003  59.2690010  67.4400024  33.1520004   2.3870001
  66.7249985  33.4690018   3.0139999  68.1200027  33.0579987   3.0840001
  69.7419968  40.1139984   9.5249996  69.0599976  40.3339996   8.8190002
  69.1490021  39.4290009   9.9890003  44.0830002  14.8330002  66.9410019
  43.3170013  15.1829996  67.5130005  44.1250000  13.9020004  67.3359985
  21.2730007  67.3830032  67.0350037  22.1049995  66.9929962  67.3479996
  20.6849995  67.2399979  67.8079987  40.6860008  10.9589996  65.7789993
  40.5789986  11.9510002  65.8600006  40.1860008  10.6990004  66.5979996
  68.7409973  38.2669983  18.2989998  67.7990036  38.5830002  18.2539997
  68.7789993  37.8300018  17.4389992  41.3839989   8.2370005  61.6100006
  40.6329994   8.0480003  61.0260010  40.9659996   8.6920004  62.3279991
  71.9980011  36.9630013  11.5670004  72.0520020  37.8460007  12.0590000
  72.8030014  36.4879990  11.9860001  69.6940002  40.1500015  19.8600006
  70.5270004  40.2989998  19.4410000  69.2529984  39.4440002  19.2709999
  75.7180023  38.6899986   9.3490000  75.6839981  37.7579994   9.6300001
  76.6429977  38.8540001   9.2659998  68.2600021  48.1290016  16.6140003
  69.0120010  48.0050011  17.2929993  67.5490036  47.9819984  17.2980003
   5.0370002  64.2529984  39.9650002   4.1810002  64.7340012  40.1730003
   5.2199998  64.6930008  39.0530014   2.0369999  60.5260010  47.2820015
   1.6560000  59.7029991  47.6080017   2.9710000  60.2999992  47.3450012
  11.1339998  63.4469986  38.5190010  11.0819998  64.2170029  39.1139984
  10.6809998  62.7989998  39.1290016  74.2190018  55.0320015  42.4589996
  74.9889984  55.5120010  42.0950012  74.5979996  54.1969986  42.7529984
   2.1589999  65.6500015  52.7080002   3.0969999  65.4700012  52.4000015
   2.1150000  66.5569992  52.2470016   3.8520000  66.8190002  42.5169983
   4.0050001  65.8529968  42.5540009   4.6760001  67.0780029  43.0750008
  77.7030029  66.3580017  49.4739990  76.9219971  65.8349991  49.3969994
  77.2630005  67.2590027  49.3390007  16.0319996  57.1570015  42.8699989
  16.7929993  57.7620010  42.6520004  16.4459991  56.2760010  42.7420006
  71.1050034  62.4480019  51.9589996  70.9879990  61.4729996  51.8930016
  70.3479996  62.7330017  51.4290009   4.6820002  49.7989998  51.8040009
   5.5500002  50.3390007  51.7210007   4.2379999  50.1629982  50.9930000
  75.2099991  62.8829994  60.2330017  74.9349976  62.5480003  61.1590004
  74.4420013  62.5989990  59.7470016   6.5739999  60.1889992  59.8569984
   7.3690000  59.9210014  60.3030014   6.3909998  61.0699997  60.2190018
   7.2789998  64.6350021  54.8149986   8.1110001  64.7809982  55.2840004
   6.6770000  65.2129974  55.2980003   4.0980000  52.5359993  54.6969986
   4.9670000  52.8699989  54.5419998   4.0869999  52.6529999  55.6829987
  79.3789978  62.8520012  41.3959999  79.2860031  63.1129990  42.3300018
  78.4270020  62.6129990  41.2089996  13.2259998  60.9090004  36.8790016
  13.9150000  60.3230019  37.2519989  13.7969999  61.7500000  36.8849983
   4.1710000  62.0610008  42.2000008   4.7719998  61.3670006  41.8409996
   3.6120000  62.2470016  41.3899994   5.7810001  67.7149963  50.8419991
   6.3319998  67.1959991  51.3839989   4.8920002  67.7770004  51.2630005
  77.2620010  49.7560005  55.8709984  78.0270004  49.7089996  55.2260017
  76.6190033  49.2179985  55.3409996  12.0209999  66.8389969  48.7519989
  12.2320004  65.9020004  48.8689995  12.8230000  67.2699966  48.3670006
  15.4659996  70.8639984  63.4860001  15.5900002  71.4010010  64.3320007
  14.5430002  70.6719971  63.5979996  12.4910002  61.2980003  34.2490005
  12.7399998  61.0970001  35.1759987  13.3339996  61.6689987  33.8810005
  29.5470009  -0.5510000  58.0209999  29.6879997  -1.4510000  58.4599991
  28.7840004  -0.2460000  58.5250015  38.7280006   1.1840000  61.5279999
  38.7029991   2.0200000  61.0060005  38.1920013   0.5840000  60.9850006
   6.4549999  66.7539978  56.3969994   7.3020000  67.1100006  56.3470001
   5.9410000  67.3629990  55.7729988  53.7019997  30.7929993  -3.3280001
  54.0569992  30.5799999  -2.3980000  52.7830009  30.5660000  -3.1819999
  41.2970009   1.4299999  62.8919983  41.8089981   1.1380000  62.0839996
  40.3919983   1.4920000  62.5239983  28.8759995   0.2100000  48.8860016
  28.8180008  -0.7570000  49.0999985  28.9190006   0.1360000  47.9119987
   3.0630000  68.2529984  51.8240013   2.8010001  69.0449982  51.2939987
   2.7390001  68.5550003  52.7029991   0.7170000  66.9629974  49.4389992
  -0.2130000  66.6689987  49.2750015   0.5830000  67.7710037  49.9280014
  42.7449989   1.6430000  50.3370018  42.0289993   0.9820000  50.6349983
  43.3260002   1.5100000  51.1619987  11.4449997  68.4420013  39.6129990
  10.6879997  69.0220032  39.2900009  12.1190004  68.7429962  38.9659996
   3.0009999  64.9649963  56.2849998   2.2530000  64.4319992  56.1609993
   3.5270000  64.7149963  55.4090004  32.0719986  -4.2649999  43.5979996
  32.7550011  -3.8529999  43.0740013  31.3330002  -3.6359999  43.6049995
  67.8349991  62.0320015  46.0439987  68.0250015  62.9510002  46.2820015
  68.6600037  61.5950012  46.1259995   9.6040001  57.7480011  47.5270004
   8.6639996  57.6689987  47.8339996   9.5120001  58.6189995  47.1189995
  70.8249969  37.5530014  38.7869987  70.3249969  37.2890015  39.6100006
  71.0220032  36.6389999  38.4599991  11.0459995  34.7960014  44.1769981
  11.1820002  34.1170006  43.4399986  10.1899996  35.1870003  43.8040009
  79.1029968  32.7519989  39.5600014  78.0830002  32.8810005  39.6090012
  79.1740036  31.9659996  39.0050011   2.5580001  39.4319992  39.4210014
   2.4170001  38.5820007  39.0559998   2.2110000  39.9939995  38.6559982
  77.7669983  35.8580017  37.1660004  78.6969986  35.5740013  37.1160011
  77.8249969  36.7949982  36.9160004  14.3999996  48.6419983  41.0289993
  14.6529999  49.4020004  40.3930016  14.2869997  49.1679993  41.8050003
   3.0910001  40.4160004  33.8510017   2.4879999  40.4469986  34.6250000
   3.9570000  40.3120003  34.2669983   2.4860001  48.1749992  15.8070002
   1.7350000  47.9449997  15.1850004   3.2290001  48.0890007  15.1739998
  11.2130003  42.5429993  51.8639984  11.5660000  41.6590004  51.6549988
  12.0000000  42.8610001  52.3680000   9.8850002  46.1660004  44.9780006
  10.6440001  45.7109985  44.6320000   9.1510000  45.9070015  44.3909988
   3.7370000  32.7869987  41.8180008   3.2370000  31.9589996  41.6150017
   3.1619999  33.1450005  42.5169983   1.8300000  29.4500008  32.5029984
   2.6350000  29.5000000  33.1320000   2.0060000  30.1580009  31.8810005
  14.5279999  26.1480007  41.7330017  13.5950003  26.2460003  41.4339981
  14.8999996  25.5970001  41.0209999   2.0330000  48.9309998  36.8829994
   2.4990001  49.4039993  37.5379982   1.3590000  49.5219994  36.6180000
   4.2389998  43.2599983  35.2809982   3.7179999  43.5289993  36.0950012
   5.0430002  43.7340012  35.4580002  69.3690033  36.2029991  40.7939987
  68.4020004  36.0719986  40.6949997  69.6269989  35.4830017  41.4339981
   1.5530000  37.1479988  38.1189995   1.5860000  37.2970009  37.1699982
   1.1109999  36.2680016  38.1279984  10.9259996  39.7649994  29.6580009
  11.0979996  39.0219994  30.2399998   9.9259996  39.7280006  29.7080002
   4.8260002  49.8089981  38.9309998   4.3400002  50.4539986  38.3370018
   4.0539999  49.7500000  39.6269989  77.5009995  30.3710003  38.1399994
  77.3430023  29.8390007  38.9469986  78.4079971  30.1860008  37.9780006
  18.0359993  55.0929985  47.5519981  17.4060001  55.3400002  46.8370018
  18.7089996  54.6829987  46.8870010  76.0800018  61.7150002  32.5970001
  76.0380020  62.6619987  32.4420013  76.9580002  61.6910019  33.0419998
   3.4059999  53.3860016  44.6150017   2.8590000  54.0830002  45.0279999
   4.2709999  53.8190002  44.5089989   8.3360004  67.7929993  33.5200005
   8.8959999  67.7600021  34.2859993   8.0330000  68.7409973  33.4850006
  79.5609970  58.2099991  26.6889992  78.8710022  58.8740005  26.9319992
  78.9670029  57.3940010  26.6529999  10.9410000  53.5410004  40.2220001
  10.9449997  54.5279999  40.0439987  11.9040003  53.3580017  40.2239990
   9.0699997  56.4920006  15.8459997   9.2589998  55.8650017  15.1020002
  10.0209999  56.7480011  16.0100002   9.6339998  62.1440010  40.3670006
   9.7370005  62.0260010  41.3569984   8.7639999  62.5550003  40.3419991
   5.2810001  55.1580009  43.0740013   4.5419998  55.2379990  42.4140015
   5.5799999  56.0680008  43.1049995  15.9060001  45.2290001  36.6409988
  15.3690004  46.0000000  36.6539993  16.5739994  45.4109993  35.9550018
  79.5449982  53.1479988  26.0489998  79.6630020  53.2900009  26.9960003
  79.4469986  52.2000008  25.9930000  71.2060013  43.4239998  52.8499985
  71.3089981  42.5830002  53.3790016  70.2229996  43.2729988  52.6440010
  10.3350000  59.0260010  44.3660011   9.4370003  58.9440002  44.2550011
  10.7340002  58.4189987  43.7200012  11.0139999  38.0859985  34.9799995
  10.8529997  38.7330017  34.2470016  10.7299995  37.2340012  34.5909996
  19.3250008  64.6579971  29.1700001  19.3490009  64.9229965  28.2169991
  19.8430004  63.8279991  29.0330009   3.0500000  44.2890015  41.0900002
   2.4140000  44.8240013  41.5929985   2.4870000  43.5769997  40.7509995
  13.5620003  51.3940010  43.0089989  13.9329996  51.6570015  42.1269989
  12.7449999  50.9679985  42.6240005  11.2240000  54.3139992  33.2500000
  10.9060001  54.9659996  32.5750008  10.7309999  54.5470009  34.0309982
   3.6250000  47.0639992  48.9889984   3.0820000  47.5000000  48.2840004
   2.9619999  46.9020004  49.6679993  13.5410004  46.4150009  39.5099983
  13.8369999  47.1209984  40.1059990  12.5790005  46.6220016  39.4319992
   0.4280000  53.9749985  44.0950012  -0.5220000  53.9519997  44.4220009
   0.4870000  53.1940002  43.5460014  11.3789997  62.3689995  22.6180000
  11.3160000  61.4329987  22.6299992  10.4040003  62.5870018  22.8290005
  10.2629995  60.8520012  37.5149994  11.1700001  60.4799995  37.4189987
  10.4010000  61.7929993  37.5870018   5.4949999  51.2130013  47.7010002
   5.7350001  50.4830017  48.3790016   5.7969999  50.7229996  46.8829994
  79.0469971  54.2910004  32.7849998  79.7490005  54.9589996  32.9510002
  78.6070023  54.7589989  32.0089989   2.9419999  50.9379997  45.7309990
   2.8780000  51.7849998  45.2849998   3.7100000  50.5209999  45.2470016
   8.8330002  63.0559998  23.7900009   7.9990001  62.8470001  23.3090000
   8.5139999  63.8050003  24.3360004  79.4929962  55.3009987  28.7989998
  79.1250000  55.5940018  27.9449997  79.8659973  56.1660004  29.0750008
  11.0590000  65.6470032  39.8320007  10.0799999  65.6900024  40.0349998
  11.1920004  66.5800018  39.5600014  13.1320000  63.4379997  31.5070000
  12.1829996  63.6570015  31.3169994  13.1929998  64.1230011  32.2890015
  14.7229996  55.2869987  45.2939987  15.0299997  54.4830017  45.7540016
  14.3999996  54.8919983  44.4790001  15.5340004  33.8600006  35.2560005
  15.4940004  32.9679985  34.8699989  15.2749996  34.4420013  34.5159988
   9.5819998  62.1080017  43.2649994   9.4029999  61.2690010  43.6759987
   9.0799999  62.7509995  43.7439995  10.2209997  56.3030014  39.4939995
   9.2760000  56.1689987  39.2949982  10.3929996  57.0410004  38.7970009
   8.5349998  51.0929985  49.8079987   9.0070000  51.8740005  50.1850014
   7.8569999  51.0050011  50.4720001  11.0209999  41.3820000  27.5720005
  10.8120003  40.6419983  28.1550007  10.8509998  40.9959984  26.6849995
   6.7930002  48.5690002  36.3199997   7.0370002  48.8779984  37.2179985
   6.2540002  49.3569984  36.0919991   7.5689998  49.8139992  32.1500015
   8.4069996  49.5040016  32.5999985   7.7379999  50.7669983  32.3709984
   3.4410000  51.7430000  42.4720001   4.2020001  51.8740005  41.8909988
   3.4630001  52.5110016  43.0509987  71.6699982  42.2509995  44.4780006
  71.4879990  42.4529991  45.3909988  70.8430023  41.8440018  44.1899986
  21.6429996  57.9669991  42.6230011  21.5669994  57.9230003  41.6980019
  20.7670002  58.1949997  42.9490013  10.6400003  43.6720009  29.1809998
  10.3330002  43.0839996  29.9109993  10.7460003  42.9399986  28.5219994
   5.2470002  46.6739998  37.9790001   5.2410002  46.1240005  37.1910019
   5.9840002  47.2570000  37.8540001  14.8959999  70.8619995  42.6730003
  14.6260004  70.5970001  41.8059998  14.3789997  70.2229996  43.2379990
   7.6209998  67.1859970  42.0000000   7.1139998  67.3550034  42.8190002
   7.4720001  68.0569992  41.5789986   6.3680000  61.9230003  23.1730003
   5.9759998  61.2709999  23.8190002   5.7610002  62.7019997  23.3169994
   4.7909999  55.3059998  16.2660007   3.9159999  55.7519989  16.1679993
   5.1939998  55.5379982  15.3739996  17.8379993  63.3919983  18.6490002
  17.4540005  64.1419983  18.1410007  17.7029991  63.7169991  19.5860004
   8.2539997  43.5979996  34.9659996   8.9040003  43.7039986  34.2200012
   8.9029999  43.4290009  35.7029991  10.1400003  56.1699982  31.8260002
   9.7779999  56.7420006  31.1089993  10.1739998  56.7910004  32.6409988
   8.4759998  52.3889999  32.6580009   9.3940001  52.0629997  32.8559990
   8.1680002  52.4710007  33.5989990  11.4790001  52.4770012  30.7539997
  11.4329996  53.0349998  31.5590000  10.7379999  52.8909988  30.2619991
  15.4189997  54.7060013  33.5970001  16.2000008  54.1170006  33.2690010
  14.7209997  53.9799995  33.5099983  77.1579971  57.4259987  37.8849983
  76.5400009  58.0610008  38.2980003  76.5130005  57.1790009  37.1209984
  12.8629999  44.8769989  30.7870007  12.3839998  44.2690010  30.2709999
  12.1660004  45.2739983  31.3540001  79.2770004  40.1189995  44.7929993
  78.7699966  39.3390007  44.5509987  80.1529999  39.6959991  45.0839996
   7.2940001  58.3269997  17.0769997   6.6710000  57.7280006  17.4699993
   7.8420000  57.7039986  16.5340004  76.5569992  54.0400009  36.5159988
  77.5179977  54.1949997  36.4230003  76.2119980  54.3979988  35.7029991
  17.0370007  37.1930008  38.5489998  16.9190006  36.9179993  37.6749992
  16.9939995  38.1300011  38.5940018   4.6490002  53.8040009  37.5499992
   5.5450001  54.1720009  37.3720016   4.0780001  54.5970001  37.4850006
   2.6310000  64.9140015  36.0589981   3.3340001  65.0009995  36.6969986
   3.1190000  64.6910019  35.2579994  14.6820002  58.2039986  36.3139992
  15.3190002  57.4650002  36.0449982  15.2049999  58.6609993  36.9850006
  79.3799973  49.7159996  53.8190002  79.5120010  50.6899986  54.1119995
  80.2760010  49.4900017  53.5419998  73.4899979  67.4550018  35.7400017
  73.4929962  66.8239975  34.9529991  74.3809967  67.1750031  36.1180000
   6.4640002  42.7760010  42.5250015   6.9650002  42.0429993  42.9710007
   5.5599999  42.5859985  42.9109993   4.8090000  65.2099991  24.7350006
   5.5840001  65.4899979  24.1940002   4.2100000  65.0530014  23.9710007
  11.4809999  66.3509979  23.7010002  12.0799999  65.8470001  23.1259995
  12.1940002  66.7519989  24.3169994  11.1610003  49.7389984  39.3590012
  10.9060001  48.7620010  39.2050018  11.0830002  49.7630005  40.3180008
   9.4490004  43.8499985  22.2660007   8.8299999  44.6230011  22.2800007
  10.2830000  44.3079987  22.1270008   8.1280003  48.8359985  56.8829994
   8.1520004  48.3199997  56.0419998   7.3629999  49.4360008  56.6790009
   9.7209997  55.8349991  45.5250015   8.8750000  55.4210014  45.6419983
   9.7040005  56.6809998  46.0540009  22.7870007  64.3280029  44.4000015
  21.9060001  64.7300034  44.6570015  23.3869991  64.8669968  44.9329987
  68.9850006  71.0910034  27.1819992  68.5790024  70.1999969  27.4500008
  69.0449982  71.4980011  28.0400009   4.5139999  66.5230026  33.1419983
   3.9419999  67.3320007  33.0359993   3.8440001  65.9039993  33.5009995
  15.0830002  40.0099983  31.0480003  14.5530005  40.4910011  30.3090000
  15.6330004  39.4020004  30.4529991   2.6700001  65.5260010  40.2179985
   2.0510001  65.7409973  40.9609985   2.1110001  65.2490005  39.4780006
   3.4050000  55.2190018  40.9630013   3.4119999  55.7360001  40.1329994
   2.6350000  55.6269989  41.4210014  79.3229980  54.4129982  36.6710014
  79.0979996  54.6360016  37.5970001  79.8889999  55.2919998  36.5460014
  19.5799999  53.3510017  31.6919994  20.1639996  54.1110001  31.6159992
  19.5330009  52.9480019  30.8430004  10.9180002  59.2410011  34.1510010
  11.5600004  59.9640007  34.1850014  10.7189999  59.2879982  33.1829987
  12.0600004  41.3339996  34.3880005  11.2250004  40.8520012  34.3190002
  12.6459999  40.7319984  33.8870010  19.1399994  55.0260010  50.0130005
  19.3139992  55.9199982  50.2229996  18.9020004  55.0600014  49.0519981
  20.4740009  69.3290024  41.9459991  20.6959991  68.7939987  42.7210007
  20.5240002  70.2720032  42.2449989   1.8510000  62.0909996  33.3829994
   2.5610001  62.6320000  33.7770004   2.3099999  61.8330002  32.5359993
   8.4090004  35.3050003  38.8310013   8.7270002  35.3520012  37.8959999
   7.8629999  36.0800018  38.8940010   8.5780001  65.3720016  32.4220009
   7.9280000  65.7109985  31.8120003   8.7349997  66.1849976  32.9679985
   7.0809999  62.8510017  40.6710014   6.7930002  61.9309998  40.8689995
   6.2849998  63.2939987  40.4109993   7.3779998  53.1870003  42.6520004
   6.6680002  52.9700012  41.9910011   7.0840001  54.0670013  42.8969994
  21.9759998  50.2709999  48.0499992  22.9559994  50.1780014  47.8969994
  21.9169998  51.2389984  47.9160004   5.9390001  49.9269981  45.5079994
   5.8410001  49.0439987  45.0180016   6.7480001  50.2599983  45.0730019
  78.6460037  67.4670029  39.3979988  78.1039963  67.9380035  40.0620003
  78.4800034  68.1449966  38.6559982   3.4860001  46.6450005  46.0849991
   3.3699999  47.5460014  46.4300003   3.2880001  46.9269981  45.1209984
   1.2580000  38.8330002  32.3800011   0.7130000  39.3779984  32.9990005
   2.1650000  39.0139999  32.6699982   5.1760001  57.8180008  26.5919991
   4.9559999  58.4990005  27.2590008   4.2639999  57.6790009  26.1819992
  75.1460037  47.3419991  24.1580009  75.7529984  47.7999992  23.4790001
  75.2779999  47.9290009  24.8670006   2.4990001  41.3250008  37.3540001
   2.8280001  42.1809998  37.5730019   1.5590000  41.3979988  37.3450012
   3.1980000  56.0730019  37.4090004   2.5780001  56.5540009  38.0130005
   2.6090000  56.1310005  36.6290016   6.1009998  48.8899994  49.0089989
   6.3800001  48.3450012  48.2249985   5.2519999  48.4119987  49.2309990
  15.8809996  67.6250000  34.5639992  15.9969997  67.5130005  33.5919991
  15.3459997  68.4199982  34.6129990   4.7480001  42.8839989  39.5579987
   4.3179998  43.6259995  39.0760002   4.4679999  43.1889992  40.5379982
   8.9720001  45.5439987  37.7120018   9.5150003  44.7050018  37.6669998
   8.1169996  45.1360016  38.0200005   8.8219995  67.0920029  21.2929993
   8.3129997  67.8669968  21.4120007   8.6309996  66.8600006  20.3460007
  10.9449997  53.2929993  19.2399998  10.8369999  53.6549988  18.3139992
  10.3809996  53.9529991  19.7010002  68.8160019  62.7700005  37.5320015
  68.6299973  63.5730019  37.0400009  68.0309982  62.2150002  37.3460007
  20.5690002  64.4469986  38.8510017  20.7220001  64.6620026  37.9090004
  19.5699997  64.3700027  38.8390007   2.3369999  35.5690002  42.5579987
   1.5150000  35.0849991  42.3610001   2.5720000  35.1250000  43.4300003
  11.5909996  57.4010010  42.3959999  10.9090004  57.6339989  41.7109985
  12.3970003  57.3909988  41.8390007  18.6420002  52.1349983  44.0629997
  18.4260006  52.1839981  43.1030006  17.6469994  52.2779999  44.3870010
  76.1019974  53.8699989  33.5429993  76.0159988  54.7459984  33.1119995
  77.0540009  53.7239990  33.4729996  74.5250015  41.1269989  53.0120010
  74.7669983  40.4519997  52.3610001  75.0869980  40.9679985  53.7529984
  74.4120026  51.4189987  36.2739983  75.0650024  52.1139984  36.0779991
  75.0370026  50.6419983  36.4140015  14.9969997  49.8349991  45.4669991
  14.6160002  50.1199989  46.3269997  14.3760004  50.1800003  44.8250008
  11.0679998  50.1599998  42.0309982  10.2959995  50.7299995  42.3279991
  10.8420000  49.4000015  42.6619987  10.3210001  33.1860008  42.1209984
  10.5649996  33.5209999  41.2280006  10.3660002  32.2319984  41.9070015
  11.3310003  36.6329994  38.5800018  11.3940001  37.0509987  39.4480019
  11.1520004  35.7159996  38.8330002  40.6129990  -1.1640000  35.4449997
  40.8839989  -1.6720001  36.2130013  40.7890015  -0.2760000  35.7120018
  17.4379997  56.0880013  45.0460014  16.4699993  56.1199989  44.8380013
  17.7140007  55.5390015  44.2729988   4.0710001  35.9659996  38.4669991
   4.2729998  36.5190010  37.6539993   3.0760000  36.1209984  38.4869995
  14.3249998  68.9499969  29.8080006  13.5299997  69.5439987  30.0020008
  13.8870001  68.2490005  29.3020000  15.1479998  57.7809982  14.8409996
  15.6680002  57.0379982  15.2760000  14.9329996  58.2840004  15.6510000
   7.1640000  69.2720032  37.6100006   7.2270002  69.4820023  36.6380005
   8.0170002  69.6940002  37.9269981   8.1929998  31.8020000  43.6640015
   7.2230000  31.8320007  43.9010010   8.0970001  32.3989983  42.8359985
  72.8740005  54.5690002  45.4059982  73.4830017  54.7610016  44.7029991
  72.0780029  55.0519981  45.0719986   0.7540000  51.5870018  38.1010017
   0.7990000  52.5239983  38.2750015   1.4560000  51.2519989  38.6930008
  79.1340027  40.1450005  33.6590004  78.2639999  40.5190010  33.9980011
  79.5719986  40.9690018  33.5009995  11.4099998  33.9949989  32.4070015
  12.0050001  34.7620010  32.5470009  12.1280003  33.3479996  32.0649986
   3.0360000  48.2879982  62.0569992   3.0829999  48.2010002  61.0919991
   3.9219999  48.4930000  62.3129997  73.2649994  51.7350006  28.2350006
  72.7330017  51.5530014  27.4659996  74.1159973  51.9949989  27.8129997
   7.5990000  52.3440018  35.1069984   6.9159999  51.6010017  35.1059990
   8.0120001  52.2779999  35.9490013  11.1079998  52.3089981  45.8300018
  10.6739998  52.3180008  44.9119987  10.2440004  52.3979988  46.3370018
  72.3820038  56.8849983  43.2700005  72.9629974  57.5989990  43.6790009
  73.1500015  56.4179993  42.8069992  12.2469997  51.2019997  35.2649994
  11.6850004  51.6590004  35.9259987  12.3940001  50.3339996  35.6839981
  16.5139999  42.5859985  37.2729988  15.7170000  42.3820000  36.6780014
  16.5939999  43.5480003  37.0929985   7.2740002  70.0940018  35.0929985
   6.7560000  70.1320038  34.2490005   7.7519999  70.9309998  34.9599991
  13.7530003  62.9580002  39.6300011  12.9619999  63.5169983  39.6020012
  14.0609999  62.9640007  38.7000008   9.8710003  56.8940010  34.4690018
  10.3000002  57.6980019  34.8559990  10.1379995  56.2620010  35.1879997
   9.9320002  59.1339989  40.5260010   9.4989996  59.8559990  40.0270004
  10.8369999  59.4529991  40.5730019   5.3790002  61.2360001  51.9049988
   4.5270000  61.6479988  51.5730019   5.7859998  61.0620003  51.0270004
  76.9250031  53.6150017  29.4270000  77.1790009  54.5559998  29.4290009
  77.8040009  53.2210007  29.3320007  13.6370001  67.2239990  24.9279995
  14.1540003  67.5230026  24.1580009  14.1099997  67.8280029  25.5860004
   6.2989998  47.0260010  34.1899986   5.4229999  47.2050018  33.7620010
   6.3740001  47.7169991  34.8530006  17.0060005  69.6890030  29.7280006
  16.1350002  69.2959976  29.6870003  17.0380001  69.9619980  30.6560001
  12.6990004  64.9980011  36.1419983  13.0530005  65.5080032  36.8979988
  12.1280003  64.4079971  36.6489983  19.7210007  71.3349991  32.7980003
  20.1819992  71.9810028  33.3950005  19.7479992  71.8089981  31.9930000
   5.4180002  64.3239975  43.0429993   5.8579998  64.5739975  42.2260017
   4.9790001  63.4850006  42.7700005  14.6820002  58.3199997  46.1749992
  14.4150000  57.5219994  45.6800003  14.9320002  57.9010010  47.0309982
   9.8350000  66.0260010  35.1650009  10.0220003  65.1149979  35.0870018
   9.4519997  66.1269989  36.0690002  27.0489998  62.2340012  48.7879982
  26.6280003  62.5489998  47.9869995  26.6310005  62.8250008  49.4490013
  36.8339996   9.0620003  34.3260002  37.6809998   8.5600004  34.1520004
  37.2290001   9.9560003  34.4399986  25.1609993  63.8089981  50.2849998
  24.4360008  64.3219986  50.7309990  25.8589993  64.5070038  50.2449989
   8.0950003  69.9229965  21.5109997   8.6490002  69.4889984  20.7950001
   7.2859998  70.1679993  21.0620003  20.9979992  65.0059967  41.4059982
  21.8080006  65.4899979  41.1689987  20.7310009  64.7070007  40.4900017
  22.2950001  64.7669983  28.3710003  22.3780003  63.8310013  28.4699993
  23.2119999  65.1019974  28.4260006  38.4990005   2.7820001  34.0649986
  39.1619987   3.1940000  34.6479988  37.8709984   3.4970000  33.9480019
   6.3810000  60.2939987  41.2830009   6.3979998  60.2190018  40.3059998
   6.7420001  59.4519997  41.5690002  29.4169998  66.2610016  29.4200001
  29.0000000  65.4749985  28.9729996  29.7299995  66.7229996  28.5909996
   6.7849998  61.7529984  29.2619991   6.1750002  62.5620003  29.2019997
   7.5939999  62.1529999  28.9389992   4.9239998  68.8089981  48.4679985
   5.3030000  68.3799973  49.3590012   5.7069998  68.5110016  47.9239998
  14.3970003  64.4020004  51.1990013  14.5039997  63.6310005  51.8460007
  15.2349997  64.8359985  51.4230003  29.4640007  64.0029984  31.2889996
  29.1690006  64.6900024  30.6650009  29.8929996  63.3429985  30.6630001
  31.1439991  -1.9560000  46.6650009  31.7819996  -1.6710000  46.0289993
  30.8020000  -1.1339999  47.0089989   6.4959998  64.1719971  45.4970016
   7.3649998  64.6159973  45.3250008   6.0370002  64.3990021  44.6650009
  20.2950001  68.1559982  39.3779984  19.4389992  67.9950027  38.9770012
  19.9960003  68.4390030  40.2589989  38.7260017  -0.5190000  41.3639984
  39.1819992   0.3610000  41.2029991  39.4700012  -1.0440000  41.7179985
  40.3769989  68.3059998  42.7589989  39.9249992  67.7870026  42.0789986
  41.2939987  67.9759979  42.6300011  15.7320004  53.5040016  47.3139992
  16.5809994  53.7050018  47.6049995  15.1590004  53.4360008  48.0639992
  21.0860004  64.0579987  32.3689995  20.2870007  63.5519981  32.1739998
  20.7399998  64.9629974  32.0579987  21.0359993  63.9959984  53.3790016
  20.5979996  63.5579987  54.1570015  21.5909996  63.2360001  53.0820007
  15.4410000  72.8639984  37.8330002  16.3349991  72.6070023  38.2060013
  15.2430000  73.5589981  38.5270004  13.8730001  66.2529984  38.3489990
  14.7600002  65.8320007  38.4029999  13.6899996  66.5319977  39.2509995
  33.3260002  -1.7539999  22.8220005  33.6860008  -2.5150001  23.3820000
  33.6430016  -2.1170001  21.9570007   6.5089998  63.7449989  48.3600006
   6.3379998  63.8779984  47.3870010   5.7210002  64.2060013  48.7620010
  16.8789997  64.8590012  43.9749985  15.9309998  64.6039963  43.9700012
  17.2199993  64.3740005  44.7220001  35.3100014   3.0230000  31.1849995
  35.8320007   3.8399999  30.9969997  34.4490013   3.4730000  31.4290009
  26.5620003  -3.0170000  31.0090008  26.2360001  -2.5869999  30.1410007
  27.1599998  -3.6810000  30.5660000   6.4870000  66.9430008  31.3640003
   6.8299999  67.7529984  31.8670006   5.7379999  66.7089996  31.9699993
  26.2070007  64.6149979  43.7340012  26.9169998  64.2880020  43.1819992
  26.6760006  65.0989990  44.4399986  12.0080004  65.9649963  42.2869987
  12.7510004  66.4209976  41.7890015  11.4150000  65.8349991  41.5299988
  16.7029991  62.4280014  45.6969986  15.9139996  61.9449997  45.4980011
  17.3889999  61.6539993  45.7709999  28.7679996  -3.3959999  46.0439987
  29.0720005  -4.2449999  46.4070015  29.3780003  -2.7709999  46.4760017
  23.6490002  66.4189987  38.2970009  23.1380005  67.1399994  37.8530006
  23.2919998  66.5090027  39.2270012  14.6549997  63.0849991  36.9290009
  15.6120005  62.8530006  36.9650002  14.7060003  63.9259987  36.4160004
  20.2549992  65.2460022  44.9700012  19.7970009  66.1110001  44.8720016
  20.3540001  65.3040009  45.9809990  28.5820007  71.3239975  44.9360008
  28.4120007  71.7809982  44.0810013  28.0030003  70.5329971  44.7330017
  15.5799999  59.1459999  31.3460007  15.1420002  58.6619987  32.0800018
  14.7360001  59.6539993  31.0400009  13.8470001  62.2319984  18.5489998
  13.3369999  61.7779999  17.7900009  13.1320000  62.9099998  18.6770000
  13.5349998  68.7789993  37.7350006  14.4399996  68.9680023  37.4389992
  13.5509996  67.8119965  37.9099998  22.0660000  68.0849991  43.7060013
  22.8990002  67.7080002  44.1580009  21.7929993  68.7310028  44.4519997
  42.2649994  -0.9910000  40.0390015  41.8740005  -1.0980000  40.9119987
  43.1800003  -0.6860000  40.2929993   9.2349997  61.7470016  33.7459984
   8.9630003  61.4659996  32.9290009  10.1510000  61.9780006  33.6339989
  10.9790001  55.9140015  28.5529995  11.5699997  56.3769989  29.2189999
  10.5190001  56.6940002  28.1760006  26.6380005  63.0050011  35.3950005
  26.8449993  63.2610016  36.3149986  26.5450001  63.8390007  34.9630013
  20.0949993  62.6920013  46.7729988  20.2490005  63.6049995  47.1559982
  19.5529995  62.8730011  46.0029984  30.8600006  64.9440002  33.6660004
  30.2779999  64.3720016  33.0509987  31.7350006  64.6770020  33.3170013
  43.5660019   4.1009998  45.7739983  43.4869995   4.6589999  46.5820007
  43.5139999   4.8220000  45.0769997  26.4619999  71.8870010  34.6459999
  26.1140003  72.2829971  35.4690018  26.1030006  71.0009995  34.6990013
  41.4000015  -0.7000000  45.5789986  40.6430016  -0.6460000  46.1549988
  41.7949982   0.2390000  45.7999992   6.6680002  60.2130013  38.7369995
   6.1450000  59.5680008  38.1759987   7.0400000  60.7449989  37.9889984
  30.6779995  -4.0460000  49.7960014  30.9710007  -4.8850002  49.3689995
  31.4020004  -3.4740000  49.6669998  36.4280014   9.7620001  27.9759998
  36.2799988   9.2530003  27.1459999  37.1599998  10.3450003  27.6159992
  29.5599995  -4.7839999  25.8150005  29.9629993  -5.5669999  25.3589993
  28.6749992  -5.0710001  25.8759995  25.9820004  63.7970009  46.7519989
  25.2430000  64.4509964  46.7130013  25.6310005  63.1349983  46.0970001
  18.5359993  62.2669983  32.0890007  17.9689999  61.8050003  31.4599991
  17.8290005  62.8219986  32.4980011   6.2420001  47.6199989  43.8829994
   5.7670002  46.8450012  43.5330009   6.8130002  47.9269981  43.2159996
  47.0880013   0.7920000  34.2970009  48.0499992   0.8750000  34.2369995
  46.7739983   1.7210000  34.2060013   7.8239999  57.5929985  41.1619987
   7.5339999  57.5779991  40.2150002   8.6379995  58.0730019  41.0789986
  39.8199997   8.8950005  35.9889984  40.6790009   8.9729996  36.3199997
  39.4669991   8.0340004  36.3330002   6.9369998  69.4889984  40.5960007
   6.9850001  69.3300018  39.6220016   6.5349998  70.3909988  40.5610008
  29.0499992  68.1920013  38.0769997  28.9680004  68.2730026  37.0919991
  28.1760006  68.4700012  38.3639984  15.9060001  63.3050003  41.2299995
  15.4110003  63.3610001  42.0900002  15.1409998  63.2159996  40.6440010
  28.1200008  64.4649963  41.7080002  28.1429996  64.7310028  40.7459984
  28.4090004  63.5519981  41.6300011  14.0799999  67.1289978  41.0349998
  14.8909998  67.3190002  41.5960007  13.9239998  68.0869980  40.7529984
  12.3330002  65.9540024  26.9559994  13.1759996  65.4749985  27.1119995
  12.6750002  66.5550003  26.2530003  19.5669994  58.0690002  32.1059990
  19.2509995  58.1080017  33.0429993  20.4020004  57.5649986  32.3040009
  62.8940010  35.1279984  79.9789963  63.3470001  35.9399986  79.8339996
  62.3040009  35.0550003  79.2200012  14.1870003  64.3639984  43.4570007
  13.5070000  64.8740005  42.9440002  13.5690002  63.6699982  43.8460007
   8.3950005  66.6559982  37.3969994   7.9770002  67.5879974  37.4099998
   8.3929996  66.4260025  38.3059998   3.5960000  51.3899994  37.2929993
   3.6440001  51.3160019  36.2960014   4.0440001  52.2630005  37.4850006
  21.3789997  74.5329971  38.6679993  21.6539993  73.9580002  39.3569984
  21.7040005  74.1849976  37.8870010  32.1809998  -3.0850000  40.7039986
  32.1609993  -2.2370000  41.2089996  31.2029991  -3.2079999  40.6010017
  23.6490002  65.5770035  33.6839981  22.7870007  65.1320038  33.4519997
  23.3090000  66.3560028  34.2050018  32.5690002   1.2000000  32.5460014
  31.9529991   1.9080000  32.8460007  32.4560013   1.3260000  31.5769997
  17.7570000  69.0390015  48.4560013  17.2560005  68.1689987  48.4339981
  16.9950008  69.6559982  48.3950005  30.7770004  -2.2520001  36.8940010
  30.4090004  -2.4470000  37.7570000  30.0559998  -2.3750000  36.2789993
  15.8789997  60.8209991  40.5559998  15.9650002  61.7050018  40.9000015
  15.2430000  60.3639984  41.0530014  51.6759987   4.1560001  35.5289993
  50.8740005   4.6160002  35.2869987  52.2210007   4.1069999  34.7700005
  11.1770000  64.5400009  46.5169983  11.9200001  64.6389999  47.1660004
  10.5340004  64.0459976  47.1049995  36.2579994  -2.2210000  39.4860001
  36.9099998  -1.6660000  38.9370003  35.9869995  -1.5690000  40.1349983
   7.5419998  61.4560013  36.0660019   7.8410001  61.7669983  35.1739998
   8.4429998  61.1730003  36.3940010  10.8389997  70.7109985  35.8219986
  11.1289997  70.4649963  34.8820000  10.8079996  71.6750031  35.7309990
  20.4710007  -0.5710000  41.1220016  20.6630001  -0.3660000  40.1580009
  19.7369995  -1.2220000  41.0600014  35.4230003  -1.9370000  25.5720005
  36.3339996  -2.1730001  25.2819996  34.8680000  -2.6640000  25.2010002
  13.2340002  60.5820007  30.8040009  13.2519999  61.5309982  31.0529995
  12.2469997  60.5349998  30.8540001   9.8339996  66.3820038  53.1090012
  10.3750000  65.5999985  52.9280014  10.2650003  66.7919998  53.9169998
  57.2039986  42.0480003  78.5770035  57.6380005  42.9080009  78.2490005
  56.7570000  42.5000000  79.3619995  37.8950005  -2.5539999  24.7310009
  37.8610001  -2.6540000  23.7689991  38.2620010  -3.3870001  25.0419998
  13.4320002  56.6489983  26.3880005  12.7840004  55.9840012  26.0520000
  14.1099997  56.0180016  26.7779999  24.1429996  63.6969986  42.1549988
  23.5070000  63.9650002  42.8510017  24.9939995  63.9529991  42.5639992
  53.4620018  22.1180000  80.4100037  54.3740005  21.8129997  80.6090012
  53.2799988  22.7339993  81.1009979  17.4829998  56.9440002  25.9300003
  18.3360004  57.0460014  26.4270000  17.8260002  56.7579994  25.0590000
  19.7770004  70.7839966  36.1739998  19.4120007  69.9609985  35.7910004
  19.6650009  71.4290009  35.4650002  32.1349983  -4.5879998  29.1130009
  31.4500008  -4.3490000  28.4360008  31.9340000  -3.8050001  29.6860008
  16.8649998  64.4830017  33.1699982  15.9610004  64.3730011  33.5040016
  16.6930008  64.5699997  32.2070007  20.2040005  66.2570038  31.0380001
  20.5359993  67.0660019  30.6529999  19.9979992  65.7389984  30.1980000
  46.0810013  -0.2500000  31.9519997  46.4850006   0.4970000  31.4610004
  46.2379990   0.1920000  32.8689995   1.0580000  59.7410011  43.9599991
   1.3990000  60.5839996  44.2849998   1.9240000  59.2620010  43.8839989
  27.7259998  75.8130035  29.1089993  28.3430004  76.5179977  28.8929996
  26.8710003  76.2429962  28.9750004  10.3669996  70.8820038  43.9739990
  10.5439997  70.1890030  43.2980003  10.7740002  70.4619980  44.7709999
   9.5719995  67.3330002  47.4970016  10.5010004  67.1480026  47.6259995
   9.1459999  66.6600037  48.1100006  13.6999998  70.3150024  46.6940002
  13.4680004  69.7160034  45.9510002  13.4589996  71.1930008  46.2739983
  13.6199999  70.3079987  53.9959984  12.6389999  70.4520035  53.9700012
  13.9619999  71.2389984  53.7389984  22.3659992  -2.2960000  44.3750000
  23.1100006  -1.7359999  44.1290016  21.8530006  -1.6960000  44.9990005
  20.3279991  72.7480011  48.0579987  19.9909992  72.4290009  48.8829994
  20.0900002  73.7070007  48.1500015  20.5249996  73.0559998  34.5940018
  20.4389992  74.0029984  34.8370018  21.3600006  72.8809967  35.0989990
  39.2529984   2.5750000  46.3380013  39.3569984   1.6010000  46.2949982
  39.9199982   2.7530000  47.0470009  44.5989990   1.8720000  36.9230003
  45.5480003   1.7640001  36.9570007  44.3349991   2.5969999  37.4500008
  20.6089993  62.7719994  43.2280006  20.9029999  63.1440010  42.3600006
  20.5230007  63.5810013  43.7330017  37.7560005   1.6710000  36.8320007
  38.7540016   1.8609999  36.6870003  37.4389992   1.9980000  35.9959984
  11.0909996  69.1210022  45.8450012  11.1149998  68.2919998  45.2540016
  10.4540005  68.7720032  46.4770012  17.0900002  70.9879990  33.3600006
  17.9899998  70.7710037  33.0820007  17.1760006  72.0289993  33.3250008
  31.4220009  68.4069977  34.8279991  32.0699997  69.0830002  35.1389999
  31.7619991  67.6190033  35.2340012  24.7670002  67.7269974  44.5029984
  25.1639996  67.5930023  43.6310005  25.2649994  68.4759979  44.8170013
  39.6780014   1.9060000  40.7130013  40.4799995   1.6930000  40.1679993
  39.9119987   2.8210001  40.9900017  13.0170002  64.5410004  21.9540005
  12.5609999  64.5770035  21.0760002  12.5749998  63.7299995  22.3409996
  16.6609993  67.7519989  41.7190018  17.3810005  67.0490036  41.8199997
  16.8160000  68.2760010  42.5410004   4.3790002  65.1740036  48.7779999
   3.7030001  64.4550018  48.7060013   3.8699999  65.9179993  48.3470001
   7.2189999  54.6119995  37.8870010   7.0840001  55.4360008  38.3919983
   7.5679998  54.0050011  38.5970001  21.7159996  64.6340027  49.8330002
  21.0900002  64.6849976  50.6180000  22.4570007  65.1220016  50.2179985
   4.7249999  59.8800011  28.6569996   4.2670002  60.7369995  28.4580002
   5.5920000  60.1980019  28.9440002  11.7760000  61.4790001  28.3439999
  11.7159996  60.7770004  27.6459999  12.6820002  61.4669991  28.5990009
   0.7010000  64.5029984  50.6409988   1.4520000  64.7279968  51.2089996
   0.7510000  65.0630035  49.8790016  31.0380001  61.6980019  32.7130013
  30.3549995  61.4399986  33.3580017  31.7989998  61.8610001  33.2980003
  26.9820004  62.6129990  38.2970009  27.6739998  62.1119995  37.8289986
  27.4790001  62.9160004  39.0880013  18.7189999  66.1220016  34.1300011
  18.9629993  66.4690018  33.2439995  18.0070000  65.5179977  33.8629990
  39.9210014  14.6280003  27.3750000  40.5639992  15.0170002  28.0030003
  40.3619995  14.6920004  26.5520000  16.4470005  65.7910004  36.3759995
  16.1830006  66.4309998  35.6679993  17.1930008  65.3410034  35.9879990
  27.9570007  67.3970032  32.8009987  27.5270004  67.7080002  31.9689999
  28.8560009  67.4339981  32.5379982  25.8719997  65.4619980  37.1710014
  25.9489994  65.7460022  36.2480011  24.9190006  65.6999969  37.3059998
  29.8810005  70.8199997  35.6839981  30.5139999  71.0309982  34.9490013
  29.4619999  70.0319977  35.3520012  52.9480019   2.8350000  19.6639996
  53.4739990   3.3110001  20.3479996  53.1609993   3.4449999  18.9009991
  17.8990002  64.5920029  39.6980019  18.3010006  65.4560013  40.0299988
  17.5400009  64.2519989  40.5320015  18.6919994  60.6889992  45.6730003
  18.5900002  59.7290001  46.0019989  19.4039993  60.9469986  46.2750015
   9.5410004  47.7739983  36.1409988   8.6059999  48.0519981  36.1349983
   9.4720001  46.8429985  36.4980011  10.7430000  54.8870010  43.3450012
  10.2069998  55.4300003  43.9819984  11.0799999  55.7029991  42.8339996
  31.7989998  73.6169968  46.6580009  32.4860001  74.2949982  46.7089996
  32.3260002  72.8170013  46.4900017  33.6199989  73.6019974  43.9449997
  32.7540016  73.1940002  43.6360016  33.5629997  73.2949982  44.8720016
  43.0610008  79.3850021  30.5450001  42.6879997  78.4840012  30.4510002
  43.0099983  79.5650024  31.4950008  34.1010017  76.7990036  53.1430016
  34.5489998  76.0189972  53.4809990  34.7809982  77.0960007  52.5180016
  48.2599983   4.4289999  40.5800018  47.5019989   4.8200002  40.0429993
  48.3820000   3.5990000  40.0960007  21.7329998  71.0270004  38.8330002
  21.9979992  71.7969971  39.3870010  20.8239994  70.8730011  39.1980019
  31.4510002  60.9410019  26.1389999  30.7570000  60.9500008  26.8810005
  32.0940018  60.3979988  26.4860001  25.5429993  69.1569977  34.9280014
  25.7719994  68.3840027  34.4000015  24.6140003  69.3209991  34.7309990
  27.5799999  65.8519974  45.6949997  27.5289993  65.1999969  46.4630013
  27.8449993  66.6279984  46.1759987  38.0429993  77.3639984  27.4309998
  37.8940010  78.2040024  26.8500004  37.4710007  76.7269974  27.0900002
  24.1509991  65.8590012  46.2770004  24.4740009  66.4830017  45.5120010
  23.5209999  66.5070038  46.6809998  22.3610001  74.7180023  43.0299988
  22.0079994  75.6689987  43.1329994  21.7549992  74.3310013  43.7309990
  56.3059998   5.4590001  27.8110008  57.2709999   5.2900000  27.8710003
  56.3170013   6.4229999  27.9200001  58.8839989   4.6700001  27.5389996
  58.8969994   3.9330001  28.1609993  58.7560005   4.1389999  26.7549992
  24.0790005  60.7369995  35.8180008  24.1590004  61.2210007  34.9500008
  24.9209995  60.2340012  35.7859993  35.0209999  71.2809982  37.4739990
  34.7459984  72.0230026  38.0489998  34.9900017  70.5979996  38.1839981
  45.6570015  82.7009964  32.9850006  45.0589981  83.4509964  33.1679993
  45.4410019  82.5199966  32.0629997  39.2789993  75.5910034  39.5229988
  38.9290009  74.7330017  39.8790016  39.7620010  75.1910019  38.7490005
  30.2290001  73.6100006  37.4160004  29.9039993  73.9160004  38.2620010
  29.6609993  72.8519974  37.1940002  30.0349998  65.8960037  56.4440002
  29.9890003  65.1910019  55.7480011  30.8619995  65.5390015  56.8870010
  30.5510006  47.2509995  86.3259964  31.0249996  46.4090004  86.3479996
  31.2119999  47.8330002  85.9270020  30.4810009  50.2239990  80.0130005
  29.6940002  49.9169998  80.4410019  31.1509991  49.6240005  80.4840012
   9.5959997   9.5640001  29.4909992   9.7720003  10.3420000  28.9080009
   8.6339998   9.4370003  29.3080006   5.0669999  15.7049999  27.2450008
   5.3230000  14.8879995  26.8320007   5.8169999  16.2639999  27.2019997
   2.4200001  26.7110004  20.3330002   2.6140001  27.4610004  20.9459991
   2.3970001  25.9689999  20.9720001   4.8720002  17.8549995  22.0559998
   4.4860001  16.9850006  21.8600006   4.4010000  18.5009995  21.5330009
  35.7910004  43.6320000  85.0059967  35.5890007  43.6230011  85.9860001
  35.4239998  42.8120003  84.7549973  25.5760002  50.4710007  69.9079971
  26.2059994  50.2560005  70.6389999  24.8339996  49.9020004  70.2500000
  11.3280001  36.3549995  20.7539997  10.8950005  36.7430000  19.9920006
  10.8680000  35.4830017  20.8579998   7.6350002   6.7800002  31.5189991
   7.4299998   5.9530001  32.0050011   8.2600002   6.4089999  30.8600006
  77.7649994  18.2099991  24.0849991  76.8349991  17.9179993  24.2070007
  78.1989975  17.4009991  24.3910007   6.5819998  29.6520004  36.3569984
   7.1830001  30.0930004  35.7649994   7.1550002  29.0639992  36.8639984
   6.6760001   9.2259998  31.8880005   6.7020001   9.2410002  32.8330002
   7.0920000   8.3179998  31.7290001  51.7379990  74.7679977  16.4270000
  52.6100006  74.6920013  16.9290009  52.0740013  74.7180023  15.5059996
  76.7320023  19.1389999  17.0650005  75.7300034  19.2660007  17.2029991
  76.7689972  19.3129997  16.1140003  22.8139992  49.8940010  84.6360016
  23.5650005  50.0750008  85.2870026  22.6749992  50.8359985  84.2580032
  31.7220001  52.9449997  77.9499969  30.9470005  53.5779991  77.9789963
  31.9260006  53.0099983  78.9820023   2.6719999  25.0540009  26.1350002
   2.2960000  25.4319992  26.8910007   3.5950000  25.5249996  26.1870003
   3.2809999  14.5209999  22.5200005   3.0330000  14.7209997  21.5970001
   2.5170000  14.9320002  22.9860001   3.1630001  23.6469994  29.1289997
   2.5660000  23.2169991  28.4510002   2.6420000  23.4050007  29.9069996
   9.8199997  30.9920006  25.3899994   9.8100004  30.0709991  25.2679996
  10.7500000  31.1840000  25.6879997   8.5810003  46.5530014  25.2770004
   8.7019997  47.5000000  25.5779991   9.0260000  46.1049995  26.0119991
   2.9549999  28.3190002  36.5209999   2.0550001  27.8880005  36.6049995
   3.3399999  27.9950008  37.3779984  71.8119965  23.5480003  44.3149986
  72.5609970  23.4890003  43.7120018  72.2590027  23.4540005  45.1699982
  23.0990009  60.5000000  76.4290009  23.1830006  60.0600014  75.5419998
  24.0200005  60.2709999  76.7020035   1.7100000  32.9869995  25.7080002
   0.8920000  33.5279999  25.9050007   1.3260000  32.1129990  25.7649994
  77.1589966  48.9160004  16.3589993  77.2549973  48.0859985  16.8530006
  76.2949982  49.2159996  16.6159992  15.2670002  26.6359997  32.5379982
  14.9399996  26.1289997  31.7859993  15.7379999  25.8840008  33.0190010
   9.5769997  30.6000004  18.8880005   8.9849997  30.1490002  18.2700005
   9.2390003  31.5009995  18.8360004   6.5980000  22.7070007  26.6340008
   6.4619999  23.3110008  25.8519993   6.3350000  23.3269997  27.4020004
  78.7030029  25.7950001  24.7380009  78.6750031  26.3990002  23.9470005
  77.7369995  25.5359993  24.7399998  26.2560005  64.4899979  76.1569977
  26.1200008  64.4940033  75.2269974  25.3969994  64.2170029  76.5380020
   2.8139999  36.1139984  33.1489983   1.9710000  36.6139984  32.9589996
   2.5390000  35.2089996  32.9220009  20.8509998  28.7749996  28.3020000
  21.4419994  29.4820004  28.1910000  19.9839993  29.2250004  28.1490002
  76.9300003  33.9539986  17.3369999  77.0039978  33.0480003  16.8750000
  76.7949982  33.6010017  18.2399998   3.8610001  41.1739998  26.0060005
   3.2049999  41.1949997  26.7129993   3.3929999  40.6360016  25.3889999
  76.0479965  26.4769993  32.6829987  75.2149963  26.4850006  32.1749992
  76.4069977  27.3670006  32.3689995  12.5609999  30.6040001  28.3959999
  12.2200003  30.6380005  27.4750004  12.4750004  31.5709991  28.6469994
  10.9670000  34.0499992  18.0249996  10.7510004  33.8320007  17.1089993
  10.2329998  34.5919991  18.2670002  75.2360001  30.1359997  36.7050018
  75.0439987  30.8339996  37.3510017  76.2389984  30.1359997  36.7820015
   8.9860001  35.8129997  43.0489998   8.4060001  35.1710014  42.6160011
   8.5469999  36.6650009  42.8260002   5.6620002  24.5470009  28.4909992
   5.7090001  25.4729996  28.6520004   4.7900000  24.2670002  28.7530003
  22.5590000  27.4559994  33.1220016  21.9699993  27.5340004  33.9000015
  23.3090000  26.9740009  33.5379982  13.0450001  21.7469997  29.1359997
  12.1470003  21.3479996  29.3090000  13.1879997  21.3080006  28.2579994
  17.8490009  31.9069996  25.3430004  18.2880001  32.0180016  24.5170002
  17.4780006  30.9750004  25.2570000  10.0410004  22.2759991  24.6110001
   9.1969995  21.6930008  24.8899994  10.3369999  21.6410007  23.9099998
   8.8219995  31.2280006  29.3500004   8.8450003  30.6240005  30.1060009
   9.2139997  32.0040016  29.7509995  21.9489994  64.1549988  73.3779984
  22.8250008  63.6250000  73.4309998  22.2980003  64.7860031  72.6800003
   9.5190001  33.2080002  30.7740002  10.0979996  33.7849998  31.2959995
   8.6899996  33.6879997  30.8050003  78.4720001  46.8940010  53.9300003
  78.9950027  47.7570000  54.0200005  78.3960037  46.7060013  54.8699989
  12.9809999  27.8419991  20.9270000  13.5559998  27.5400009  21.6459999
  12.0839996  27.6940002  21.2999992  79.4550018  32.7610016  22.1590004
  78.5970001  33.2050018  22.4960003  79.3860016  31.9799995  22.7280006
  67.1819992  21.1650009  37.6650009  67.9400024  21.8349991  37.7039986
  67.0149994  21.0270004  38.6399994  10.4359999  27.7010002  24.8829994
  10.1920004  28.0720005  25.7919998  10.0220003  26.8330002  24.9710007
   4.9530001  39.7980003  35.7929993   4.8210001  40.2350006  36.5730019
   5.5460000  39.0870018  36.0089989   3.1450000  28.9279995  26.2040005
   2.2770000  29.2919998  25.8449993   3.6760001  29.7479992  26.0930004
   4.4099998  20.5919991  33.7169991   5.1459999  19.9650002  33.3460007
   4.0660000  20.9640007  32.8759995  11.9729996  30.8330002  11.2250004
  11.1389999  30.8439999  10.6739998  12.2819996  31.7299995  11.1129999
  25.1930008  52.4869995  82.1689987  24.5610008  51.8419991  81.7399979
  25.3689995  53.0639992  81.3610001   7.7440000  27.2119999  22.2700005
   6.8670001  27.0259991  22.7029991   7.6799998  26.5930004  21.5300007
   4.8099999  28.7049999  21.7900009   4.9970002  28.8659992  20.8509998
   5.6149998  29.1849995  22.1779995  11.3369999  38.0519981  23.1879997
  11.5200005  37.5589981  22.3540001  10.9650002  37.2750015  23.6900005
  10.2819996  26.6590004  16.5839996   9.6549997  26.5160007  15.8409996
  10.8879995  27.3279991  16.2010002   3.0940001  40.8260002  22.2110004
   3.7579999  41.5559998  22.2719994   2.3920000  41.3129997  21.7329998
  76.2850037  35.5110016  20.6410007  75.5350037  35.9300003  20.2409992
  75.8889999  34.8209991  21.2280006  79.5410004  18.5200005  38.5359993
  79.5739975  17.6389999  38.2120018  80.1959991  19.0380001  37.9780006
  76.2040024  19.2059994  31.9869995  76.2200012  19.6580009  31.1170006
  75.6019974  19.8479996  32.4990005  79.5800018  34.9059982  11.1450005
  78.7429962  35.0849991  11.6709995  80.0979996  35.6829987  11.2650003
   6.6630001  43.3479996   9.3579998   7.4569998  42.8030014   9.3959999
   6.6020002  43.4199982   8.3730001  74.2239990  36.3610001  25.1949997
  73.3529968  36.1520004  25.5419998  74.0550003  37.2010002  24.7329998
   4.4499998  20.5070000  42.9350014   5.4369998  20.5869999  43.0089989
   4.3200002  19.5529995  42.7200012  71.9400024  28.0480003  11.4029999
  72.2679977  27.2759991  10.8820000  71.5459976  28.5070000  10.6029997
   0.2280000  14.5769997  22.3250008  -0.1720000  15.0730000  23.0529995
   0.2870000  15.2639999  21.6320000   4.5209999  23.5939999  19.4230003
   4.8590002  24.5419998  19.2299995   4.4480000  23.7329998  20.4160004
  50.6920013  85.6210022  30.5650005  51.5139999  85.7389984  31.0580006
  50.0600014  85.8389969  31.2649994  77.0510025  32.2109985  25.4729996
  76.2249985  31.7719994  25.8239994  77.3809967  32.5509987  26.3540001
  13.9189997  33.2519989  10.9410000  13.9910002  33.3269997  11.9219999
  14.8649998  33.3839989  10.6800003   4.1129999  23.7549992  22.4309998
   3.1470001  23.9020004  22.5389996   4.3850002  24.4270000  23.1580009
  18.7999992  30.3320007  33.4700012  19.3780003  30.4029999  32.6879997
  18.2199993  31.0860004  33.3409996  16.2980003  33.7260017  29.6980000
  16.3369999  33.5410004  28.6830006  16.9780006  33.0750008  29.9540005
   6.1009998  41.8580017  34.0810013   6.8880000  42.3269997  34.3050003
   5.4130001  42.2610016  34.6739998   6.8670001  34.7480011  30.4549999
   6.0390000  34.1899986  30.4069996   6.5270000  35.4860001  31.0389996
   9.5730000  30.3230000  21.4930000   9.7530003  29.4039993  21.6100006
   9.5389996  30.3939991  20.5310001   6.7020001  34.3479996  26.2049999
   5.7810001  34.3689995  26.5130005   6.9029999  35.3489990  26.3670006
  15.0360003  43.1559982  31.4279995  14.6350002  42.6209984  30.7159996
  14.5550003  44.0070000  31.2859993  11.7910004  33.3359985  28.6180000
  11.7320004  34.1689987  28.0300007  10.9560003  33.3520012  29.0359993
   6.5240002  49.6870003  15.6230001   6.2670002  50.5900002  15.5839996
   7.1560001  49.5260010  14.9569998   6.0219998  23.9710007  34.6780014
   5.4480000  24.7859993  34.7050018   5.8449998  23.6760006  33.7500000
  73.6269989  28.9419994  16.0340004  73.8389969  28.8670006  15.0530005
  72.6679993  29.2420006  15.9449997  78.1439972  17.2630005  35.3610001
  77.2959976  16.8090000  35.0830002  77.9550018  18.1450005  34.9490013
  10.9169998  45.8250008  32.4049988  10.7449999  44.9949989  32.9319992
   9.9180002  46.0550003  32.2830009  14.5070000  29.9529991  22.7700005
  15.0340004  30.7830009  22.7420006  13.6250000  30.3530006  22.7369995
   6.0209999  52.5279999  22.3549995   5.1170001  52.7719994  22.2889996
   6.3439999  52.7200012  21.4190006   8.8479996  37.6279984  15.0000000
   8.3299999  38.1100006  14.3529997   8.5760002  37.9949989  15.8400002
  29.3320007  54.8030014  82.6269989  30.2360001  54.6199989  82.9980011
  29.3759995  55.7130013  82.4219971  16.0279999  31.3950005  19.5820007
  15.8319998  32.1459999  18.9379997  16.8560009  31.0520000  19.2099991
   7.5730000  41.8380013  22.2759991   7.9070001  41.4099998  23.1040001
   8.4410000  42.2099991  21.9360008   5.7240000  25.7959995  18.2089996
   5.9219999  25.2509995  17.3999996   4.9629998  26.2819996  17.8150005
   0.7360000  23.9410000  32.6469994  -0.2310000  24.0289993  32.4239998
   1.0220000  23.1639996  32.1739998  21.9109993  16.3460007  33.8059998
  21.4190006  15.5229998  33.9659996  21.6420002  16.4519997  32.8549995
   8.0489998  20.8750000  24.9680004   7.4949999  21.3080006  25.6499996
   7.3490000  20.3640003  24.5200005   6.6190000  19.7019997  32.1440010
   6.2319999  19.1420002  31.4769993   7.4990001  19.2989998  32.2799988
  11.7530003  21.8869991  26.5470009  12.6330004  22.2940006  26.4249992
  11.3230000  22.1840000  25.7259998   9.2639999  34.5369987  20.9190006
   8.9200001  33.9720001  20.2049999   8.4440002  35.1500015  20.9360008
   2.3469999  40.8810005  17.4680004   2.2790000  39.9300003  17.3120003
   3.2400000  41.1080017  17.1760006  10.4200001  41.7690010  31.5170002
  10.9029999  40.9770012  31.1459999   9.5970001  41.3180008  31.7929993
  78.5479965  45.7519989  29.5109997  79.2770004  45.1150017  29.2859993
  78.9359970  46.2130013  30.2649994  13.3210001  39.5670013  33.0349998
  13.2410002  38.6409988  33.1749992  13.9200001  39.6580009  32.3260002
   7.3439999  57.9230003  12.7419996   8.3020000  57.8590012  12.8959999
   7.3769999  58.4650002  11.8739996  11.5459995  55.3750000  24.5319996
  11.9099998  54.9669991  23.6499996  11.6669998  54.6250000  25.1000004
  75.2109985  29.5669994  49.5320015  75.6610031  28.7439995  49.5779991
  74.5439987  29.3939991  48.8059998   4.8829999  35.0320015  19.9960003
   4.7760000  34.0800018  20.2929993   3.9000001  35.1489983  19.7830009
  12.3820000  35.2439995  13.5469999  12.5959997  34.3300018  13.3900003
  13.0240002  35.6409988  14.0410004  74.1439972  27.9029999  37.9280014
  73.7570038  27.4459991  37.1860008  74.7310028  28.5620003  37.4809990
   1.7550000  21.3640003  35.0489998   1.1289999  21.0170002  34.3699989
   2.6300001  21.0900002  34.6689987  72.5699997  20.4759998  34.2060013
  72.4670029  19.6049995  33.7089996  73.3550034  20.7819996  33.7280006
   7.3480000  27.4920006  15.5190001   7.5689998  27.7089996  14.6239996
   6.9850001  26.5709991  15.4010000   3.8940001  21.1720009  31.1410007
   4.0630002  20.9769993  30.2089996   2.8920000  21.0650005  31.1609993
  71.5609970  22.1450005  31.7600002  72.5139999  22.0860004  31.7070007
  71.2570038  21.2240009  31.4969997   7.9210000  32.9669991  19.0730000
   7.2440000  32.6819992  19.7590008   7.3270001  33.3129997  18.3799992
  72.3199997  25.6539993  13.2229996  73.1119995  25.1009998  13.1899996
  72.5159988  26.3020000  12.5249996  75.3929977  17.2430000  24.8889999
  75.5110016  17.0279999  25.8260002  74.4069977  17.2390003  24.8209991
  25.0139999  28.0900002  19.7900009  25.1590004  27.8659992  18.8470001
  25.0769997  27.2049999  20.2140007   9.6499996  38.2639999  37.2290001
  10.2679996  37.8120003  37.8009987  10.1660004  38.1879997  36.3880005
   0.5800000  41.9389992  21.2649994   0.7120000  42.2299995  20.3260002
   0.4740000  41.0130005  21.1509991  75.5199966  26.6580009  45.6809998
  74.5640030  26.6210003  45.7229996  75.6299973  27.2490005  44.9269981
  16.2950001  38.6459999  28.9860001  15.8430004  38.2120018  28.2129993
  17.2199993  38.4700012  28.7970009  13.6149998  37.0159988  31.3269997
  14.0590000  36.9189987  30.4829998  12.7370005  37.3790016  30.9930000
   6.0960002  36.2760010  16.0650005   6.8290000  36.6580009  15.5010004
   5.4480000  36.0499992  15.3999996  20.1469994  33.0530014  35.4809990
  19.7040005  32.8489990  34.5999985  21.0470009  32.7439995  35.2470016
   5.5019999  33.9949989  35.1539993   5.5430002  33.4749985  35.9570007
   4.5640001  34.2970009  35.1590004  15.1099997  38.9799995  36.1500015
  15.5860004  38.2799988  35.6129990  14.3760004  38.3779984  36.4959984
  16.4540005  27.6989994  18.1180000  17.2870007  27.7399998  17.5869999
  16.7900009  28.0820007  18.9669991   4.9520001  33.4459991  32.1150017
   5.8759999  33.1139984  32.2789993   5.0289998  34.2970009  32.4959984
   0.7930000  26.7819996  36.8989983   0.0410000  26.6870003  37.4580002
   0.4430000  26.8360004  35.9749985   7.2940001  12.1070004  29.7730007
   6.5279999  12.6160002  29.7040005   7.8420000  12.4270000  29.0610008
   7.9340000  37.0079994  23.3820000   7.6399999  36.9490013  22.4370003
   7.2129998  37.4710007  23.7600002   8.9750004  21.1140003  27.6030006
   9.6990004  21.2630005  26.9330006   8.3870001  21.8409996  27.3209991
   3.0860000  19.0900002  28.0590000   3.1020000  18.8619995  27.0760002
   4.0300002  19.4239998  28.0569992   1.5750000  48.8540001  18.9419994
   1.0640000  48.4430008  18.2360001   1.6100000  48.0940018  19.5820007
  18.8700008  24.6219997  36.4319992  19.6389999  24.1119995  36.8380013
  18.6170006  23.9720001  35.7299995  11.9119997  30.7280006  17.2280006
  12.5489998  30.3369999  17.8700008  11.2209997  31.0960007  17.8719997
  17.2080002  20.7619991  39.3680000  17.4510002  20.5760002  38.4519997
  17.6170006  21.6469994  39.5139999   5.8049998  27.1380005  29.0949993
   6.0590000  27.6410007  29.9039993   6.2230000  27.7000008  28.4069996
  13.6300001  27.4909992  35.1910019  13.5900002  27.4480000  34.1910019
  13.5810003  28.4780006  35.2729988  15.3909998  34.7159996  23.7660007
  15.6750002  34.0120010  23.1849995  15.0939999  35.4000015  23.0919991
  76.8980026  27.4559994  35.1520004  76.9589996  26.8719997  34.3190002
  77.4290009  28.2019997  34.8219986  38.3979988  59.0719986  68.7239990
  38.5489998  59.3909988  69.6589966  39.2109985  58.6090012  68.5729980
  74.5500031  24.1930008  20.6690006  74.4410019  24.2180004  19.7040005
  73.5999985  24.1399994  20.9729996  13.4840002  26.0520000  15.4510002
  12.9940004  26.9130001  15.2049999  13.8120003  26.2549992  16.3540001
   7.2680001  25.8670006  32.7140007   6.6510000  26.5909996  32.4780006
   6.7300000  25.0809994  32.4809990  79.0950012  21.7689991  19.0660000
  79.3270035  21.5720005  20.0200005  78.3550034  22.3560009  19.2619991
  45.4090004  71.2210007  65.7929993  45.3320007  71.7890015  65.0339966
  46.0859985  70.5820007  65.5520020   8.4949999  22.2299995  18.7089996
   9.1149998  23.0000000  18.5119991   8.3610001  21.8059998  17.8430004
   6.6510000  41.3759995  31.1700001   6.5560002  41.9720001  31.8980007
   6.3889999  42.0120010  30.4270000  26.5060005  59.0379982  71.1119995
  26.8710003  59.6889992  70.4879990  26.7940006  59.3950005  71.9690018
  74.2829971  17.9029999  22.1970005  75.1930008  17.5709991  22.3799992
  73.8229980  17.5060005  22.9689999   8.0740004  15.5019999  32.9700012
   7.2490001  15.1969995  32.5550003   8.7559996  14.9270000  32.5289993
   6.0809999  34.0419998  17.2749996   5.4920001  34.3489990  18.0009995
   6.4210000  34.9189987  16.9720001  25.7520008  71.5569992  73.8069992
  26.1210003  72.0380020  74.6240005  24.8509998  71.4369965  74.1559982
  10.4860001  27.7189999  22.0890007  10.5430002  27.5219994  23.0319996
   9.5170002  27.4689999  21.9099998  29.9410000  33.1170006  29.4179993
  29.0160007  33.1529999  29.0949993  30.2759991  32.4070015  28.8129997
  77.0240021  41.8930016  19.4960003  76.4369965  41.7960014  20.2989998
  76.8990021  40.9729996  19.1860008  14.3590002  44.2900009  34.4679985
  13.5330000  44.0270004  34.1300011  14.5730000  43.5859985  35.0550003
   0.0890000  20.9549999  21.4979992   0.6140000  21.2000008  22.2929993
   0.7700000  20.4069996  21.0620003  74.9589996  42.9010010  27.8530006
  75.1969986  43.6800003  27.2759991  74.5619965  43.3409996  28.6119995
   6.9010000   9.4010000  23.2859993   7.0000000   9.0830002  24.2399998
   7.1100001   8.5030003  22.9009991  11.7900000  31.2759991  22.9029999
  11.3009996  32.1699982  22.8549995  11.0740004  30.7250004  22.4990005
   6.8109999  50.0519981  23.3780003   6.5330000  50.8709984  22.9839993
   7.7140002  49.9760017  22.9780006   6.9349999  53.2299995  19.9090004
   6.4349999  53.2060013  19.0809994   7.4150000  52.4090004  19.9029999
   9.5860004  54.0250015  29.8160000   9.2939997  54.5600014  30.5750008
  10.0159998  54.7280006  29.2649994  11.5609999  45.6110001  21.6490002
  12.1709995  46.2459984  22.0049992  12.1029997  45.2309990  20.9279995
   3.1640000  55.7929993  33.2500000   3.5330000  55.3709984  32.4589996
   2.3350000  56.1409988  32.8899994   8.2500000  53.1819992  23.9020004
   7.3480000  53.0029984  23.4750004   8.1669998  54.1559982  24.0130005
  12.9689999  58.4900017  19.5179996  13.4540005  58.5130005  20.3360004
  12.1040001  58.8190002  19.8770008   6.9580002  54.9959984  35.0110016
   7.1680002  53.9970016  35.1380005   7.2010002  55.2480011  35.9529991
  12.8420000  51.0960007  26.0319996  12.5889997  51.7550011  26.6730003
  12.8620005  50.2690010  26.5459995  12.6309996  47.1220016  24.9370003
  12.2629995  46.2840004  25.3190002  12.6090002  47.7159996  25.6989994
  11.0539999  40.5670013  39.9700012  11.6850004  41.0480003  39.3670006
  11.3380003  40.8919983  40.8750000   9.1540003  54.7220001  20.3990002
   8.2989998  54.1860008  20.4549999   8.6780005  55.5919991  20.6219997
   9.6090002  47.8110008  16.6870003   9.0430002  47.4869995  15.9440002
  10.3649998  47.2210007  16.5030003   7.8699999  57.8520012  27.3020000
   8.2060003  58.4529991  26.5720005   6.9410000  58.1759987  27.3390007
   7.8290000  34.4640007  33.9319992   7.5640001  33.7229996  33.3899994
   6.9770002  34.5610008  34.4399986  15.1590004  35.6650009  19.2169991
  14.2889996  35.5489998  18.7679996  15.6510000  36.1699982  18.5660000
   2.0639999  46.4939995  20.3209991   1.8170000  45.7169991  19.8029995
   2.8590000  46.1769981  20.8589993   7.6269999  45.5340004  29.4669991
   6.9330001  46.0800018  29.8330002   8.3179998  45.6539993  30.1359997
  13.2449999  38.8359985  26.9880009  13.0839996  38.1059990  27.6210003
  13.5509996  38.3839989  26.2000008  11.6920004  53.7140007  27.0769997
  12.3520002  53.4840012  27.7339993  11.2270002  54.4659996  27.6480007
  16.6210003  36.2330017  30.8719997  16.5459995  35.3310013  30.4500008
  15.8800001  36.6510010  30.4099998   7.3330002  48.8479996  18.0939999
   8.0679998  48.2910004  17.7059994   7.0479999  49.2989998  17.2600002
  61.8689995  18.8309994  73.5250015  61.0279999  19.3829994  73.5950012
  61.8540001  18.3859997  74.4130020  22.7180004  58.3860016  11.8009996
  23.1760006  57.5600014  12.1429996  22.6599998  58.8349991  12.6949997
   3.8650000  46.7690010  17.7369995   3.1810000  46.1720009  18.0319996
   3.3659999  47.4410019  17.2360001  17.1000004  51.7410011  15.7110004
  18.0690002  52.0159988  15.8909998  17.0419998  52.1459999  14.8430004
   9.2110004  46.2229996  20.1599998   8.6730003  46.2080002  21.0380001
  10.0790005  45.8800011  20.6149998  14.4340000  49.0970001  16.3889999
  14.3090000  48.5379982  17.1970005  14.2830000  48.4280014  15.6949997
   7.9150000  55.7630005  24.4689999   7.4720001  55.5390015  25.3840008
   7.5879998  56.6790009  24.3829994  10.7180004  64.3919983  31.0340004
   9.9329996  64.7500000  31.5230007  10.4930000  64.5520020  30.1429996
   4.0190001  63.7890015  33.9510002   4.2880001  62.9580002  34.4729996
   4.6120000  63.7150002  33.2080002   7.9679999  46.5009995  22.6049995
   6.9780002  46.6440010  22.4549999   7.9460001  46.6080017  23.5900002
  15.8079996  36.8759995  26.8729992  16.7070007  36.5919991  26.5769997
  15.5030003  37.3790016  26.1480007  13.0799999  56.7369995  30.4880009
  13.9340000  56.2840004  30.4069996  13.1400003  57.0260010  31.4540005
  10.1529999  43.0120010  36.7019997   9.5959997  42.2400017  37.0050011
  10.9989996  42.7360001  37.2060013   7.2249999  57.4939995  33.8899994
   8.1750002  57.5390015  34.0750008   6.9829998  56.5989990  34.1590004
  10.5539999  43.3820000  33.6469994  10.5690002  42.7879982  32.8709984
  11.2519999  42.9560013  34.2080002   2.7200000  56.1300011  23.5639992
   3.0120001  56.7809982  24.2140007   2.6770000  56.7150002  22.7229996
   0.9060000  43.7019997  29.0310001   0.8170000  43.3390007  28.1049995
   1.7300000  43.3730011  29.2870007  77.8040009  49.9169998  22.9200001
  77.9739990  49.0390015  22.4570007  78.3239975  49.7179985  23.7639999
  10.6990004  52.3750000  37.3820000   9.9340000  51.8050003  37.3580017
  11.0369997  52.2659988  38.2809982   9.9180002  54.7589989  36.2820015
   9.6730003  55.3040009  37.0460014  10.2510004  53.9510002  36.7420006
  11.2100000  44.7669983  25.3290005  10.9980001  44.5050011  26.2870007
  10.3950005  45.1930008  25.1170006   6.2220001  45.0169983  35.8660011
   7.0009999  44.4560013  35.5569992   6.3090000  45.7659988  35.2220001
   9.9230003  57.8779984  37.1590004   9.8219995  58.8160019  36.9640007
  10.9160004  57.8479996  37.2490005   8.3030005  51.1080017  37.6489983
   8.0699997  50.2599983  38.1759987   8.2010002  51.7490005  38.4059982
  16.6180000  39.9959984  38.2369995  16.6100006  40.8530006  37.7029991
  15.8920002  39.5110016  37.7840004   6.4190001  55.2550011  26.7369995
   7.0260000  55.7890015  27.3659992   5.8520002  56.0229988  26.4839993
   9.4989996  37.2939987  27.1849995   9.6389999  36.6730003  26.4290009
  10.0240002  38.0740013  26.9120007  16.0680008  48.9599991  35.0740013
  15.8739996  48.8260002  36.0079994  15.7399998  48.1119995  34.7179985
   6.4330001  42.8909988  18.9430008   7.1409998  43.4780006  18.7019997
   6.9130001  42.0719986  19.0949993  14.3039999  37.8670006  24.5450001
  14.8380003  38.4889984  24.0090008  14.3129997  37.0740013  23.9510002
  13.5480003  47.4809990  22.3479996  13.2290001  48.4259987  22.2950001
  13.4119997  47.3899994  23.3490009   9.4930000  49.1640015  29.5270004
   8.6770000  49.1809998  30.0139999  10.1079998  48.8009987  30.1800003
   0.8090000  42.4449997  42.9879990   0.0080000  41.9700012  43.0699997
   1.3750000  41.9720001  42.3779984   1.2410001  30.6240005  28.7740002
   2.1500001  30.3990002  28.9529991   1.1020000  31.3920002  29.3600006
  16.6280003  65.6380005  23.0639992  15.8649998  65.0559998  22.8400002
  16.2159996  66.4599991  23.2859993  11.8149996  54.0950012  22.0720005
  11.5330000  54.5540009  21.2329998  11.1980000  53.3289986  22.0020008
   0.2420000  54.7239990  23.6049995   0.2730000  53.8880005  24.1240005
   1.1950001  54.9609985  23.5879993   7.3680000  49.0070000  38.9070015
   7.5920000  48.3800011  39.6739998   6.3959999  49.1329994  39.1150017
  32.3470001  -0.4760000  19.8640003  31.6469994  -0.9380000  20.3750000
  33.1180000  -1.1010000  20.0209999  17.8589993  38.4970016  41.1980019
  17.4239998  37.9389992  40.5349998  17.3040009  38.3619995  41.9879990
   5.7729998  38.7729988  24.5669994   5.8070002  38.5870018  25.5400009
   4.9369998  38.3549995  24.2989998   6.4549999  49.3779984  26.0070000
   6.6360002  49.6419983  25.0960007   7.2709999  49.6800003  26.4570007
  70.5390015  67.5569992  20.5170002  69.9319992  68.3030014  20.3969994
  71.1900024  67.8069992  19.7970009  16.4160004  40.4770012  26.6439991
  17.3409996  40.4039993  26.3409996  16.5149994  40.0359993  27.5170002
  65.6579971  21.2119999  71.0650024  66.3649979  21.6450005  70.4729996
  65.5009995  20.3829994  70.5439987  14.7229996  47.1129990  18.2350006
  15.6409998  46.8240013  18.4909992  14.1929998  46.4990005  18.7800007
  77.3290024  42.4269981  23.4799995  76.8860016  43.1090012  24.0499992
  76.5599976  41.7639999  23.4150009   2.6610000  46.6199989  38.5009995
   3.6050000  46.7750015  38.6119995   2.4340000  47.1809998  37.7470016
  17.5799999  29.1200008  31.0849991  16.8999996  29.4640007  31.7310009
  16.9570007  28.5879993  30.5370007   4.9250002  49.4379997  31.2989998
   4.8060002  50.3569984  30.9799995   5.8990002  49.3899994  31.4619999
  14.7189999  50.2019997  32.6930008  14.4740000  51.1529999  32.5810013
  14.8610001  50.1790009  33.6349983  10.0970001  51.2490005  15.2430000
  10.0749998  52.1920013  15.4899998  10.3269997  50.8849983  16.1289997
   7.4800000  57.2000008  38.6189995   8.1990004  57.4230003  37.8969994
   6.6880002  57.4949989  38.0979996  12.7440004  48.4059982  27.4599991
  13.1260004  47.7750015  28.0839996  12.4250002  49.0999985  28.0440006
  10.4779997  51.6189995  22.4500008   9.9809999  50.8089981  22.4430008
   9.8369999  52.2220001  22.8939991  15.0070000  54.6699982  27.2880001
  14.6990004  53.8730011  27.7880001  15.8769999  54.8160019  27.7180004
   9.5150003  45.4930000  27.5949993  10.2349997  44.9469986  28.0209999
   8.8660002  45.4360008  28.2600002  16.5849991  56.3289986  35.5330009
  16.1159992  55.7070007  34.8820000  17.1739998  56.7849998  34.9430008
  12.5290003  50.0419998  23.2980003  12.4440002  50.1399994  24.2460003
  11.8479996  50.7130013  23.0170002  14.3009996  44.0489998  38.5340004
  14.9379997  44.2589989  37.7869987  14.1770000  44.9720001  38.8370018
  21.8160000  71.8939972  22.7900009  21.6350002  71.8209991  23.7880001
  21.1529999  71.2369995  22.4640007  13.1650000  61.7560005  25.3859997
  12.4300003  62.1980019  24.9220009  13.0679998  60.8190002  25.1250000
  15.0150003  61.5139999  27.4969997  14.5050001  61.4399986  26.6690006
  14.6980000  60.6489983  27.8750000  20.3899994  61.3820000  15.9960003
  21.1459999  61.7319984  15.4820004  20.1340008  62.1360016  16.5970001
  26.1840000  58.1160011  26.9480000  25.9549999  57.4720001  27.5830002
  25.6450005  58.9339981  27.2689991  15.5030003  69.6439972  20.0410004
  15.5640001  68.6910019  19.7950001  14.5539999  69.7020035  20.2700005
  17.2520008  53.4910011  17.7740002  18.1809998  53.6829987  18.0179996
  17.3729992  52.7770004  17.1399994  23.1170006  73.0240021  15.0769997
  22.9169998  73.6839981  14.3109999  22.7560005  72.2239990  14.6359997
  22.6340008  65.9410019  24.1459999  23.0510006  65.6119995  23.3640003
  23.3899994  66.3619995  24.6180000  17.6499996  61.9539986  27.3759995
  17.7420006  62.4539986  26.5380001  16.6229992  61.9249992  27.3729992
  24.3230000  62.8269997  33.4239998  24.0209999  63.6910019  33.7859993
  25.3220005  63.0530014  33.3510017  19.3619995  57.2099991  23.8269997
  19.6040001  57.8899994  23.1630001  18.6399994  56.7439995  23.3190002
  65.5370026  18.5839996  71.5699997  65.1569977  17.7579994  71.2559967
  66.3109970  18.6709995  70.9649963  19.5130005  71.2809982  45.9650002
  19.8029995  71.9729996  46.6069984  18.5799999  71.3799973  45.9939995
  30.5730000  60.0429993  30.5680008  30.6849995  60.6300011  31.3570004
  31.3230000  59.4770012  30.6590004  14.9300003  63.4739990  29.3349991
  14.9099998  62.6920013  28.7189999  14.3260002  63.0859985  30.0000000
  19.8799992  61.5919991  29.1210003  19.3139992  60.9869995  29.6870003
  19.1599998  61.8009987  28.4319992  66.5830002  25.9909992  74.5250015
  66.1360016  26.7500000  74.1460037  66.0830002  25.2150002  74.2269974
  21.6949997  71.1819992  28.6529999  21.4060001  72.0350037  29.0389996
  20.8470001  70.6920013  28.6499996  14.2600002  59.1949997  24.7970009
  14.0159998  58.4529991  25.4179993  15.2110004  59.3460007  25.1410007
  19.7840004  60.9910011  34.0229988  20.5060005  60.6959991  33.3899994
  19.3390007  61.5909996  33.4119987  14.8920002  66.8519974  13.0509996
  15.7040005  66.7030029  12.5530005  14.3400002  66.0950012  12.9200001
  22.7439995  62.0489998  31.2970009  22.0839996  62.7379990  31.6599998
  23.4599991  62.1629982  31.9449997  15.1190004  63.1860008  23.6910000
  14.8500004  62.8829994  22.8220005  14.3929996  62.8380013  24.2059994
  32.7980003  70.5930023  25.5030003  32.0159988  70.5800018  24.9799995
  33.3320007  69.9039993  25.0130005  20.8439999  56.2900009  17.8409996
  20.4260006  57.0190010  18.3990002  20.1760006  55.5929985  18.1779995
  42.9080009  -0.4530000  24.5440006  42.3310013  -0.5800000  25.3390007
  43.0849991  -1.3870000  24.3409996  13.8199997  59.2200012  28.1250000
  13.5790005  59.0690002  29.0730000  14.0740004  58.3820000  27.8090000
  34.1469994  69.7799988  39.9119987  34.0289993  68.8399963  39.6150017
  33.2260017  69.9840012  40.2019997  28.0030003  72.2860031  32.4739990
  27.7240009  71.9560013  33.3959999  27.1599998  72.3629990  32.1129990
  28.0660000  60.5849991  31.7609997  28.6819992  59.9749985  31.4480000
  28.3869991  60.7010002  32.6959991  29.2399998  69.9130020  30.3369999
  28.4249992  69.5759964  30.7880001  29.0340004  70.8420029  30.1499996
  22.2189999  68.4410019  37.5960007  22.2819996  69.3590012  37.9099998
  21.3549995  68.1770020  37.9949989  20.7910004  64.7760010  14.3999996
  20.9120007  64.6460037  15.3850002  19.8279991  65.1279984  14.4580002
  30.7290001  69.5820007  16.0349998  31.5049992  69.8249969  15.3599997
  30.1369991  70.2779999  15.6040001  27.8600006  61.3120003  17.0270004
  27.3250008  62.0769997  17.3330002  27.5629997  60.6300011  17.6790009
  23.1170006  55.4389992  12.0839996  22.5739994  54.7120018  11.7019997
  23.3729992  55.0550003  12.9490004  31.7929993  55.8069992   9.8400002
  32.4830017  56.0289993   9.1529999  31.7570000  56.6650009  10.3350000
  37.8950005  71.5599976  10.4029999  36.9799995  71.9049988  10.4610004
  37.6489983  70.6070023  10.4740000  24.9680004  63.3380013  25.0480003
  25.3619995  62.5159988  25.3619995  24.0209999  63.1710014  25.2530003
  26.5130005  57.1339989  20.5079994  26.1340008  57.1650009  19.5830002
  27.4519997  57.2999992  20.2700005  25.8230000  60.7480011  24.9319992
  25.1250000  60.1669998  25.3250008  25.4300003  60.7980003  24.0200005
  23.0300007  71.1409988  26.2630005  22.6110001  71.2979965  27.1170006
  22.5380001  70.3629990  25.9179993  21.0319996  62.2130013   8.4700003
  20.2479992  61.7439995   8.9519997  20.8180008  61.7589989   7.5669999
  30.2310009  58.5849991   7.0920000  30.2320004  58.8079987   6.1450000
  30.4020004  57.6419983   7.0549998  25.7980003  76.9720001  23.6170006
  25.5650005  76.6949997  22.7299995  26.8099995  76.7829971  23.5900002
  22.9559994  62.4249992  15.3549995  22.5879993  62.8530006  16.1009998
  23.0559998  63.1399994  14.7150002   3.9990001  67.2779999  21.6340008
   4.0679998  66.3119965  21.9169998   4.0920000  67.6610031  22.5639992
  23.3369999  69.2939987   8.0249996  23.1949997  70.1090012   7.5780001
  24.2830009  69.1669998   8.0450001  20.3540001  63.8250008  17.1189995
  20.9120007  63.8079987  17.8799992  19.4669991  64.0770035  17.5550003
  32.6129990  58.3190002  30.9319992  33.0000000  58.0929985  30.0739994
  33.4039993  58.7750015  31.3549995  29.1280003  65.4179993  35.7589989
  29.7730007  65.3389969  35.0589981  29.7099991  65.4840012  36.5620003
  26.5779991  61.7280006  29.3619995  26.9419994  61.4760017  30.2070007
  25.9139996  61.0730019  29.1569996  31.2110004  67.5999985  23.7749996
  32.0390015  68.1360016  23.5680008  30.6889992  68.3079987  24.2099991
  22.6450005  68.2229996  27.9559994  22.2329998  68.1269989  27.0809994
  22.9130001  67.3290024  28.1980000  15.4420004  70.5640030  26.6930008
  15.2469997  71.0279999  27.5149994  15.5489998  69.6660004  27.0020008
  22.4179993  61.9469986  28.6159992  22.7369995  61.8810005  29.5690002
  21.4619999  61.7579994  28.7339993  30.3829994  67.3099976  27.1110001
  30.8759995  66.4700012  26.8999996  29.6289997  67.2409973  26.5270004
  30.2320004  65.4869995  22.1329994  30.0970001  64.8489990  22.8789997
  30.5939999  66.2279968  22.7070007  44.8810005  -0.1140000  28.8439999
  44.3359985  -0.7430000  29.3309994  44.2879982   0.6890000  29.0090008
  44.1150017  60.9039993  35.7369995  44.7989998  60.2570000  35.5900002
  44.6290016  61.7690010  35.8310013  63.8600006  32.5040016  79.8130035
  63.7330017  33.4729996  79.6669998  64.0149994  32.2319984  78.8840027
  19.1429996  70.8880005  24.1219997  18.2280006  71.2460022  24.1770000
  19.6469994  71.6289978  24.4909992  23.8479996  70.2389984  17.8400002
  23.1450005  70.6679993  18.3560009  24.3980007  69.8720016  18.6210003
  31.8349991  69.4449997  31.1959991  31.3710003  68.6729965  31.6180000
  31.1560001  69.6819992  30.5450001  25.0119991  75.4400024  31.1189995
  24.8939991  75.6920013  30.1380005  24.1450005  75.6890030  31.4589996
  21.1679993  65.0370026  35.7200012  21.8969994  65.6610031  35.8499985
  20.5200005  65.5699997  35.2369995  17.9230003  60.5600014  23.6130009
  17.3090000  60.0639992  24.2730007  18.7700005  60.3870010  24.0310001
  35.5820007  67.4720001  26.6569996  36.1689987  68.2259979  26.7940006
  35.6230011  67.3290024  25.6949997  29.9720001  69.8389969  25.0690002
  29.6660004  70.7379990  24.8670006  29.5590000  69.7259979  25.9689999
  27.4039993  68.2570038  23.0349998  27.4750004  69.2050018  23.2619991
  27.3500004  67.9010010  23.9790001  25.5629997  65.2580032  31.7819996
  26.0119991  64.4840012  32.1370010  24.8810005  65.4150009  32.5070000
  10.5439997  59.2400017  31.4650002  10.2790003  58.5050011  30.8700008
   9.7700005  59.8370018  31.3570004  31.7500000  73.6060028  40.1339989
  30.9459991  74.0739975  40.3860016  31.5230007  72.6709976  40.3310013
  26.7250004  59.6380005  36.4920006  26.2029991  59.9210014  37.2700005
  27.1949997  60.4129982  36.2360001  13.1599998  62.6320000  13.2880001
  12.4860001  62.8590012  14.0000000  13.6560001  61.9770012  13.9110003
  34.6720009  61.1689987  28.7059994  33.8260002  61.5460014  28.9969997
  34.3950005  60.3339996  28.2150002  24.6599998  60.3370018  28.0769997
  24.1569996  59.8959999  27.3010006  23.9050007  60.8909988  28.3929996
  16.7119999  59.7509995  25.6480007  16.9829998  60.2910004  26.4309998
  16.9790001  58.8489990  25.9880009  30.2800007  69.3300018  20.5510006
  29.5459995  69.3290024  19.8859997  30.1410007  68.4489975  20.9740009
  29.1060009  61.3170013  34.4039993  29.5000000  61.2420006  35.3359985
  28.2800007  61.7809982  34.7639999  39.6030006  73.8659973  20.6590004
  40.1669998  74.3330002  20.0209999  40.0120010  72.9929962  20.7310009
  16.9950008  64.1819992  25.4309998  17.1980000  64.9540024  24.8659992
  16.3169994  63.7280006  24.8330002  33.2709999  77.4440002  18.9930000
  33.4669991  76.4899979  18.8759995  32.6020012  77.6029968  18.3209991
  19.4529991  62.9570007  36.2150002  19.8040009  62.2410011  35.6609993
  20.1070004  63.6549988  35.9329987  32.7050018  61.3050003  22.0860004
  31.8500004  61.1860008  22.5450001  33.1660004  61.8149986  22.8250008
  19.5559998  69.4499969  29.1040001  18.5709991  69.5110016  29.3239994
  19.4400005  68.8960037  28.2880001  48.4269981   1.2970001  27.3120003
  48.8050003   1.8780000  26.6259995  47.8670006   0.6900000  26.8059998
  26.7450008  -3.2550001  23.4570007  26.6910000  -2.3340001  23.8099995
  26.6100006  -3.1090000  22.4960003  24.5629997  68.9840012  13.1870003
  23.9209995  69.1520004  12.4370003  23.9689999  68.6770020  13.8719997
  29.5890007   3.6589999  22.6490002  30.3589993   4.1999998  22.5240002
  29.4820004   3.6190000  23.6130009  37.4129982  73.3460007  37.8639984
  36.8429985  74.1070023  37.9739990  37.6860008  73.1429977  38.7779999
  36.0979996  64.9530029  35.0019989  35.2550011  64.4769974  35.3230019
  35.6500015  65.7910004  34.7229996  17.4009991  56.9269981  21.9979992
  17.3279991  56.1250000  21.4470005  16.9969997  57.5890007  21.3950005
  32.8269997  66.0940018  36.1539993  32.0239983  65.8059998  36.6020012
  33.2999992  65.2080002  36.1679993  11.5509996  56.9339981  16.7439995
  12.2240000  57.3880005  17.2910004  12.0340004  56.0769997  16.5820007
  17.4220009  53.3670006  12.7480001  17.1210003  54.1689987  12.2489996
  18.3859997  53.5660019  12.7340002  22.9610004  74.6920013  13.2880001
  23.7189999  74.9970016  12.7679996  22.2789993  74.7699966  12.6070004
  33.8149986  71.7949982  32.0559998  33.7239990  71.4720001  31.1320000
  34.0789986  72.7610016  31.8980007  41.8919983  66.3099976  12.4350004
  42.0019989  65.3840027  12.0979996  42.5120010  66.7929993  11.8170004
  28.9419994  57.8559990  19.1219997  29.5179996  57.3639984  19.7800007
  29.5690002  58.4399986  18.7619991  27.6009998  64.8399963  25.7749996
  27.3509998  64.5839996  26.7420006  27.5730000  65.8190002  25.7980003
  17.7080002  53.0979996  22.6560001  17.3649998  53.8209991  23.2630005
  17.1250000  52.3429985  23.0319996  20.1340008  62.7120018  24.9379997
  21.0660000  62.4970016  25.3339996  19.7579994  61.8580017  25.0779991
  15.3699999  65.4020004  27.2770004  15.9940004  65.0169983  26.6329994
  15.1070004  64.6139984  27.7910004  15.8999996  67.3700027  31.8540001
  15.2270002  67.7249985  31.2719994  16.1650009  66.5339966  31.3059998
  13.0179996  70.3190002  25.4729996  12.4790001  70.2509995  26.2880001
  13.9130001  70.4940033  25.8700008  33.5540009  67.8799973  29.5990009
  33.2019997  68.3809967  30.2759991  33.1230011  68.2710037  28.7940006
  23.1949997  65.7330017  18.7380009  22.8509998  64.8560028  18.5799999
  22.4029999  66.1470032  19.1620007  24.8129997  56.2159996  15.7139997
  24.2509995  55.4949989  15.2869997  25.2369995  56.6380005  14.8979998
  45.6119995  -0.0030000  20.3460007  46.2560005  -0.1350000  19.6900005
  45.5810013  -0.8680000  20.8010006  35.8320007  70.1200027  24.7460003
  36.5579987  69.7490005  24.1940002  35.3699989  70.6510010  24.0359993
  22.1700001  63.9029999  21.5869999  21.6240005  63.6669998  22.3409996
  21.5879993  64.5110016  21.1119995  36.4679985  72.2750015  30.5489998
  36.5270004  71.3010025  30.5109997  36.8650017  72.4219971  31.4319992
  20.1459999  66.9970016  23.7639999  20.9979992  66.5849991  24.1310005
  19.6860008  66.1449966  23.5300007  21.0450001  59.0089989  22.5230007
  21.1359997  59.6539993  21.7630005  21.9470005  58.9939995  22.8820000
  70.1880035   9.1750002  20.9710007  70.9489975   8.5950003  21.2380009
  70.3059998   9.1680002  20.0100002  34.6349983  59.6990013  32.0909996
  34.6809998  59.5439987  33.0369987  34.9650002  60.5950012  31.9440002
  73.6790009  10.1650000  24.5039997  73.1529999   9.5240002  25.0359993
  74.0770035  10.6859999  25.2110004  35.9469986  74.3990021  16.0090008
  34.9560013  74.2799988  15.9350004  35.9980011  75.3580017  15.6920004
  31.9769993  65.1620026  26.7019997  32.9609985  65.2580032  26.8680000
  31.7350006  64.6890030  27.5139999  33.9199982  64.9369965  21.3470001
  33.7169991  65.2040024  22.3099995  33.3260002  64.1399994  21.2560005
  32.5229988  75.5220032  21.6749992  32.1329994  75.0500031  20.8670006
  33.0489998  76.2170029  21.1830006  35.9650002  76.8580017  15.1339998
  35.1399994  76.7580032  14.5539999  35.9830017  77.8310013  15.2200003
  42.1910019  72.7979965  12.4139996  41.2709999  72.3610001  12.4209995
  42.1809998  73.1200027  11.4919996  42.1679993  69.5680008  29.5240002
  42.6839981  68.7910004  29.3530006  42.0340004  69.5299988  30.4810009
  40.7630005  68.9840012  11.6199999  41.1899986  68.3389969  10.9510002
  41.0950012  68.6350021  12.4630003  48.5530014  73.9309998  33.5680008
  49.4659996  74.2490005  33.3820000  48.1699982  74.1119995  32.6980019
  23.9410000  66.4509964  29.7670002  24.5709991  65.9219971  30.3689995
  23.3090000  66.8050003  30.4340000  33.0730019  74.5230026  28.4200001
  32.2610016  74.0179977  28.5119991  33.5180016  74.0189972  27.7110004
  31.7880001  77.9150009  29.7430000  31.4969997  77.0510025  30.0139999
  32.5480003  78.0260010  30.3080006  47.1879997  71.0240021  22.8659992
  47.5670013  70.2040024  22.4729996  47.1430016  71.6119995  22.0930004
  28.2460003  66.8529968  21.0540009  28.8519993  66.2149963  21.4909992
  27.8260002  67.2740021  21.8460007  21.8969994  68.8629990  30.6399994
  22.3519993  68.8040009  29.7619991  21.0179996  69.2160034  30.2689991
  40.8720016  79.0960007  44.8120003  40.5530014  78.5419998  45.5410004
  41.5789986  78.4990005  44.4710007  39.0509987  65.4710007  24.5779991
  38.1469994  65.1480026  24.3869991  39.2220001  66.0039978  23.7609997
  30.8939991  75.0520020  19.2420006  30.1970005  75.0739975  19.9249992
  30.7380009  74.1579971  18.8530006  24.4330006  70.0810013  28.8869991
  23.9230003  69.6630020  28.1359997  24.3139992  70.9990005  28.6399994
  72.0400009  16.1280003  31.2630005  72.1009979  16.5610008  30.3560009
  71.2330017  15.6470003  31.1480007  29.2159996  72.3860016  24.1970005
  29.9510002  72.2580032  23.5400009  29.6669998  72.9609985  24.8589993
  69.8030014  10.3420000  30.9090004  68.9169998  10.3590002  30.5100002
  70.2419968   9.7889996  30.2570000  41.8619995  66.6299973  23.6280003
  41.7540016  65.6559982  23.7430000  41.1150017  66.8580017  23.1030006
  47.4990005  76.9319992  37.8829994  47.8019981  76.7060013  36.9990005
  47.5690002  77.8899994  37.8470001  39.3549995  70.5630035  31.0930004
  39.8530006  71.3440018  30.9279995  39.6699982  70.2509995  31.9769993
  35.7330017  71.6200027  27.3160000  35.5379982  70.9879990  26.6420002
  36.1710014  71.0889969  27.9629993  29.4829998  67.0599976  16.2579994
  29.5869999  66.6429977  15.3870001  29.9169998  67.9179993  16.0769997
  27.1229992  75.7819977  18.0340004  26.9960003  76.5999985  18.5389996
  27.2399998  75.1169968  18.7019997  57.0680008   5.0260000  14.0319996
  57.5110016   4.2540002  13.5299997  57.1790009   4.6690001  14.9879999
  35.4129982  70.5589981  44.4570007  35.8429985  70.4649963  43.5639992
  35.1010017  69.5849991  44.5279999  30.9710007  72.8970032  16.6159992
  30.1320000  72.5049973  16.2420006  30.8190002  72.8130035  17.5699997
  36.9020004  80.8320007  17.8379993  37.2360001  80.9309998  18.7940006
  35.9749985  80.4860001  18.1009998  29.3040009  73.4840012   9.0559998
  28.8950005  73.6529999   9.9189997  29.0400009  74.3239975   8.5799999
  29.8220005  64.3040009  24.3549995  28.9769993  64.4329987  24.8120003
  30.4200001  64.3519974  25.1329994  36.8610001  77.1539993  19.7830009
  36.3580017  77.8679962  20.2539997  37.5750008  77.6060028  19.4440002
  27.8390007  65.1259995  39.2120018  27.1539993  65.8059998  39.2430000
  27.8670006  64.9830017  38.2319984  40.4640007  72.0839996  33.5690002
  39.7060013  72.4749985  33.1790009  40.0719986  72.0889969  34.5730019
  27.3080006  71.6569977  29.0919991  27.0249996  72.2789993  28.3680000
  26.7469997  71.9909973  29.7980003  41.0219994  75.5680008  32.9990005
  41.7659988  76.1029968  33.3610001  41.5800018  74.8310013  32.6780014
  48.3040009  59.1450005  11.5790005  47.9090004  58.6040001  12.3479996
  47.4500008  59.4269981  11.2010002  36.3059998  63.6990013  24.2199993
  36.0369987  63.1609993  24.9820004  37.0629997  63.1030006  23.9349995
  45.7550011  70.6719971  33.1279984  46.2890015  70.8929977  32.3040009
  45.2700005  69.9130020  32.7589989  35.7989998  66.3249969  24.1100006
  36.0779991  65.4079971  23.8750000  34.8009987  66.1439972  24.0580006
  43.4710007  78.2839966  19.0730000  43.7109985  77.7080002  19.8230000
  44.1180000  77.9919968  18.4200001  36.2579994  71.3389969  16.8910007
  35.9360008  71.4919968  15.9580002  35.3699989  71.3089981  17.3099995
  53.1080017   4.6190000  26.8430004  53.9510002   4.3750000  26.4029999
  53.3520012   4.2389998  27.7390003  49.5509987  80.6370010  35.8289986
  49.7099991  80.8470001  34.9059982  48.8320007  81.2269974  36.0470009
  42.7750015  69.6350021  23.0540009  43.4459991  69.6920013  23.7929993
  43.2900009  69.2099991  22.3649998  46.6110001  76.2200012  26.2479992
  45.8510017  76.7590027  25.7989998  46.7849998  76.8280029  27.0730000
  35.3909988  65.1429977   7.6290002  36.0239983  64.3970032   7.5799999
  34.5919991  64.7149963   7.2470002  26.5470009  67.5479965  19.3330002
  26.2870007  68.4169998  19.7390003  27.1760006  67.2630005  20.0809994
  35.2859993  69.6800003  13.2329998  35.8450012  70.4720001  13.3090000
  35.6419983  69.2399979  12.4219999  50.0699997  71.9670029  31.3169994
  50.5009995  72.7160034  31.8360004  49.4550018  72.4509964  30.7830009
  36.2080002  77.2369995  24.9699993  35.8470001  78.0680008  24.5349998
  35.3600006  76.8119965  25.2049999  28.0149994  69.8489990   6.2370000
  27.8850002  69.9749985   5.2670002  27.9699993  68.8450012   6.2329998
  49.3750000  82.8280029  25.5230007  50.2739983  82.5199966  25.4109993
  49.5219994  83.7610016  25.6660004  41.9300003  64.1979980  18.2789993
  41.9799995  64.8180008  17.5610008  42.6949997  64.4769974  18.8500004
  24.3339996  67.7519989  25.1520004  25.1040001  68.0419998  25.6760006
  24.3789997  68.4079971  24.4169998  33.8530006  70.6309967  17.8120003
  34.1720009  70.0159988  18.5149994  32.9749985  70.2919998  17.6100006
  41.3320007  71.6989975  23.1720009  40.7970009  71.4810028  22.3969994
  41.8660011  70.7949982  23.1450005  35.5859985  69.1309967  19.7919998
  35.1759987  68.2959976  19.4799995  35.8930016  68.8730011  20.6809998
  26.6910000  68.5220032  30.6369991  25.7970009  68.7200012  30.9519997
  26.5599995  68.0830002  29.7530003  44.3269997  77.2460022  28.2000008
  43.3699989  77.5719986  28.0939999  44.5519981  76.9390030  27.3899994
  34.4990005  65.1060028  27.2490005  34.8950005  66.0279999  27.0599995
  34.6679993  65.1589966  28.2469997  40.0830002  71.0339966  28.2059994
  40.0130005  71.8529968  28.7679996  40.9150009  70.6529999  28.6550007
  36.5670013  65.4430008  21.1889992  36.3889999  65.8789978  20.3379993
  35.7099991  65.0930023  21.4629993  20.6240005  68.5940018  33.2639999
  21.0930004  68.4469986  32.3870010  20.2070007  69.4700012  32.9650002
  40.6339989  73.4619980  16.1910000  41.2680016  73.2030029  16.8549995
  39.7859993  73.2099991  16.5650005  36.6720009  80.1139984  32.8030014
  37.1259995  79.4820023  32.1990013  37.2010002  79.9189987  33.6440010
  33.8810005  79.5520020  51.2709999  33.2919998  78.9830017  50.7719994
  34.6660004  79.0090027  51.3919983  37.8790016  69.5110016  39.2579994
  38.0299988  68.6729965  38.8530006  38.5750008  70.0619965  38.8030014
  40.5050011  73.0370026  30.0970001  40.8409996  73.8479996  29.6919994
  41.0849991  73.0619965  30.9319992  64.1340027   6.6180000  14.0070000
  64.3580017   6.6599998  13.0740004  65.0299988   6.7900000  14.4029999
  31.7989998  77.9140015  25.3750000  31.3759995  77.1650009  24.9150009
  32.5979996  77.4150009  25.7329998   8.1820002  41.9900017  65.1819992
   8.7910004  42.4659996  64.5839996   8.7849998  41.4790001  65.7519989
  30.9319992  71.5319977  22.0279999  31.8789997  71.5999985  21.9729996
  30.7350006  70.7149963  21.5739994  22.7089996  67.3789978  40.9210014
  21.8449993  67.7779999  40.5040016  22.7080002  68.0419998  41.6850014
  24.2040005  69.3590012  22.9699993  24.3610001  70.1110001  23.5359993
  23.9190006  69.6989975  22.1320000  49.1549988  76.5220032  25.2560005
  48.3320007  76.3470001  25.7329998  48.8919983  77.1940002  24.6320000
  26.9410000  63.0800018  32.3870010  27.0039997  62.1250000  32.2270012
  27.8069992  63.4049988  32.0439987  35.8349991  75.6220016  37.7480011
  36.6930008  76.0899963  37.5089989  35.4939995  75.5289993  36.8250008
  48.0709991  75.7509995  15.8590002  48.2500000  75.5569992  16.7649994
  48.8219986  75.4130020  15.3750000  41.6450005  75.1240005  18.9950008
  42.1930008  74.3320007  18.9920006  41.7960014  75.5250015  18.1749992
  27.2310009  73.9189987  22.9410000  28.0389996  73.5589981  23.4069996
  26.5389996  73.2850037  23.3199997  36.9370003  74.4499969  19.9909992
  37.8450012  74.3509979  20.3349991  36.9519997  75.3929977  19.7689991
  47.6899986  65.7470016  21.7320004  48.3059998  65.7200012  20.9710007
  47.0180016  66.3880005  21.4850006  42.3079987  82.7630005  29.4239998
  42.1520004  82.1179962  28.7220001  42.5680008  82.1910019  30.1320000
  13.0039997  71.6470032  49.6959991  12.7709999  72.0139999  50.5820007
  13.6280003  70.9430008  49.9389992  49.0649986   1.4590000  31.9139996
  48.2470016   1.8810000  31.5200005  49.5330009   2.2920001  32.2019997
  27.3279991  64.3880005  28.5730000  26.9880009  64.6839981  29.4799995
  27.1840000  63.4550018  28.6089993  25.0489998  72.6279984  36.9910011
  25.4750004  73.3270035  37.5229988  24.7560005  72.0680008  37.7989998
  31.7199993  63.6199989  20.3190002  31.0200005  63.6380005  19.6259995
  31.2409992  63.9150009  21.1100006  25.7169991  73.7220001  19.7479992
  25.2830009  73.4209976  18.8829994  25.2399998  73.0110016  20.2980003
  30.0300007  60.9780006  23.7099991  29.2019997  61.4690018  24.0100002
  30.5289993  61.1180000  24.5259991  30.5909996  67.1979980  32.0070000
  30.2600002  66.7249985  31.2339993  31.1450005  66.5159988  32.4469986
  33.9710007  77.9179993  31.4029999  33.7830009  78.7750015  31.8269997
  33.5970001  77.2539978  32.0029984  28.1970005  70.1060028  18.8950005
  27.9529991  69.6460037  18.1180000  27.3719997  70.1959991  19.4309998
  33.3419991  62.3959999  24.4260006  33.9379997  62.3460007  25.1720009
  32.5209999  61.9980011  24.8470001  25.9950008  69.9950027  20.6429996
  25.2430000  70.6900024  20.6299992  26.1830006  69.9869995  21.5629997
  38.1090012  72.8659973  23.0100002  38.4480019  73.4069977  22.3209991
  38.5579987  73.1350021  23.8150005  26.1989994  64.6289978  23.0690002
  26.9060001  64.8440018  23.6989994  25.6499996  64.0800018  23.7469997
  38.1609993  59.5600014  30.7189999  37.4550018  58.9609985  30.4659996
  38.9620018  59.0559998  30.5289993  34.6049995  79.7330017  18.1590004
  34.2420006  79.0599976  18.7819996  34.4269981  79.1930008  17.3050003
  28.1030006  62.7159996  20.8160000  27.5919991  63.2239990  21.4069996
  27.7779999  61.8149986  20.8869991  45.2890015  69.4570007  24.4570007
  45.6559982  70.2129974  23.9930000  46.0489998  68.8960037  24.6000004
  43.4239998  73.8290024  14.6929998  43.5120010  74.7939987  14.3999996
  43.0699997  73.4759979  13.8280001  51.9840012   7.0300002  25.8640003
  52.5369987   6.3099999  26.1480007  52.5890007   7.7830000  26.1749992
  65.4339981  12.8649998  21.9309998  65.3229980  12.2629995  22.6949997
  64.7669983  13.5220003  22.0830002  33.7669983  71.8219986  46.2570000
  34.2910004  71.4430008  45.5439987  33.6469994  71.0770035  46.8950005
  63.5489998   9.5290003  37.5789986  63.6170006   9.9289999  38.4430008
  62.8059998  10.0450001  37.1969986  44.5400009  73.0940018  30.0319996
  44.8129997  73.8140030  30.5599995  43.6590004  72.8690033  30.5639992
  68.6809998   8.3059998  43.1180000  67.9479980   7.8260002  43.6049995
  68.0670013   8.4709997  42.3089981  46.5159988  79.6689987  37.0769997
  45.6090012  79.8130035  37.4280014  46.3230019  79.8629990  36.1090012
  66.1800003   7.6310000  15.5439997  66.3960037   6.7270002  15.8039999
  66.3789978   8.1490002  16.3180008  51.9490013  84.1100006  33.7599983
  52.5390015  83.4459991  34.0639992  52.4119987  84.6880035  33.1910019
  34.6980019  69.3740005  32.9300003  33.8380013  69.7330017  32.6990013
  35.2750015  70.0210037  32.4770012  59.5789986   7.6030002  12.9469995
  60.0200005   7.9930000  12.1359997  60.2980003   7.8000002  13.5930004
  33.2849998  71.5699997  29.3840008  32.6049995  70.9219971  29.1259995
  33.7879982  71.7539978  28.6040001  30.2819996  72.4660034  19.0079994
  29.4370003  72.0540009  18.8640003  30.5939999  71.9179993  19.7619991
  29.9470005  62.4550018  18.7989998  29.4270000  62.1230011  18.0849991
  29.2849998  62.4239998  19.5820007  39.4729996  77.1630020  29.7339993
  38.8660011  77.2119980  28.9599991  39.0439987  76.5049973  30.2679996
  38.5009995  76.7429962  16.0699997  38.5349998  77.3209991  16.8610001
  37.5929985  76.8430023  15.7370005  35.8479996  71.6159973   7.7940001
  36.0419998  70.7239990   7.3909998  35.6870003  71.3509979   8.7069998
  73.1039963  13.0159998  28.1879997  72.6090012  12.7010002  28.9939995
  73.7279968  13.6090002  28.6369991  44.7050018  81.5100021  30.7189999
  44.9420013  81.7689972  29.8250008  44.4729996  80.5619965  30.6299992
  49.8499985  77.5930023  30.8630009  49.2970009  77.2229996  31.5520000
  49.7599983  78.5490036  30.9599991  37.8030014  73.2040024  40.6360016
  36.8180008  73.1869965  40.7350006  38.1199989  73.1220016  41.5169983
  12.8959999  37.1020012  75.3509979  12.3240004  37.5279999  75.9810028
  12.2240000  36.7809982  74.7060013  47.7120018   4.7319999  32.7360001
  47.1619987   5.1100001  32.0480003  47.1329994   4.0960002  33.1839981
  46.8170013   5.9229999  27.4300003  46.6320000   4.9930000  27.2189999
  47.7690010   5.9159999  27.3649998  29.8120003  60.8989983  28.2689991
  28.9290009  60.4589996  28.3139992  30.1030006  60.6040001  29.2049999
  30.5139999  66.7809982  18.7119999  29.7089996  66.5540009  19.1919994
  30.0100002  66.9140015  17.7800007  42.4420013  73.1949997  32.2789993
  43.2190018  73.0680008  32.8069992  41.7579994  72.5849991  32.7459984
  41.8269997  67.3759995  19.9349995  41.0120010  66.8229980  19.8740005
  42.4700012  66.6139984  20.0259991  47.8100014  62.2430000  22.9020004
  48.2500000  63.0180016  23.3279991  48.4550018  61.5439987  23.2040005
  43.6940002  65.2679977  20.2940006  43.8580017  65.6640015  21.1599998
  44.1759987  64.4639969  20.3309994  27.1320000  70.8349991  23.5419998
  27.9230003  71.3339996  23.8160000  26.3789997  71.3150024  23.9769993
  42.3709984  72.5589981  18.5189991  41.7639999  71.9199982  19.0779991
  43.2130013  72.1660004  18.8290005  41.3380013  77.1289978  25.5990009
  40.5130005  76.6029968  25.4640007  41.2809982  77.2409973  26.5389996
  37.9280014  81.2610016  20.2740002  37.9720001  81.9029999  21.0049992
  37.6489983  80.4940033  20.7929993   9.3529997  42.0880013  60.9620018
   8.5799999  42.0000000  61.5789986   9.8280001  41.2630005  61.1790009
  11.9209995  44.6710014  76.3949966  12.7489996  44.1469994  76.7119980
  12.2270002  44.7529984  75.4789963  43.9449997  68.8270035  20.7490005
  44.6949997  68.2229996  20.5580006  43.1520004  68.3119965  20.4689999
  42.0250015  78.5970001  28.1590004  41.2840004  78.8629990  28.7269993
  42.4169998  79.4420013  27.9160004  53.6419983   7.1250000  15.7480001
  54.1160011   6.7839999  14.9359999  52.7249985   7.0530000  15.4770002
  47.3129997  74.4440002  18.5590000  47.2400017  75.4479980  18.6949997
  46.7330017  74.3150024  17.7639999  26.1389999  67.5070038  39.6489983
  26.2970009  68.1669998  38.9300003  25.3069992  67.1139984  39.2570000
  33.8909988  76.9189987  26.6450005  33.4710007  76.3059998  27.3220005
  34.3310013  77.5120010  27.2709999  33.7960014  65.7539978  13.6029997
  33.7130013  64.8430023  14.0030003  33.8310013  66.3010025  14.3680000
  26.0270004  69.2600021  37.7779999  26.0380001  69.3440018  36.7999992
  25.8789997  70.1930008  37.9990005  32.0200005  65.1979980  40.2770004
  32.2379990  64.2799988  40.1419983  31.8829994  65.2799988  41.2120018
   2.5690000  19.2220001  25.3980007   1.7020000  19.6889992  25.2959995
   3.2070000  19.8820000  25.0520000  45.5309982  78.1500015  32.3170013
  44.9329987  77.4769974  32.5169983  45.5110016  78.1389999  31.3230000
  67.7460022  12.8570004  20.2940006  67.0869980  12.8310003  21.0580006
  68.5609970  12.7060003  20.8190002  39.6339989  79.9840012  23.8090000
  39.6609993  79.0240021  23.7180004  40.4370003  80.2460022  23.3069992
  66.7490005  11.9670000  16.1340008  67.6419983  11.6400003  16.4549999
  66.6520004  11.4060001  15.3479996  50.2540016  85.3450012  26.1060009
  50.9599991  85.7139969  25.6350002  49.6980019  86.1220016  26.3509998
  49.5229988  70.6589966  28.7849998  49.9630013  71.4160004  28.3369999
  49.9690018  70.5510025  29.6040001  65.5820007   9.2240000  26.2670002
  65.5869980   8.3859997  26.8630009  66.5439987   9.0690002  25.9650002
  46.1129990  80.3779984  21.0209999  45.1300011  80.3270035  20.9340000
  46.3069992  80.0930023  20.0669994  66.6039963  11.3000002  27.7549992
  66.9110031  10.8780003  28.5750008  65.8619995  10.6770000  27.5189991
  50.5629997  71.4479980  34.1599998  49.8400002  71.9660034  33.7089996
  50.1679993  70.5490036  34.0719986  44.9780006  73.7850037  17.2010002
  44.3370018  73.9530029  16.4729996  45.3170013  72.9250031  17.0380001
  21.3869991  41.8530006  77.9309998  21.3810005  42.8129997  77.7809982
  21.1240005  41.8520012  78.8600006  52.1529999  80.9100037  22.4459991
  52.2089996  81.3050003  23.3180008  51.7659988  81.6289978  21.9480000
  51.7949982  79.2610016  32.3800011  52.4189987  79.6859970  31.7619991
  52.3510017  78.5520020  32.7109985  52.8639984  76.8190002  18.8570004
  53.0289993  77.6490021  19.3220005  53.4700012  76.1790009  19.2299995
  70.4000015   8.7980003  24.3390007  70.6309967   9.6370001  23.9080009
  70.4339981   8.1619997  23.6879997  47.9029999  78.0319977  27.7140007
  48.1209984  78.7020035  27.0279999  48.7109985  77.8199997  28.1739998
  29.1660004  39.9840012  76.2939987  29.8250008  40.7280006  76.1910019
  29.5370007  39.3489990  75.6460037   8.3330002  11.8439999  33.1110001
   9.1099997  12.4370003  33.0209999   8.0679998  11.7969999  32.1889992
  37.6430016  55.9910011  76.1620026  38.1160011  55.3499985  75.5650024
  37.0579987  56.3709984  75.4089966  28.9850006  52.5219994  84.9580002
  28.3519993  53.1660004  84.7119980  29.5209999  52.4099998  84.1350021
  38.6170006  54.6619987  69.0469971  37.7529984  54.4690018  68.6699982
  38.9090004  55.3930016  68.4589996  12.8310003   9.6219997  32.7239990
  12.0459995   9.2720003  32.2659988  13.5360003   9.3360004  32.1090012
  31.6299992  50.2649994  77.1520004  31.6439991  51.1850014  76.8970032
  31.3129997  50.3390007  78.0670013  58.5270004  79.0879974  21.8169994
  59.2589989  78.6210022  22.2229996  58.9930000  79.6740036  21.1770000
   1.4620000  18.8239994  20.4039993   2.2660000  19.2900009  20.0020008
   1.2400000  18.3400002  19.5849991  70.8700027   9.1809998  28.6350002
  71.4499969   8.4519997  28.2059994  70.0479965   8.7410002  28.6879997
  33.0649986  54.1010017  76.0039978  32.7159996  53.6430016  76.7890015
  33.8919983  54.4860001  76.3820038  21.0779991  16.2019997  15.8190002
  20.6130009  16.8490009  15.2189999  21.7180004  16.8309994  16.1770000
  73.0049973  19.4130001  38.2200012  73.5370026  19.9740009  38.8320007
  73.3399963  18.5580006  38.5359993  35.2830009  46.7960014  85.0019989
  36.1969986  47.1809998  84.9489975  35.4570007  46.1570015  85.7509995
  40.6910019  41.6910019  78.5960007  40.7869987  40.7229996  78.4550018
  41.5340004  41.9420013  78.2300034  39.0690002  43.9599991  78.4329987
  38.2809982  43.3800011  78.3330002  39.7589989  43.2410011  78.6429977
  13.7930002  11.5930004  29.3160000  13.6770000  11.5600004  28.3439999
  14.1770000  12.4930000  29.3999996  31.9039993  47.8810005  81.7089996
  32.2550011  47.0940018  82.2050018  31.8430004  47.5279999  80.8079987
  57.5730019  81.5609970  24.1930008  57.5060005  82.5199966  24.3610001
  56.7820015  81.3389969  23.7670002  16.5230007  18.0769997  17.7250004
  16.3029995  17.2549992  18.1800003  17.4810009  18.1819992  18.0160007
  17.9829998  25.5930004  11.5760002  17.3570004  25.8910007  12.2650003
  18.8139992  25.6250000  12.1440001  33.2719994  46.3709984  79.7860031
  34.0699997  46.5270004  79.2669983  32.6339989  46.1080017  79.0429993
  18.5100002  28.5510006  16.2759991  18.0230007  29.3869991  16.2430000
  19.2609997  28.7840004  16.8729992   9.8439999  36.0110016  12.8500004
   9.7209997  36.6040001  13.6840000  10.7419996  35.6669998  13.0939999
  31.0179996  20.2339993  10.6660004  30.7110004  19.5319996  11.2550001
  31.3199997  19.7399998   9.8850002  25.9769993  25.6429996  21.0790005
  25.3910007  24.8589993  21.0340004  26.2019997  25.6550007  22.0060005
  10.9960003  25.1110001  20.4780006  11.3620005  25.0419998  21.4069996
  10.5749998  25.9750004  20.5119991  13.9820004  26.6569996  18.1200008
  13.8059998  26.6760006  19.1210003  14.9090004  27.0000000  18.1590004
  40.3629990  59.6609993  71.1719971  40.6290016  60.3100014  71.8069992
  41.1469994  59.0270004  71.1340027  18.6550007  31.5669994  22.6609993
  18.9769993  31.0049992  21.9349995  19.4449997  32.1440010  22.8139992
  38.4840012  61.8149986  69.8789978  39.3619995  61.6800003  69.4690018
  38.7729988  61.7949982  70.8300018  60.6069984  81.3489990  27.5009995
  59.7799988  81.8939972  27.4799995  60.3470001  80.6350021  26.8750000
  37.0369987  68.5400009  73.1559982  36.3400002  68.3880005  73.8259964
  36.4749985  68.7350006  72.3420029  14.9259996  27.2000008   9.8299999
  15.3620005  26.6060009   9.1859999  14.1040001  27.4370003   9.4160004
  21.2940006  28.5219994  13.0410004  21.9020004  28.9540005  12.4119997
  21.4249992  29.0709991  13.8140001  18.0470009  26.6200008   9.1639996
  17.9039993  26.2919998  10.0990000  17.4799995  25.8980007   8.7570000
  58.5709991   8.2530003  69.5189972  58.0839996   7.5630002  69.0049973
  59.0859985   8.6949997  68.8750000  16.7420006  22.2719994  18.4270000
  16.0890007  21.9270000  17.8750000  16.6980000  23.2509995  18.1980000
  14.7189999  15.0349998  25.2919998  14.9480000  14.1090002  24.9659996
  13.8240004  15.0749998  24.8980007  10.0419998  18.6910000  16.0109997
   9.9879999  19.6840000  15.9119997  10.3699999  18.6210003  16.9120007
  15.4630003  29.9829998  16.0070000  15.6049995  29.6930008  16.9249992
  15.3870001  30.9279995  16.1819992  15.4779997  20.5200005  20.3339996
  16.2110004  19.8640003  20.2700005  15.7889996  21.2409992  19.7539997
  11.6289997  28.5349998  15.2720003  11.7110004  28.8589993  14.3109999
  11.6999998  29.3770008  15.7159996  32.2050018  29.3829994   1.3880000
  31.9930000  28.4349995   1.1470000  31.7639999  29.8139992   0.6360000
   5.5980000  14.5170002  23.7579994   6.1009998  14.2069998  22.9340000
   4.6310000  14.3439999  23.4710007  21.2810001  21.6800003  15.4130001
  22.2220001  21.3129997  15.3549995  21.0660000  21.5569992  14.4379997
   2.5610001  22.1399994  18.2360001   1.6650000  22.5459995  18.1660004
   2.9579999  22.7679996  18.8719997  12.0080004  40.7680016   2.5280001
  12.3889999  40.7550011   1.6200000  11.1829996  40.2960014   2.4270000
  31.8689995  64.0289993  76.0080032  32.7200012  64.2890015  75.6790009
  31.2460003  64.6419983  75.6129990  10.4689999  14.7989998  29.4650002
  10.6219997  15.5970001  30.0520000  10.6840000  14.1120005  30.0590000
  25.0919991  37.8569984   0.4350000  24.8770008  37.6879997   1.3650000
  25.6089993  37.1049995   0.1670000  40.5810013  60.6049995  65.2440033
  40.1850014  61.2540016  64.6210022  41.4490013  61.0670013  65.3970032
   0.8090000  17.5279999  22.4909992  -0.0240000  18.0160007  22.7430000
   0.9930000  17.9909992  21.6149998  33.7120018  24.2220001   8.8900003
  34.0239983  24.3729992   7.9530001  33.0489998  23.5289993   8.7030001
  55.5639992  13.1540003  73.7549973  54.8619995  13.2209997  73.0749969
  56.3889999  13.3549995  73.2570038   7.2519999  16.7189999  29.3120003
   6.8969998  17.3869991  29.9220009   7.9400001  17.3150005  28.8630009
  35.6339989  54.8339996  72.7850037  34.7430000  54.5810013  73.1529999
  35.8520012  55.5970001  73.3649979  11.1590004  20.6679993  22.6870003
  12.0349998  21.1149998  22.6679993  10.9200001  20.6959991  21.7360001
  79.0910034  35.6440010  19.8689995  78.1859970  35.3380013  19.7339993
  78.9800034  36.5379982  20.2779999  16.7770004  37.2379990  17.7549992
  17.2399998  37.6520004  18.4960003  17.2940006  37.5730019  17.0079994
  36.5929985  70.8710022  69.2919998  36.4539986  70.1039963  68.6760025
  36.3339996  70.4069977  70.1539993  18.5400009  28.8430004  12.5979996
  19.4410000  28.5009995  12.6219997  18.6490002  29.5909996  11.9510002
  21.6609993  29.1019993  23.2460003  22.1660004  29.7070007  23.7940006
  22.2740002  28.8600006  22.5639992  68.5449982  64.7679977  18.6739998
  68.0680008  65.6559982  18.5680008  68.7860031  64.8740005  19.6280003
  40.7319984  50.6320000  77.0400009  39.8359985  50.3339996  77.4520035
  41.3260002  50.1809998  77.6419983  29.4960003  39.0040016   1.8750000
  30.0289993  39.8380013   1.8160000  29.0130005  39.1689987   2.7160001
  43.3889999  67.2679977  71.2440033  43.6090012  66.7300034  70.4469986
  43.4630013  68.1399994  70.9219971  36.7610016  51.6180000  74.0650024
  37.2010002  52.4560013  74.2170029  36.9339981  51.4370003  73.1429977
  47.8600006  72.9560013  61.9729996  48.0530014  73.0589981  61.0229988
  48.6910019  73.2009964  62.3829994  11.8950005  44.7369995   4.7350001
  11.9440002  44.5390015   5.6669998  12.8629999  44.7830009   4.5219998
   7.4970002  17.8500004  21.2870007   7.3969998  18.8419991  21.5319996
   6.5510001  17.6429996  21.6119995  14.5240002  18.7779999  14.1599998
  13.5330000  19.0030003  14.1899996  14.4700003  17.8759995  14.5419998
  19.7490005  23.8490009  16.5389996  19.1040001  23.4039993  17.0450001
  20.2900009  23.0580006  16.1940002  45.0519981  59.8279991  71.0520020
  44.8559990  60.6259995  71.5970001  45.9039993  59.5620003  71.3919983
  46.7630005  70.3840027  62.0800018  46.4449997  70.3359985  61.1500015
  47.1759987  71.2939987  62.0320015  15.1079998  16.8710003  21.5200005
  14.8199997  17.1130009  22.3980007  15.7240000  17.5750008  21.3050003
   5.3880000  29.5179996  19.2730007   4.8070002  29.2320004  18.5639992
   6.2729998  29.3579998  18.8369999  11.8070002  12.8050003  21.6389999
  12.7989998  12.6680002  21.7600002  11.7980003  13.7539997  21.4239998
  43.3330002  67.9639969  62.1119995  43.7560005  68.8030014  62.4749985
  43.0470009  67.5660019  62.9980011  30.4330006  57.1360016  68.3290024
  31.3689995  57.3790016  68.2890015  30.1889992  57.1580009  67.3970032
  14.1199999  26.9099998  23.1240005  15.0819998  26.6009998  23.1369991
  14.2600002  27.8540001  23.4179993  22.1200008  54.3440018  71.5930023
  21.2970009  54.8380013  71.7929993  22.3309994  54.0460014  72.5240021
  28.7369995  36.6500015   1.1300000  28.1219997  36.9360008   0.3960000
  29.1949997  37.5390015   1.2410001   8.0740004  23.2290001  22.0860004
   8.0600004  23.6700001  21.2210007   9.0509996  23.2900009  22.2730007
  22.5459995  30.7409992  28.1079998  23.4599991  30.9330006  28.3929996
  22.2320004  31.6170006  27.9160004  12.5749998   9.0850000  22.8619995
  13.5179996   8.7309999  22.9860001  12.3039999   8.9910002  23.7880001
   9.0240002  18.5349998  28.1739998   8.5760002  19.3780003  28.0650005
   9.1739998  18.2259998  27.2420006  16.4090004  24.6980000  17.4260006
  17.1480007  24.9139996  16.8549995  15.9820004  25.5799999  17.5000000
  17.1149998  25.3579998  21.1410007  16.5370007  26.0909996  21.0370007
  17.6189995  25.3470001  20.3230000  39.3219986  64.4240036  61.3839989
  39.3870010  64.6269989  62.3180008  38.3919983  64.4219971  61.2039986
   9.3240004  30.7730007  10.7159996   8.9289999  31.4720001  11.3339996
   8.5279999  30.1679993  10.7010002  43.3909988  68.8209991  69.0139999
  42.5999985  69.3949966  68.8519974  44.0649986  69.5130005  68.7880020
  10.2939997  24.1809998  18.0020008  10.5649996  24.6499996  18.8110008
  10.3290005  24.9529991  17.3630009  15.4440002  28.7310009  12.4150000
  15.4080000  28.2339993  11.5749998  15.9429998  28.0090008  12.9560003
  13.3800001  23.9200001  18.2789993  13.3590002  24.8700008  18.2779999
  12.6529999  23.7240009  18.9430008   3.2309999  49.0880013  24.1410007
   3.2290001  49.0159988  23.1200008   3.1750000  50.0639992  24.2329998
  16.6119995  33.6889992  26.9990005  17.0079994  34.5699997  26.6730003
  17.0599995  33.1059990  26.3050003  36.2630005  53.0499992  78.9660034
  35.7690010  53.7379990  78.4639969  36.3989983  52.3959999  78.2259979
   4.7579999  41.6520004   4.9540000   4.3649998  41.5070000   4.0990000
   5.7360001  41.6389999   4.6789999  19.9470005  17.9130001  21.1660004
  20.6439991  18.5799999  21.3160000  19.7089996  17.9589996  20.1980000
  21.8250008  11.9610004  16.0510006  21.4080009  11.1330004  15.7220001
  21.2959995  12.0819998  16.8770008  14.0229998  36.8339996  15.5889997
  14.3760004  37.7000008  15.8579998  13.3350000  36.6599998  16.2250004
  43.5099983  53.7579994  76.4749985  43.9280014  53.1380005  77.1480026
  42.5919991  53.4230003  76.5820007  22.2409992  24.4710007   7.3080001
  21.6760006  24.0520000   6.6259999  21.7689991  25.2929993   7.5609999
  30.9319992  52.1119995  83.1890030  31.8379993  52.3979988  83.3820038
  30.9869995  51.1590004  83.1259995  28.5520000  28.6229992  12.6379995
  28.1889992  28.4549999  11.7390003  29.4720001  28.2660007  12.5080004
  16.4510002  15.7650003  14.9010000  16.6520004  16.7689991  14.9510002
  15.5590000  15.8389997  15.3319998  43.1520004  54.7379990  74.0319977
  43.2729988  54.7159996  74.9950027  42.6819992  53.8709984  73.9120026
  15.1560001  36.2500000   8.0380001  15.1239996  35.7789993   7.1469998
  14.2580004  35.9080009   8.3750000  16.5079994  42.5400009  -0.6990000
  16.7970009  41.5919991  -0.6140000  15.9840002  42.4519997  -1.5400000
  13.8559999  23.5779991  26.0410004  13.6780005  23.7980003  25.0610008
  14.0179996  24.4519997  26.3969994   7.9029999  20.4759998  22.1429996
   8.7180004  20.4039993  21.6079998   7.9210000  21.4270000  22.3349991
  12.8310003  32.4889984  13.5690002  11.9829998  32.2610016  13.9460001
  13.1289997  31.6450005  13.1610003  28.8279991  46.2739983  84.1610031
  29.2059994  46.7659988  84.9260025  28.7779999  45.3750000  84.5309982
  76.4789963  28.0990009  28.8579998  76.0540009  28.8150005  29.2779999
  77.4599991  28.2399998  29.1299992  47.3419991  51.3660011  76.2750015
  47.3919983  52.1370010  76.8809967  47.8110008  51.7490005  75.5070038
  12.5010004  32.9889984   7.8330002  13.1280003  32.3689995   7.3509998
  11.7700005  32.3610001   8.0229998  31.3260002  55.2519989  74.3840027
  30.4570007  54.9049988  74.6460037  31.8339996  54.9160004  75.1380005
  38.3839989  56.5699997  78.6419983  38.2130013  56.2430000  77.7109985
  37.4809990  56.3839989  79.0080032  42.5019989  48.6459999  76.0189972
  42.3730011  48.5859985  76.9759979  43.2290001  49.2610016  75.9950027
  52.2989998  70.6009979  64.8170013  53.1660004  70.3970032  64.3840027
  52.5709991  70.7200012  65.7040024  20.3209991  14.9320002  18.2140007
  19.4790001  15.3360004  18.0860004  20.7970009  15.1949997  17.3719997
  34.4109993  50.1759987  71.4410019  33.6520004  50.2130013  72.0100021
  34.5660019  51.1510010  71.2720032  12.7100000  25.2889996  11.5109997
  13.3389997  25.6980000  10.8889999  13.3100004  25.0279999  12.2690001
  14.8149996  23.0119991  16.3750000  15.5120001  23.6369991  16.8230000
  14.1409998  23.1289997  17.1480007  44.9020004  52.1609993  78.4769974
  45.4119987  51.5820007  79.0189972  44.3419991  52.6199989  79.1070023
  49.7659988  70.8190002  64.1829987  50.7620010  70.7770004  64.0690002
  49.7540016  71.5400009  64.8789978   8.1580000  14.1359997  28.0170002
   7.5190001  14.7889996  28.4979992   8.9499998  14.4670000  28.4729996
  37.2729988  24.2029991  19.1170006  37.4910011  24.9309998  19.8160000
  38.0760002  24.3330002  18.5739994  53.9529991  72.7040024  56.7299995
  53.3479996  72.1650009  56.1269989  54.8149986  72.2949982  56.5200005
   5.3940001  20.1009998  27.1070004   5.5339999  19.7619991  26.1509991
   5.7579999  20.9729996  26.9969997  49.0600014  62.3849983  68.1620026
  49.1129990  62.9020004  67.2880020  49.8559990  61.8549995  68.2009964
   4.6799998  26.6980000  25.8299999   5.2950001  26.9960003  26.5459995
   3.9660001  27.3670006  26.0419998  17.0839996  33.6539993   6.9910002
  16.4950008  34.3800011   6.7770000  17.8789997  33.8860016   6.4800000
   0.7680000  39.4420013  13.0380001   0.3360000  40.0489998  12.3889999
   0.1210000  39.3880005  13.7460003  42.5460014  76.9990005  65.4769974
  42.0530014  76.3079987  65.9189987  43.4850006  76.8259964  65.6979980
   5.4460001  29.0690002  14.7189999   6.0980000  29.7509995  14.3830004
   6.1069999  28.3950005  15.0299997  11.6759996   8.3120003  28.8029995
  11.0419998   8.4689999  29.5330009  12.4320002   8.8760004  29.1009998
  30.1119995  27.7910004  24.8750000  29.8990002  27.4169998  25.7509995
  30.8139992  27.1009998  24.6130009  18.9050007  28.3640003  22.6700001
  19.8439999  28.6469994  22.8740005  18.7800007  27.6210003  23.2290001
  23.2630005  16.4729996  22.7779999  23.7150002  16.6669998  21.9200001
  24.0340004  16.5960007  23.3750000   9.2080002  11.5769997  25.5520000
   8.9209995  12.5000000  25.4580002   9.4589996  11.4160004  24.5750008
  19.8409996  33.0620003  27.3719997  20.6100006  33.1010017  26.7399998
  19.1499996  32.8349991  26.6980000  21.9880009  14.2510004  20.1980000
  21.3250008  14.5150003  20.9020004  21.4540005  14.4879999  19.4009991
  15.6199999  34.6599998  15.4020004  15.6289997  34.4840012  14.4410000
  15.1910000  35.5229988  15.4239998   7.9660001  21.4729996  16.0400009
   7.8109999  22.1359997  15.3249998   7.2760000  20.8829994  15.9110003
  17.2950001  21.6110001  28.5400009  16.6590004  21.1060009  29.1980000
  17.7430000  22.1529999  29.1959991  14.0360003  16.6320000  15.9010000
  13.3129997  15.9879999  15.8339996  13.8369999  16.9930000  16.8010006
  15.0539999  30.5039997   9.1969995  15.1990004  31.1700001   9.9289999
  15.9420004  30.0520000   9.2159996  45.5960007  70.4860001  68.2559967
  45.4300003  70.9789963  67.4140015  45.8209991  71.2610016  68.8730011
  10.9049997  27.0809994  11.9619999  11.5260000  26.3770008  11.8240004
  11.4560003  27.8579998  11.9879999  16.1970005  31.2110004  13.4189997
  15.6090002  30.8990002  14.1820002  16.1840000  30.3810005  12.9180002
  49.1389999  52.4259987  74.3639984  48.8440018  53.3199997  74.0100021
  50.1170006  52.5330009  74.2829971  33.7869987  28.2350006  18.6800003
  33.3450012  27.3250008  18.7609997  34.3930016  28.1389999  19.4559994
  46.4290009  55.5190010  71.6569977  46.9430008  54.9700012  72.3150024
  47.0209999  56.3429985  71.7529984  19.4349995  20.2889996  27.3320007
  18.7420006  20.8490009  27.7040005  20.2290001  20.8770008  27.5480003
  22.8230000  22.3910007   8.8629999  22.4360008  21.8050003   8.2159996
  22.6100006  23.2719994   8.6149998   9.5990000  16.8239994  22.5480003
   8.8009996  17.3299999  22.1849995   9.4160004  16.0279999  21.9740009
  35.6220016  61.7130013  75.2389984  35.8030014  62.0480003  76.1589966
  34.6570015  61.5289993  75.3880005  15.3269997  32.7560005  17.2099991
  15.4329996  33.4480019  16.5279999  14.4610004  33.0229988  17.5380001
  78.3529968  26.8490009  22.2509995  77.5279999  27.0520000  22.6630001
  78.6920013  27.7940006  22.0650005   2.6159999  33.5309982  22.2560005
   2.6120000  32.6040001  22.5620003   3.4870000  33.8349991  22.5790005
  10.0240002  35.9230003  24.7479992   9.2089996  36.2760010  24.2709999
  10.0209999  35.0139999  24.5020008  22.4249992  21.5039997  25.0279999
  21.5540009  21.1469994  24.9160004  22.7049999  21.0860004  25.8729992
  22.9039993  27.5660000   9.5740004  22.1420002  27.2040005   9.1199999
  23.6040001  27.2749996   8.9499998   9.9280005  39.3590012   5.2709999
   9.0920000  39.0919991   4.7620001   9.6650000  40.0750008   5.8039999
  43.5690002  59.9640007  73.9189987  42.8520012  59.2999992  73.8509979
  43.7490005  59.9129982  74.8929977  14.1239996  23.8579998  14.0109997
  13.8800001  24.7089996  14.4919996  14.3520002  23.3239994  14.8360004
  21.9969997  30.8220005   6.8769999  21.7579994  30.8519993   7.8509998
  22.1840000  31.7409992   6.7440000  41.0149994  75.0859985  66.5319977
  40.9189987  74.2990036  65.9919968  40.6930008  74.7369995  67.3929977
  52.1969986  59.2379990  71.9599991  51.7070007  58.9300003  71.1699982
  52.0489998  60.2249985  71.7750015   7.4260001  13.3059998  21.9920006
   8.1339998  12.9440002  22.5820007   7.2989998  12.4910002  21.4340000
   1.5500000  24.1119995  21.6490002   0.7500000  24.1280003  21.1240005
   1.2309999  23.7700005  22.4909992   7.2449999  29.1520004  24.6289997
   8.1190004  28.7339993  24.5510006   7.1999998  29.6959991  23.7849998
  56.8569984  15.1650000  70.3740005  56.3120003  15.9350004  70.6719971
  57.3540001  14.9080000  71.2070007   8.2159996  17.4939995  18.2460003
   8.1840000  17.7649994  19.1599998   8.6940002  16.6529999  18.3040009
  17.1879997  47.7159996  -2.2570000  17.2329998  46.7949982  -1.9170001
  17.7600002  48.1920013  -1.6090000  26.1650009  36.3440018   6.9629998
  26.8040009  36.6380005   6.2830000  25.6030006  37.0960007   7.0669999
  22.9179993  29.8020000  19.8120003  23.0650005  30.1329994  20.7380009
  23.6819992  29.1900005  19.7169991  40.8740005  61.5849991  68.6230011
  41.3699989  61.0079994  68.0250015  41.5750008  61.8650017  69.2850037
  31.8929996  34.5890007  10.4659996  32.3919983  33.8019981  10.2119999
  32.4490013  35.3040009  10.2530003  27.7840004  37.2249985   4.4450002
  28.1420002  38.1489983   4.4899998  26.8509998  37.3860016   4.2900000
  25.1550007  18.9619999  25.8040009  24.4869995  18.6079998  26.4599991
  25.9449997  18.9850006  26.3980007   8.9370003  43.4819984  11.9820004
   8.9879999  42.9129982  11.2150002   9.6780005  44.0989990  11.8690004
  52.0979996  63.8889999  63.1450005  52.3079987  64.0859985  64.0849991
  51.1689987  64.1299973  63.0970001  31.5939999  30.6980000   8.1499996
  31.1280003  31.5540009   8.0039997  32.3530006  30.9920006   8.7360001
  27.3759995  30.3290005  21.9200001  27.4969997  30.7670002  22.8069992
  27.8549995  29.4589996  22.1089993  21.4360008  30.0020008  15.1479998
  20.4580002  30.0769997  15.2189999  21.7380009  29.9960003  16.0799999
  12.8219995  29.0310001  13.0059996  12.3780003  29.6499996  12.3430004
  13.7150002  29.0289993  12.6070004  55.1279984  73.0459976  62.5600014
  55.5159988  73.9440002  62.3170013  55.2789993  72.6320038  61.7000008
  25.7830009  43.4889984   2.5120001  24.9270000  43.5099983   2.0350001
  26.2910004  42.8160019   1.9870000  45.2080002  80.2570038  56.2070007
  44.5579987  80.0469971  56.8829994  45.3149986  81.2229996  56.4269981
  27.5610008  31.1299992  11.4899998  28.2679996  30.6140003  11.0139999
  27.4850006  30.5890007  12.3149996  23.8810005  34.7639999  15.0260000
  23.8649998  33.8030014  15.0909996  23.5599995  34.9780006  15.9429998
  29.2099991  39.7360001   4.5790000  29.0230007  40.6380005   4.2449999
  30.1620007  39.7939987   4.7509999  16.6189995  33.3110008   9.9230003
  17.2539997  34.0279999  10.0740004  16.6210003  33.3079987   8.9399996
  12.3100004  34.7709999   5.3480000  11.5790005  34.4729996   4.8230000
  12.1239996  34.3400002   6.2430000  20.3439999  30.9230003  20.2329998
  21.1259995  30.3560009  19.9850006  20.8490009  31.7999992  20.3160000
  27.8360004  42.5660019  -3.1540000  26.9549999  42.8989983  -3.4790001
  28.4440002  43.2420006  -3.5460000  18.7560005  43.7540016   6.4120002
  18.3080006  43.5040016   7.2459998  19.7000008  43.7340012   6.6810002
  50.8959999  77.3030014  46.6860008  50.4760017  77.1760025  45.8429985
  51.7509995  76.9260025  46.6090012  34.8740005  75.5390015  65.5400009
  35.4879990  74.8679962  65.8870010  35.5470009  76.3040009  65.6029968
  20.1389999  34.4529991   5.2930002  20.5930004  33.6500015   5.4000001
  20.8080006  35.0690002   5.6910000  53.3100014  67.9940033  65.3679962
  53.0070000  68.7610016  65.8430023  54.2169991  68.2600021  65.1169968
  25.0480003  27.5550003  12.4139996  24.3250008  28.0590000  11.9860001
  25.1399994  26.8490009  11.7519999   8.0469999  32.3829994  12.5480003
   8.1210003  33.0859985  13.1920004   7.1320000  32.5660019  12.2279997
  38.2960014  69.9150009  64.0569992  38.5130005  69.5599976  63.1409988
  37.7350006  69.1210022  64.3000031  19.2929993  33.1730003  11.6320000
  19.5690002  32.2610016  11.3629999  19.4669991  33.5690002  10.7200003
  16.0820007  23.1599998  22.3330002  16.5569992  23.9279995  21.9279995
  16.2280006  23.3230000  23.2789993  23.3939991  43.8619995   5.1669998
  23.5720005  43.3530006   4.3460002  23.1770000  44.7449989   4.7890000
  22.2779999  33.0359993  11.8160000  21.3449993  33.1949997  11.9490004
  22.7080002  33.4809990  12.5640001  40.8429985  73.1090012  64.8089981
  41.4160004  72.6200027  64.2200012  40.1310005  72.5029984  65.0220032
  23.1730003  29.3750000  11.4230003  23.1210003  30.1760006  10.9130001
  23.0480003  28.6779995  10.6719999  26.1879997  33.3950005  19.4549999
  25.2469997  33.5509987  19.3700008  26.3470001  33.7120018  20.3880005
  17.6520004  29.2530003   8.9490004  17.4480000  29.3740005   7.9720001
  17.7210007  28.2770004   9.0170002  34.6430016  24.3920002   6.3769999
  35.5499992  24.2800007   6.7199998  34.5740013  23.6450005   5.7810001
  36.6629982  46.5149994   5.4460001  37.5229988  46.4070015   5.8449998
  36.6399994  45.9650002   4.6529999  32.3079987  42.2470016  -2.8490000
  32.0219994  41.5070000  -3.3540001  32.5009995  42.8979988  -3.6410000
  25.0000000  26.3729992   8.3520002  25.9130001  26.6149998   8.4099998
  24.8719997  25.9209995   9.2089996  27.8020000  37.0870018   8.7749996
  27.2719994  36.8180008   8.0059996  28.0650005  37.9609985   8.5780001
  17.9069996  22.8880005  13.2629995  18.2549992  23.7670002  13.0220003
  17.0629997  22.8859997  12.8170004  34.2500000  19.0540009  14.6949997
  33.6269989  18.5130005  14.1920004  33.8040009  19.9249992  14.6429996
  24.4400005  34.4370003   8.1940002  24.7320004  33.7960014   8.8979998
  25.1720009  35.0660019   8.1309996  26.8220005  27.4300003  14.6280003
  27.6019993  27.7530003  14.1219997  26.1040001  27.6429996  13.9390001
  54.7799988  62.0740013  67.5449982  55.0940018  61.1669998  67.3560028
  55.0660019  62.5289993  66.7119980  36.6730003  32.5439987  -2.9979999
  36.3170013  32.0610008  -2.2479999  37.0340004  31.8110008  -3.4940000
  26.1439991  32.8460007  14.2250004  25.2689991  32.4850006  13.9219999
  26.6399994  31.9869995  14.2510004  20.9790001  28.2719994   5.9150000
  21.4909992  27.9039993   5.2129998  21.3069992  29.1180000   6.0640001
  46.5239983  58.0499992  65.3750000  46.3600006  57.7840004  64.4400024
  46.6800003  59.0130005  65.3150024  18.8339996  25.5340004  23.5189991
  18.8369999  25.2460003  22.5650005  19.2010002  24.7140007  23.9440002
  35.6329994  57.5460014   0.3040000  35.0699997  57.0480003   0.9230000
  34.9490013  58.1730003  -0.0710000  13.4630003  14.6370001  61.2519989
  13.9420004  13.8439999  61.5970001  14.1940002  15.2819996  61.2420006
  30.4020004  48.2369995   6.1380000  30.7520008  47.5680008   5.5679998
  31.2329998  48.5690002   6.5469999  15.3100004  17.5730000  64.7239990
  14.4919996  17.7229996  65.3239975  15.7100000  16.8910007  65.2929993
  50.5050011  41.2570000  18.8729992  51.0419998  40.4650002  18.8540001
  50.2309990  41.3209991  17.9200001  40.8209991  37.8320007  14.0469999
  41.5740013  37.4469986  14.4499998  41.1380005  38.1590004  13.1599998
  36.9910011  49.3790016   6.0669999  36.6310005  48.5089989   6.0139999
  37.2080002  49.5260010   5.0990000  45.5550003  46.7509995  11.3540001
  45.8759995  46.1930008  12.1470003  44.5779991  46.8040009  11.6269999
   8.6180000  23.7740002  56.8050003   8.4610004  24.6070004  57.3100014
   7.7399998  23.6089993  56.3870010  35.1669998  70.4599991  10.4090004
  34.6339989  69.6640015  10.4340000  34.6110001  71.1009979  10.8100004
  35.9760017  43.1320000  14.3439999  35.8089981  42.4329987  15.0000000
  36.8889999  42.8400002  14.0400000  40.5419998  50.1489983   5.3200002
  39.9160004  50.7859993   5.8509998  41.2919998  50.1800003   5.9670000
  44.2060013  61.2820015  18.1180000  44.1440010  61.8120003  18.9750004
  43.2299995  61.2089996  17.8929996  34.3740005  54.1800003  17.0030003
  33.7890015  53.6440010  16.3880005  33.6619987  54.5470009  17.5769997
  37.4599991  49.9620018  15.1610003  36.9770012  49.6199989  14.3240004
  37.2960014  50.9280014  15.0229998  55.3499985  60.9169998  15.7189999
  55.7190018  60.1100006  16.1900005  55.9510002  60.8510017  14.9169998
  36.9360008  59.0660019  10.6660004  37.3779984  58.1580009  10.6859999
  36.7039986  59.1040001  11.6429996  44.7350006  50.5540009   7.7160001
  45.0120010  49.7620010   7.1120000  45.3950005  50.3989983   8.4069996
  32.4920006  49.2290001   7.7020001  31.9810009  49.8190002   8.2880001
  33.2159996  48.9179993   8.2659998  75.6930008  16.4549999  61.0149994
  75.1859970  15.5950003  61.0209999  76.6050034  16.1030006  61.0320015
  36.2900009  49.1170006  12.7799997  35.8660011  48.3520012  12.3780003
  35.5559998  49.7610016  12.8360004  32.3930016  46.3580017   4.7700000
  33.0699997  46.1870003   5.4800000  31.8360004  45.5279999   4.8179998
  39.5989990  46.8069992  13.9560003  39.7779999  45.8779984  14.2580004
  38.9020004  46.9790001  14.6610003  18.6079998  23.9080009  66.7720032
  19.2749996  23.3080006  67.1250000  18.4729996  23.6580009  65.8669968
  37.8520012  59.1650009   3.2479999  38.3590012  58.8230019   2.4800000
  37.1650009  58.4780006   3.3629999  39.9230003  48.0839996  19.1860008
  39.0820007  48.2099991  19.6399994  39.9129982  48.8940010  18.5849991
  38.5569992  41.9630013  16.5650005  38.8450012  41.1370010  16.0779991
  37.6059990  41.8540001  16.4930000  33.4539986  44.3549995   1.9390000
  34.0000000  45.1599998   1.8680000  32.6759987  44.6819992   1.3980000
  41.5499992  42.3269997  -1.3839999  41.8339996  42.9710007  -0.7490000
  42.3129997  41.7939987  -1.5910000   3.1329999  55.4399986  62.9239998
   3.9579999  55.0890007  62.5740013   3.1450000  55.1549988  63.8300018
  34.2570000  46.1489983   6.8530002  34.3380013  46.5470009   7.7440000
  35.1040001  46.4620018   6.4089999  33.6679993  60.6640015  10.1840000
  33.2430000  60.8899994   9.3109999  34.4210014  60.1150017   9.8699999
  43.7649994  49.0099983  19.3659992  42.9959984  48.5330009  19.8169994
  43.6529999  48.6870003  18.4799995  39.9430008  59.0970001  16.8700008
  40.1189995  59.2140007  15.9169998  40.1899986  59.9920006  17.1469994
  31.6250000  64.0609970   4.4670000  32.2550011  64.1999969   5.1589999
  32.0040016  63.3499985   3.9430001  29.8430004  60.3860016   4.5419998
  29.8640003  60.8050003   3.6259999  29.8869991  61.1419983   5.1110001
  38.8320007  51.9510002   6.5819998  38.0629997  51.9780006   5.9949999
  38.4560013  52.3940010   7.4080000  48.8330002  43.9819984   9.7570000
  48.2729988  43.7169991  10.4949999  48.1300011  44.1529999   9.0760002
  45.2229996  49.8310013  12.1520004  44.7290001  48.9690018  12.1409998
  45.5830002  49.7369995  13.0950003  27.9150009  49.3250008   6.6279998
  28.8290005  48.8889999   6.5939999  27.5380001  48.7159996   7.3230000
  41.2459984  53.0089989   7.0170002  40.8019981  53.3289986   7.8709998
  40.4029999  52.6409988   6.6389999  42.6349983  56.4609985  16.1870003
  43.5099983  56.0660019  16.0060005  42.6020012  57.0859985  15.4490004
  33.6279984  60.0229988   1.7150000  33.7089996  59.6399994   0.8330000
  33.2989998  59.2050018   2.1980000  32.2200012  69.0719986  11.9040003
  31.8560009  70.0000000  12.0690002  31.3680000  68.6190033  11.6320000
  59.3330002  76.6029968  58.2229996  59.7200012  76.6360016  57.3370018
  58.4010010  76.3730011  57.9970016  20.8899994  61.0279999  12.0260000
  21.6119995  61.7060013  12.0690002  21.0300007  60.4920006  12.7910004
  27.8799992  67.3889999   5.1700001  27.2189999  67.6190033   4.5009999
  28.6910000  67.3909988   4.6230001  43.4210014  44.3769989  -3.5280001
  44.1160011  43.7410011  -3.2590001  43.1539993  44.7120018  -2.6159999
  24.6429996  63.4860001  20.8810005  25.1959991  64.1050034  21.3770008
  23.7630005  63.8670006  20.7910004  35.6839981  55.8689995  14.9860001
  35.4449997  55.3289986  15.7270002  34.9739990  56.5379982  14.9949999
  47.2570000  38.1250000  18.4349995  47.1090012  39.0690002  18.2810001
  47.5159988  37.8370018  17.5070000  35.2099991  52.2200012   6.6440001
  35.7919998  52.1780014   7.4759998  35.1829987  53.2249985   6.6409998
  44.9650002  42.3289986  12.3389997  45.8400002  42.5279999  12.0629997
  44.8019981  42.9679985  13.0570002  40.3470001  63.1250000   9.7760000
  40.3100014  62.4430008   9.0810003  40.9790001  63.7649994   9.3230000
  35.4259987  59.9099998   8.4230003  35.7490005  60.7820015   8.2329998
  36.0830002  59.6430016   9.1429996   8.7399998  30.7570000  66.2460022
   9.4619999  31.1420002  65.7649994   8.0579996  30.7649994  65.5230026
  29.6089993  60.0859985  21.0200005  29.9349995  59.1349983  21.1329994
  29.6730003  60.3440018  21.9349995  24.1940002  47.4879990   7.2570000
  24.0230007  47.1100006   6.3540001  25.0799999  47.1669998   7.4109998
  43.7859993  59.5859985  15.1940002  43.6220016  59.6920013  16.1569996
  44.7089996  59.5279999  15.1079998  34.1520004  57.6409988   8.1759996
  33.9799995  57.5999985   7.2240000  34.6570015  58.5019989   8.2019997
  34.5470009  49.0880013   9.5629997  34.8899994  48.2620010  10.0240002
  35.3580017  49.4469986   9.1770000  12.0609999  24.6989994  67.1800003
  11.1470003  25.0349998  67.0520020  11.9399996  23.8959999  67.6429977
  31.3330002  49.2369995   1.3770000  31.7660007  48.6100006   1.9720000
  30.5170002  48.7470016   1.2170000  38.6059990  47.0299988   9.5310001
  38.2680016  46.7529984  10.4480000  38.0509987  47.8390007   9.3970003
  37.8190002  69.1110001  16.4710007  38.7750015  69.3759995  16.5669994
  37.4410019  69.9209976  16.8659992  61.5029984  40.1459999   5.1529999
  61.6399994  40.8540001   5.8480000  61.9609985  40.4949989   4.4089999
  29.7579994  58.5800018   1.0970000  29.0200005  59.0289993   1.5319999
  29.2530003  57.7430000   0.8940000  28.9810009  30.0410004  69.5999985
  28.0590000  29.6910000  69.7590027  28.7989998  30.9480000  69.2620010
  37.3139992  74.9199982  29.8199997  37.0040016  74.5309982  28.9930000
  37.3549995  74.1370010  30.4360008  33.7039986  57.4850006  15.5740004
  32.9879990  57.2050018  16.2059994  33.3849983  58.3849983  15.3290005
  36.7369995  61.8180008   6.5689998  37.4399986  61.2949982   6.0720000
  37.2620010  62.1910019   7.3099999  30.4300003  59.9119987  12.8420000
  29.7719994  60.3740005  12.3730001  30.9090004  59.3889999  12.1370001
  59.4269981  43.2080002   5.0730000  60.1419983  42.8610001   5.6129999
  58.6749992  42.6539993   5.4940000  29.1299992  53.9109993  -4.6820002
  29.2439995  54.8040009  -5.0120001  30.0520000  53.5460014  -4.6560001
  41.3230019  57.8759995  10.8640003  41.2200012  57.4700012  10.0080004
  40.6829987  58.6269989  10.7819996  36.3829994  45.7620010  14.0550003
  36.2280006  44.8549995  14.2969999  36.2809982  46.2420006  14.8490000
  38.1500015  47.6669998  16.0650005  38.0740013  48.6619987  15.8590002
  37.3730011  47.6459999  16.7250004  14.3660002  17.8260002  59.7140007
  14.9130001  17.5249996  60.4780006  13.7019997  18.3729992  60.2229996
   4.5370002  32.3040009  68.0299988   5.0999999  32.1469994  68.8010025
   4.7620001  31.5179996  67.5039978  44.6689987  53.1570015   3.9660001
  45.6180000  53.2589989   3.9080000  44.5340004  52.9309998   4.9070001
  34.9309998  49.3320007  -0.2550000  35.4080009  49.9570007   0.3230000
  35.4710007  49.4319992  -1.0640000  33.4500008  50.6949997   5.3299999
  33.3759995  50.0379982   6.0749998  34.0289993  51.3289986   5.7300000
  43.7929993  57.5859985   6.0409999  43.4739990  57.7270012   5.1389999
  43.5960007  56.6819992   6.2370000  15.3290005  13.1990004  62.7109985
  14.8050003  13.2530003  63.5239983  16.1369991  13.6160002  62.9889984
  34.1199989  46.8190002   0.3580000  34.6279984  47.6879997   0.1550000
  34.3190002  46.3460007  -0.4890000  17.1550007  21.9309998  64.9390030
  17.9459991  22.0660000  64.4110031  16.5410004  22.6030006  64.6330032
  15.5340004  21.9890003  67.8379974  15.3439999  21.4839993  67.0699997
  16.4610004  22.3059998  67.6350021  43.0979996  38.6129990  18.0139999
  42.8919983  39.4510002  17.5039997  43.7120018  38.9280014  18.6830006
  42.1409988  46.7890015  20.4080009  41.3610001  47.2099991  19.9130001
  41.9230003  45.8390007  20.2290001  23.4290009  17.4580002  64.9540024
  23.3400002  18.2600002  64.4000015  24.2299995  17.7619991  65.4749985
  19.9090004  70.5490036  20.3710003  19.3869991  70.0820007  19.7269993
  20.1560001  69.7620010  20.9829998   1.3260000  18.6840000  53.6520004
   1.1600000  19.2339993  54.4189987   0.3910000  18.5970001  53.3390007
  41.2760010  47.4230003   9.7040005  40.3670006  47.1010017   9.5419998
  41.1899986  48.3040009   9.3230000  38.0690002  52.9059982  11.9289999
  38.4519997  53.2630005  11.1210003  37.6290016  53.6650009  12.3529997
  45.5190010  62.9459991  15.9390001  46.2430000  62.4430008  15.4919996
  45.5750008  62.5019989  16.8120003  48.0149994   2.3610001  22.9559994
  48.1160011   1.3990000  23.0300007  48.9169998   2.6480000  23.2789993
  12.9759998  26.9909992  68.1289978  12.0869999  27.4549999  67.9319992
  12.7240000  26.1329994  67.7580032  38.7050018  60.5099983   5.4029999
  38.3479996  59.9850006   4.6459999  39.3440018  61.0859985   4.9210000
   2.6919999  19.2539997  60.0750008   3.1300001  20.1509991  60.1790009
   1.7800000  19.5270004  59.9329987  31.0550003  57.3769989  16.8080006
  30.8719997  58.0709991  17.4860001  30.6119995  57.7410011  16.0090008
  72.7919998  26.8129997  63.2389984  72.4680023  27.7099991  62.9739990
  71.9359970  26.3780003  63.3190002  51.3779984  63.9679985  17.2500000
  51.8740005  63.2299995  16.8279991  51.6870003  64.6449966  16.6100006
  35.2680016  68.4150009  15.8599997  35.3899994  69.2229996  16.3999996
  35.7210007  68.6380005  15.0489998  19.5370007  35.7680016  71.7409973
  19.9890003  36.4379997  72.2320023  20.0100002  35.7910004  70.8659973
  42.9129982  50.9900017  16.3640003  43.2830009  50.2420006  15.8500004
  43.1889992  51.7519989  15.8070002   6.7830000  38.4879990  72.9179993
   7.7010002  38.4599991  73.1230011   6.7129998  38.0999985  72.0250015
  19.3859997  39.2280006  79.8209991  19.5249996  38.8289986  78.9820023
  20.1410007  38.7910004  80.3659973  44.9850006  69.5130005  15.6009998
  45.1090012  68.7760010  14.9720001  44.1069984  69.8229980  15.3859997
  59.2060013  56.1360016  22.1660004  58.5620003  55.5499992  21.6340008
  58.6660004  56.9459991  22.1159992  36.3499985  27.8939991  72.7460022
  35.9920006  28.6910000  72.2669983  35.6090012  27.7369995  73.3619995
  45.5600014  71.5270004  27.6459999  44.7620010  71.1409988  27.2819996
  45.3619995  71.7539978  28.5520000  52.2169991  47.9000015  18.2959995
  52.4739990  47.9990005  19.2649994  52.1559982  46.9049988  18.2490005
  45.3660011  70.4710007  18.0209999  44.8050003  70.2919998  17.2199993
  46.0180016  69.7369995  18.0349998  14.6199999  47.3940010  69.4680023
  15.1230001  47.3310013  70.2799988  15.4150000  47.3250008  68.8290024
  46.3880005  61.8460007  26.1280003  46.3380013  61.0130005  26.6720009
  47.2739983  62.1419983  26.3689995  37.9290009  68.8440018  10.0089998
  37.5379982  67.8909988  10.1029997  38.8730011  68.5579987  10.0270004
  50.4309998  71.4560013  23.4799995  50.2309990  71.8550034  24.3479996
  49.5239983  71.4580002  23.0480003  47.3139992  57.9049988  17.5669994
  46.6889992  57.1829987  17.7859993  48.1010017  57.4160004  17.9290009
  47.2639999  65.6119995  25.6159992  46.5620003  65.0660019  25.3260002
  47.3860016  65.3389969  26.5550003  28.1590004  30.8640003  75.3509979
  28.9759998  30.6350002  74.9039993  28.5259991  31.3530006  76.1480026
  52.5099983  66.4380035  27.0890007  52.4700012  66.5759964  28.0410004
  52.1759987  67.2669983  26.7399998  49.7330017  64.3109970  12.7229996
  49.9259987  64.7639999  11.8549995  49.6829987  65.1709976  13.2749996
  20.6590004  34.8460007  76.9690018  21.5499992  34.7179985  77.3489990
  20.8419991  34.5270004  76.0299988  24.2290001  32.5089989  77.4000015
  23.5310001  32.4580002  76.6699982  23.8570004  33.3460007  77.8180008
  56.5639992  69.8020020  16.4920006  57.5509987  69.7440033  16.7199993
  56.5000000  70.6790009  16.0869999  35.5760002  75.3310013   9.9449997
  36.1189995  75.3010025  10.7670002  36.2840004  74.9449997   9.3120003
  15.3739996  38.1310005  71.6470032  16.0510006  37.4560013  71.6650009
  15.9729996  38.9119987  71.9729996  39.6899986  67.2009964   8.8439999
  40.5660019  67.0469971   8.4069996  39.1139984  67.0169983   8.0570002
  33.5099983  68.9639969  23.2770004  34.2179985  68.4400024  22.9319992
  33.4459991  69.6729965  22.5680008  32.9309998  61.3040009  18.1089993
  32.6949997  61.9300003  17.4020004  33.8660011  61.5589981  18.2810001
  25.1439991  47.0190010  75.8619995  25.0380001  47.2350006  74.8730011
  24.7590008  46.1459999  75.9550018  38.4039993  57.8950005  15.1250000
  38.8629990  58.1020012  15.9689999  37.5680008  57.5880013  15.5419998
  23.0699997  39.8670006  76.7549973  22.3680000  40.4809990  77.0599976
  23.8850002  40.4070015  76.8030014  29.6000004  66.7009964  13.5850000
  29.8430004  67.0080032  12.7119999  28.6340008  66.6910019  13.5769997
  15.0139999  28.8579998  68.0910034  14.9870005  27.8750000  68.1200027
  15.3020000  29.0970001  68.9990005  29.2320004  71.6149979  14.5699997
  28.2999992  71.9120026  14.6610003  29.2740002  71.7279968  13.5649996
  44.6119995  74.3870010  24.5209999  44.1780014  74.3270035  25.4379997
  45.2420006  73.5889969  24.6189995  40.3460007  74.0999985  27.2229996
  40.0340004  73.4619980  26.5470009  39.6160011  74.7409973  27.2970009
  17.5739994  37.6500015  74.9079971  18.5450001  37.8180008  75.0230026
  17.2770004  37.7490005  75.8460007  47.1860008  71.6699982  15.8430004
  47.6739998  71.5910034  15.0109997  46.4519997  71.1340027  15.7679996
  27.5510006  43.0559998  79.3939972  26.9279995  43.8110008  79.4670029
  27.2950001  42.8199997  78.4189987  46.4119987  59.2700005  15.4589996
  47.0540009  59.9959984  15.5059996  46.6129990  58.7709999  16.2460003
  13.7819996  28.0400009  70.3440018  12.9209995  28.3829994  70.5940018
  13.5340004  27.6830006  69.4309998  43.1980019  64.1800003  15.2860003
  42.6780014  63.5839996  14.6840000  44.0489998  63.7249985  15.3549995
  48.0419998  61.7360001  15.8149996  48.8769989  61.7799988  15.2910004
  48.2439995  62.2509995  16.5860004  40.1500015  49.9650002   9.4820004
  39.8390007  50.1489983  10.4169998  39.2509995  49.8639984   9.0719995
  25.4820004  30.6320000  75.6910019  25.2450008  31.2460003  76.3789978
  26.4939995  30.7399998  75.6940002  38.8979988  66.0169983  17.2900009
  37.9099998  65.7630005  17.2479992  38.8580017  66.6979980  16.5620003
  39.7910004  55.7849998  14.3479996  40.6819992  56.0379982  14.0570002
  39.5079994  56.6650009  14.7259998  30.5890007  59.7150002  18.0650005
  30.1389999  59.8170013  17.1980000  31.4710007  60.0909996  17.8670006
  51.1769981  55.3720016  13.4740000  50.3310013  55.3870010  14.0229998
  51.7369995  54.9469986  14.1820002  32.9869995  63.5270004  11.5469999
  33.4749985  63.4010010  12.3750000  33.2929993  62.7859993  10.9750004
  49.8959999  56.4420013   9.2760000  49.2500000  57.1380005   9.3649998
  50.6049995  56.8650017   8.8179998  40.9599991  67.2779999  14.8149996
  39.9560013  67.1959991  14.6730003  41.2490005  66.7480011  13.9899998
  23.0440006  30.9930000  72.6699982  22.9169998  31.9480000  72.4440002
  22.9190006  31.0200005  73.6309967  44.9309998  56.3419991  11.8970003
  45.5050011  57.0660019  11.5570002  45.3959999  56.0680008  12.6549997
  56.8590012  57.9889984  29.9230003  57.5859985  57.9809990  30.5580006
  56.3979988  57.1660004  30.2469997  37.4720001  55.1969986  13.2069998
  38.3269997  55.3120003  13.6160002  36.8510017  55.4869995  13.9370003
  29.3419991  32.8079987  77.1770020  29.6310005  33.7140007  76.9110031
  28.4060001  33.0149994  77.4029999  42.4339981  56.6959991  13.0349998
  43.3429985  56.5369987  12.6780005  41.9700012  56.8569984  12.1599998
  23.2609997  37.6599998  78.4720001  24.2719994  37.5760002  78.4110031
  23.1399994  38.3860016  77.8690033  27.0669994  67.2740021  13.8950005
  26.4249992  68.0049973  13.8920002  26.7490005  66.8270035  14.7100000
  43.3680000  59.2130013  11.7259998  43.3540001  58.7900009  12.6239996
  42.6450005  58.6500015  11.3199997  27.9570007  61.0629997  11.6160002
  27.4689999  61.0620003  12.4630003  27.2240009  61.0309982  10.9429998
  46.3759995  54.7739983  21.7900009  45.8440018  54.2610016  21.1609993
  47.2900009  54.7200012  21.3670006  49.4339981  56.4739990  18.1130009
  49.8170013  55.5820007  18.3439999  49.9059982  57.0040016  18.8509998
  46.3909988  75.1689987  22.3649998  45.8450012  74.7559967  21.6070004
  45.7130013  74.9929962  23.1019993  47.1300011  57.7070007  13.4200001
  46.8870010  58.1949997  14.2690001  47.4790001  56.8979988  13.7650003
  68.3290024  15.7189999  26.9150009  68.8000031  14.9099998  27.1229992
  68.0540009  15.5930004  25.9950008  43.7389984  54.4539986  10.0550003
  43.7939987  53.6769981  10.5939999  43.9010010  55.1850014  10.6870003
  17.3050003  35.2490005  68.5429993  16.4039993  35.0740013  68.9550018
  17.0340004  35.3190002  67.5999985  36.2849998  66.1320038  17.0440006
  35.4370003  66.0589981  17.5380001  36.2389984  67.0500031  16.7530003
  22.2129993  31.8759995  75.6309967  21.6469994  31.2269993  76.2009964
  21.4969997  32.3829994  75.2669983  45.1380005  55.6259995  15.2139997
  45.7719994  54.9370003  15.1870003  45.4370003  56.1150017  16.0079994
  37.4090004  62.0880013  14.4049997  38.2490005  62.1389999  13.9090004
  37.4099998  62.9269981  14.8929996  28.7849998  65.6039963  10.1660004
  28.1149998  65.4690018  10.8430004  29.2900009  64.7600021  10.2580004
  32.0989990  55.1300011  17.9470005  31.5869999  55.7900009  17.3789997
  32.3600006  55.6749992  18.6800003  73.8610001  10.6040001  20.2210007
  74.6309967  11.2830000  20.0939999  73.1800003  11.3000002  20.2970009
  48.5279999  63.7830009  17.7320004  48.1409988  63.5509987  18.6049995
  49.2229996  64.3560028  17.9459991  36.5099983  66.8840027  12.7580004
  35.9309998  66.2490005  13.2530003  36.3089981  66.6679993  11.8299999
  45.3349991  81.9899979  27.9650002  46.2509995  81.8809967  27.6749992
  44.8940010  81.4020004  27.2380009  44.1290016  59.7389984  21.5930004
  44.7820015  59.7060013  22.4249992  43.4790001  60.4070015  22.0340004
  37.7610016  71.3960037  19.5230007  37.0919991  70.7089996  19.3799992
  37.5810013  72.0179977  18.8160000  48.0730019  59.8289986   7.4559999
  47.2729988  59.5180016   7.8699999  48.6370010  59.9729996   8.2349997
  32.1619987  26.9710007  70.1650009  31.2929993  26.8939991  70.6309967
  32.6959991  26.3129997  70.7089996  34.9729996  32.1180000  81.4850006
  35.0909996  31.7929993  80.5370026  35.8409996  31.8710003  81.8150024
  42.5940018  68.1019974  26.2010002  41.9099998  67.5029984  26.4529991
  42.5740013  68.1090012  25.2770004  25.2840004  57.0480003  18.1650009
  24.8640003  56.5979996  17.3649998  25.1480007  57.9860001  17.8330002
  20.1569996  38.2109985  72.7620010  20.4109993  38.2260017  73.7269974
  19.7740002  39.0489998  72.5410004  37.2190018  64.6289978  14.9689999
  37.7490005  65.4729996  14.7320004  36.8079987  64.9560013  15.7709999
  75.5579987  12.9460001  43.0400009  75.4449997  13.6079998  42.2989998
  74.9169998  12.2309999  42.7000008  32.9449997  64.4420013  17.0760002
  32.7929993  65.3450012  16.7010002  32.6189995  64.5889969  17.9710007
  35.9840012  68.2180023  22.3010006  35.8339996  67.4250031  22.8600006
  36.7939987  68.5390015  22.6749992  23.5849991  44.4420013  75.3909988
  23.2779999  44.4889984  74.4729996  23.8169994  43.4480019  75.4110031
  46.8849983  62.9640007  11.0299997  46.4480019  62.8740005  10.1000004
  46.3680000  62.2319984  11.4799995  41.0820007  56.6870003   8.4480000
  41.9029999  56.4090004   7.9930000  40.6510010  55.7989998   8.6330004
  34.0610008  58.3610001  12.6890001  33.5830002  58.8129997  13.4449997
  34.9160004  58.7779999  12.8479996  42.8650017  47.0359993  11.8760004
  42.1189995  46.9959984  11.2159996  42.4420013  47.6829987  12.5220003
  14.0579996  25.2509995  65.6110001  13.9940004  26.2019997  65.7350006
  13.3149996  24.9640007  66.2259979  52.9420013  51.1739998  14.6120005
  53.3629990  50.3619995  14.2180004  52.5620003  51.6020012  13.8490000
  37.2420006  56.8040009   7.8680000  37.4990005  57.6559982   7.6370001
  37.5239983  56.7039986   8.8039999  34.7070007  64.6579971   3.8460000
  34.3110008  65.2020035   4.5370002  34.3110008  64.9459991   3.0569999
  43.8750000  52.8829994  14.5170002  44.2379990  52.8510017  13.6230001
  43.3190002  53.6829987  14.4949999  11.6540003  33.6409988  70.7300034
  12.3710003  33.7639999  71.3389969  10.9119997  33.9970016  71.3000031
  44.4160004  51.5519981  18.9500008  44.3139992  51.2529984  17.9710007
  44.2360001  50.6549988  19.3899994  43.0870018  55.3450012   7.5679998
  43.2690010  55.1020012   8.5400000  43.3759995  54.5029984   7.1799998
  39.1440010  66.3939972  21.7649994  38.2340012  66.0879974  21.7679996
  39.3759995  66.2229996  20.8150005  47.4360008  82.5159988  35.8310013
  47.3889999  83.4980011  35.7099991  46.8170013  82.2139969  35.1370010
  33.9059982  79.3690033  13.5670004  33.0299988  79.6819992  13.2880001
  34.3870010  79.4499969  12.7069998  42.4049988  64.2949982   8.4689999
  42.0830002  65.0309982   7.9860001  43.0919991  63.9119987   7.9610000
  38.0830002  73.3779984  16.9950008  37.3800011  74.0510025  16.9669991
  37.5670013  72.5329971  16.9640007  32.1339989  29.9699993  79.5609970
  33.0760002  30.3600006  79.4560013  32.2799988  29.0860004  79.2040024
  51.3040009  74.8870010  21.1240005  51.7770004  74.0080032  21.2900009
  50.4309998  74.6900024  21.4820004  47.3089981  69.3690033  27.8369999
  47.9500008  70.0390015  28.2250004  46.5779991  70.0009995  27.6389999
  33.9319992  57.5970001   5.5630002  34.7719994  57.6180000   5.0019999
  33.3909988  58.2669983   5.1180000  29.1980000  24.0890007  68.8529968
  29.4370003  23.1310005  68.7170029  29.7590008  24.2980003  69.6210022
  48.5509987  69.4649963  21.3540001  48.3959999  69.2360001  20.4239998
  49.5289993  69.4140015  21.3530006  33.0859985  76.3629990  14.2720003
  33.1769981  76.3450012  13.3330002  32.2869987  75.7620010  14.4440002
  44.2210007  71.5240021  20.1660004  43.9589996  70.6829987  20.5440006
  44.8580017  71.1159973  19.4109993  45.1619987  62.4760017   8.7259998
  44.7050018  62.4370003   7.8800001  44.4350014  62.0169983   9.3020000
  57.6629982  49.7449989  15.4110003  57.5880013  49.0649986  16.1669998
  58.0139999  49.1150017  14.7089996  34.3660011  61.8429985   4.9460001
  35.2760010  61.6990013   5.2859998  34.5559998  62.5579987   4.3090000
  57.9490013  61.0950012  11.0109997  58.4659996  61.8390007  10.6140003
  57.8959999  60.5260010  10.2410002  44.9129982  68.7089996  11.4280005
  45.2010002  68.2910004  12.2790003  44.9179993  69.6320038  11.7360001
  37.6980019  27.0620003  76.4089966  38.3680000  26.3829994  76.4359970
  38.2089996  27.8640003  76.2900009  15.9680004  25.0610008  67.4039993
  16.6189995  24.7159996  66.8550034  15.1730003  25.0380001  66.7710037
  31.4130001  23.1870003  71.1589966  31.9559994  22.4839993  71.6039963
  32.0820007  23.6520004  70.6149979  62.1220016  59.8590012  13.2799997
  61.9179993  59.0429993  12.8030005  61.2239990  60.0820007  13.5970001
  50.0489998  65.7109985  19.7789993  49.9889984  66.1549988  18.9209995
  50.5149994  64.8769989  19.5599995  19.8099995  34.1209984  68.1750031
  18.8780003  34.2980003  68.5319977  19.5510006  34.1020012  67.2149963
  48.8610001  71.0780029  17.9990005  49.5629997  71.3669968  17.2810001
  48.0839996  71.3040009  17.4039993  40.8409996  61.6240005   7.4359999
  41.2599983  60.8310013   7.8070002  40.8670006  61.4799995   6.5279999
  47.8969994  59.3639984  20.2339993  47.8969994  58.8059998  19.4340000
  47.1660004  58.9959984  20.7150002  44.6399994  64.3059998  25.3199997
  43.7210007  64.2860031  24.8449993  44.3880005  63.7309990  26.1270008
  42.3790016  71.1750031  15.3850002  42.6749992  72.0950012  15.6379995
  41.8349991  71.4359970  14.6180000  45.0349998  67.0500031  13.8879995
  44.9480019  66.2109985  14.4410000  45.1980019  66.6090012  12.9840002
  49.1889992  49.4109993  23.1089993  50.0390015  49.6389999  22.7070007
  48.5760002  49.6069984  22.3680000  45.8199997  59.9280014  28.2029991
  45.8829994  59.0709991  28.6140003  46.4910011  60.4630013  28.6140003
  12.4160004  27.4790001  65.2740021  11.4809999  27.4139996  65.0920029
  12.7559996  28.1529999  64.6669998  14.9840002  35.8219986  74.8750000
  15.4119997  36.4500008  74.2549973  14.1459999  36.3730011  75.0520020
  39.5180016  61.9879990  12.5039997  39.5460014  61.1220016  12.1009998
  39.7859993  62.6489983  11.8699999  57.3779984  50.8269997   7.8010001
  57.5110016  50.0890007   7.1430001  56.3650017  50.8409996   7.8049998
  50.1030006  60.8619995  19.1389999  50.4360008  60.5499992  18.2609997
  49.6780014  60.0439987  19.4169998  43.8339996  52.2949982  11.8350000
  44.0909996  51.3800011  11.7360001  42.8300018  52.2229996  11.6219997
  31.8980007  72.7259979   8.0360003  31.0259991  73.0979996   8.3490000
  31.5450001  72.1750031   7.3099999  42.4490013  67.7470016   9.7910004
  42.1580009  67.2580032   8.9840002  43.2820015  68.0429993   9.5159998
  33.0340004  65.0240021  23.7840004  33.1339989  64.0309982  23.9799995
  32.4230003  65.2880020  24.5259991  49.4199982  73.0250015  25.6639996
  48.6059990  73.3399963  26.0970001  49.9029999  73.8509979  25.4839993
  49.4430008  62.3450012  10.5579996  48.5960007  62.7630005  10.7349997
  49.9319992  62.6450005  11.3540001  40.8549995  75.9219971  15.3800001
  39.9620018  76.1549988  15.7700005  40.8470001  74.9479980  15.5430002
  15.5310001  41.3810005  67.0699997  14.9969997  42.2599983  67.0139999
  15.6090002  41.3470001  68.0289993  41.3320007  47.5559998  -3.4230001
  41.8680000  47.6150017  -2.6289999  41.8530006  47.9819984  -4.1180000
  35.4900017  49.6940002  80.1220016  35.1370010  50.6199989  80.1250000
  35.6059990  49.5000000  81.0360031  30.5259991  42.5989990  72.0230026
  30.5639992  41.6539993  71.8020020  29.5709991  42.7729988  71.9250031
  31.7080002  49.2589989  83.7959976  31.7509995  48.7410011  82.9449997
  32.6440010  49.2799988  84.0500031  17.2740002  44.7690010  78.4800034
  16.8719997  45.5950012  78.7659988  16.7129993  44.1069984  78.9540024
  43.6240005  76.5000000  21.2749996  44.0509987  75.8820038  20.6399994
  43.3849983  75.7839966  21.9799995  53.5400009  83.2870026  26.2269993
  53.7029991  84.2389984  25.9960003  54.4280014  82.9049988  26.0680008
  26.5709991  31.9319992  68.6029968  26.0699997  31.0680008  68.5899963
  25.8589993  32.4930000  68.2109985  62.2789993  11.7760000  19.6340008
  61.4300003  11.3240004  19.4099998  61.9249992  12.7550001  19.6180000
  32.7639999  42.7280006  84.1429977  33.6020012  42.4599991  83.7289963
  32.3170013  43.1459999  83.3639984  45.0730019  78.0609970  16.8519993
  45.4360008  78.9079971  16.5869999  45.5660019  77.5820007  16.0319996
  47.3030014  79.9550018  23.4650002  46.9249992  79.9909973  22.5100002
  47.4650002  78.9820023  23.4400005  39.0489998  49.5079994  78.8990021
  38.9029999  49.0839996  79.7669983  38.4449997  48.9700012  78.3069992
  50.4720001  77.0490036  17.3710003  50.7280006  76.2129974  16.8959999
  51.1559982  76.9950027  18.0979996  34.2369995  42.3199997  80.6070023
  33.7919998  42.8400002  79.9349976  34.9469986  42.9529991  80.9469986
  50.3110008  80.3130035  18.7240009  50.2109985  81.1259995  19.2639999
  50.9690018  79.8560028  19.2500000  28.7010002  39.8820000  80.3239975
  29.2810001  39.3330002  80.8990021  28.2830009  40.4269981  81.0299988
  51.9840012  81.6969986  24.8570004  52.3170013  80.8949966  25.3509998
  52.5320015  82.3880005  25.3689995  46.7939987  82.0569992  24.8680000
  47.0429993  81.3580017  24.2339993  47.7319984  82.2699966  25.1940002
  50.3600006  62.1300011  14.2760000  51.2299995  62.4490013  14.5240002
  49.9809990  62.9379997  13.9049997  53.0509987  63.6500015  68.8980026
  53.4869995  63.5079994  69.7470016  53.5979996  62.9970016  68.3430023
  18.7840004  31.0820007  14.5369997  18.7490005  30.1289997  14.5380001
  17.8059998  31.2520008  14.2810001  62.4620018  56.4900017  68.4499969
  61.7029991  56.7369995  69.0199966  62.0410004  55.9399986  67.7419968
  42.9099998  62.4379997  73.0810013  43.2420006  61.5079994  73.3809967
  41.9620018  62.2350006  73.0370026  58.5960007  66.5729980  46.2169991
  58.7420006  67.2440033  45.6059990  58.9599991  66.9599991  47.0589981
  30.8430004  22.5319996  17.6700001  31.5170002  21.8400002  17.5370007
  30.5440006  22.6679993  16.7380009  34.3040009  56.0660019  79.4300003
  34.9869995  55.8569984  80.0820007  33.6980019  56.4760017  80.0889969
  45.7840004  55.2840004  76.3460007  45.0400009  54.6520004  76.5960007
  45.2470016  56.0600014  76.0859985  42.9970016  62.6619987  70.2669983
  43.3709984  62.3129997  71.1190033  43.8330002  62.9000015  69.8199997
  62.8170013  50.0600014  65.9729996  63.6230011  50.5390015  66.2770004
  63.3009987  49.1230011  65.9110031  43.1360016  61.8610001  65.6640015
  43.6170006  61.4560013  66.4410019  43.2589989  62.8069992  65.8769989
  25.2880001  25.1509991  10.7679996  26.1089993  25.1359997  11.2869997
  25.1639996  24.2250004  10.4910002  46.8969994  54.5449982  66.6350021
  46.3670006  53.7070007  66.2829971  46.0229988  55.0190010  66.9599991
  47.4790001  67.5120010  61.7760010  47.2089996  68.4499969  61.7949982
  46.7480011  67.0189972  62.1030006  52.9160004  57.6899986  63.3860016
  52.3520012  57.8359985  62.6020012  52.2540016  57.5390015  64.0849991
  33.1619987  15.3669996   8.9899998  33.5569992  14.6780005   9.5260000
  33.6230011  15.2539997   8.1379995  32.0480003  33.9350014  -0.8830000
  31.7870007  33.4410019  -1.6700000  31.2159996  34.2080002  -0.4960000
  29.4769993  33.1450005   6.1520000  29.9309998  33.0979996   7.0310001
  29.1450005  32.2010002   6.1659999  25.0279999  22.3320007  10.2379999
  24.1620007  22.3460007   9.7430000  25.1630001  21.4029999  10.4239998
  10.2080002  20.6930008  20.2110004  10.6520004  20.1609993  19.4969997
   9.6680002  21.2919998  19.6459999  28.7339993  28.2049999   5.7389998
  29.6170006  27.7549992   5.8070002  28.2010002  27.3889999   5.9010000
  26.6669998  32.3400002   2.3840001  27.1159992  32.8759995   3.0650001
  26.6650009  31.4430008   2.7990000  60.3730011  64.0680008  63.4910011
  60.1110001  63.8870010  62.5349998  60.8129997  63.2260017  63.6539993
  50.5519981  76.4739990  56.4900017  50.5229988  76.9619980  55.6479988
  51.4650002  76.1689987  56.4109993  35.4700012  28.5039997   1.8370000
  35.1489983  29.1250000   2.4790001  35.0589981  28.8519993   1.0190001
  58.1819992  75.8519974  52.2220001  57.7900009  75.8160019  51.2840004
  58.6300011  76.7030029  52.1969986  18.5779991  41.6160011   1.4750000
  18.4389992  41.9379997   2.4040000  18.8080006  42.4560013   1.0640000
  68.2580032  64.2760010  53.7220001  68.1829987  63.3209991  53.9389992
  69.0130005  64.4589996  54.3530006  59.0559998  62.6110001  56.8629990
  58.6310005  62.7729988  57.7480011  59.3959999  63.4790001  56.6450005
  39.2840004  42.4539986   4.0720000  38.9129982  42.7470016   4.9699998
  38.4420013  42.0740013   3.7110000  53.1710014  62.1269989  48.8520012
  53.0730019  62.3810005  47.8979988  53.5890007  61.2659988  48.6959991
  53.5800018  55.0919991  65.4160004  53.9920006  54.9420013  64.5339966
  54.2970009  55.4090004  65.9410019  55.2130013  57.7010002  62.3759995
  54.3520012  57.8899994  62.8059998  54.9329987  57.7120018  61.4160004
  42.0060005  27.6210003  -0.5170000  41.3199997  27.0620003  -0.0830000
  42.4900017  26.8439999  -1.0210000  55.5139999  68.9869995  64.4160004
  55.5079994  69.9029999  64.6979980  56.4720001  68.8119965  64.6930008
  42.7960014  24.6180000   2.3360000  42.6570015  24.3099995   3.2560000
  41.8349991  24.7369995   2.0680001  42.4749985  71.0299988  59.1689987
  41.7270012  71.1949997  58.6339989  42.3440018  70.1169968  59.4669991
  17.4810009  19.2679996  48.8289986  18.4629993  19.4249992  48.9620018
  17.1450005  19.9990005  49.4770012  30.0310001  35.7019997   3.7290001
  29.7439995  36.3100014   4.4679999  29.4740009  36.0690002   3.0170000
  37.6199989  25.7849998   4.5209999  36.6419983  25.7900009   4.5850000
  37.8110008  26.4209995   3.8329999  36.1409988  36.3989983   4.8070002
  35.8380013  35.6360016   4.2839999  35.8349991  37.1699982   4.2290001
  35.0070000  30.4379997  17.3050003  34.5019989  29.7740002  17.7749996
  34.3059998  30.9290009  16.8449993  56.0089989  66.6920013  62.6090012
  55.6930008  67.4240036  63.1809998  55.8440018  67.1240005  61.7239990
  59.1860008  71.0770035  59.9169998  59.0699997  71.9000015  59.4830017
  59.4830017  70.4690018  59.2270012  18.3530006   4.6230001  57.2840004
  18.9270000   4.1050000  57.9249992  17.5000000   4.4740000  57.7140007
  32.2739983  19.7900009   7.9520001  31.4939995  19.4669991   7.5380001
  32.2229996  20.7469997   7.7729998  40.2789993  31.7420006   7.6199999
  39.8909988  32.5089989   8.1610003  40.1209984  32.1240005   6.7350001
  36.2080002  24.7630005  13.1479998  37.1599998  24.5629997  12.9090004
  35.8050003  24.1200008  12.4849997  17.1170006   0.8030000  56.7229996
  17.2700005   0.9000000  57.7400017  16.1900005   1.0920000  56.7340012
  50.3520012  62.2760010  48.6969986  51.2029991  62.4049988  49.1430016
  49.7999992  62.0099983  49.4669991  49.7589989  66.8880005  57.5169983
  50.4599991  67.4980011  57.2430000  50.2190018  66.4440002  58.2210007
  38.7449989  48.9879990  -3.8299999  38.9780006  49.2729988  -4.7600002
  39.2970009  48.1279984  -3.8369999  33.9199982  26.9720001   5.8330002
  34.0800018  26.8379993   4.8130002  34.0299988  26.0370007   6.0999999
  43.0449982  61.6069984  51.7770004  43.6250000  61.5579987  52.5999985
  43.6399994  62.0690002  51.1769981  63.7519989  65.3000031  53.7879982
  63.3120003  64.4879990  54.0569992  63.2449989  66.0019989  54.1819992
   8.1359997  10.5780001  53.2949982   8.8780003   9.9910002  53.5019989
   7.8620000  10.7989998  54.2260017  27.5699997  20.7070007  17.2180004
  27.8500004  21.3999996  17.8479996  26.6250000  20.7460003  17.2299995
  61.5670013  78.4430008  51.6329994  60.5890007  78.4609985  51.4309998
  61.8590012  79.0800018  50.9669991  34.2369995  32.4959984  14.2449999
  33.2820015  32.5070000  14.1470003  34.3100014  33.0070000  15.1350002
  19.2950001  30.6410007  10.5170002  20.1030006  30.4330006  10.0410004
  18.6580009  30.2220001   9.9429998  28.6110001  42.0820007   3.4940000
  28.7290001  42.6020012   4.3260002  29.1200008  42.5820007   2.8590000
  43.7190018  48.6310005  15.0279999  43.5379982  47.8909988  15.5819998
  42.9869995  48.5460014  14.3669996  50.1290016  54.4550018  52.5670013
  49.8320007  53.8590012  51.8750000  49.5670013  54.1899986  53.3139992
  65.0380020  48.7340012  57.6609993  64.8199997  49.2649994  56.8370018
  64.9309998  47.8419991  57.1930008  26.8269997   3.0120001  53.0289993
  27.1840000   2.5950000  52.1990013  25.9020004   2.9519999  52.8919983
  68.8850021  66.4680023  57.2169991  69.5729980  67.0960007  57.2439995
  69.2259979  65.7580032  56.6189995  31.3689995  27.2439995   6.0029998
  32.2949982  27.2210007   5.7849998  31.0639992  26.3330002   5.7210002
  65.8389969  59.3139992  65.4390030  65.3939972  59.2610016  66.2990036
  65.3830032  58.6399994  64.9110031  39.5050011  37.8380013  -4.2589998
  39.3429985  37.3079987  -5.0720000  40.1899986  37.2700005  -3.7950001
  44.6969986  24.4160004  -0.0150000  43.9300003  24.7819996  -0.5110000
  44.2470016  24.2180004   0.8420000  60.9539986  68.2990036  47.3639984
  60.1049995  68.2429962  47.9350014  61.4379997  68.9069977  48.0709991
  15.1020002   5.4039998  44.7290001  15.2550001   6.2600002  45.1860008
  15.8179998   5.4860001  44.0400009  68.0579987  61.1710014  53.3699989
  68.8440018  60.8639984  53.8219986  67.9020004  60.5610008  52.6529999
  41.2999992  33.2330017   2.9330001  42.2260017  33.6279984   3.1259999
  41.0169983  33.9570007   2.2900000  11.5279999   6.4190001  54.2639999
  12.4630003   6.4320002  54.3930016  11.3750000   5.5980000  53.7529984
  66.1449966  64.9739990  59.6889992  66.5260010  64.2799988  59.0950012
  65.6429977  64.4589996  60.3330002  37.7249985  29.1550007   6.2979999
  38.0070000  29.7539997   5.5300002  36.7550011  29.2579994   6.1320000
  24.8880005   7.2020001  59.8240013  24.4459991   6.5760002  59.2400017
  24.2329998   7.8649998  59.9080009  58.6310005  61.3610001  65.0250015
  57.9140015  61.9720001  64.7890015  58.0309982  60.5460014  65.1279984
  72.2870026  66.4550018  58.2560005  72.0110016  66.0790024  59.1489983
  72.3069992  65.6009979  57.7379990  56.0320015  75.1949997  61.1629982
  56.8059998  75.2340012  60.5830002  56.3440018  75.8730011  61.8390007
  24.9689999  30.8360004   9.4809999  25.5599995  31.1580009  10.1429996
  25.5540009  30.3460007   8.9259996  37.7919998  26.7630005   1.9130000
  37.7369995  26.7070007   0.9400000  36.9720001  27.2959995   2.0799999
  41.3800011  27.6439991   3.2260001  42.0999985  27.2210007   3.7200000
  41.1030006  26.9319992   2.6259999  31.1270008  22.3880005   5.4949999
  30.8729992  21.9270000   4.6880002  32.1399994  22.2019997   5.4260001
  35.9739990  30.6720009   0.0080000  35.3689995  30.1019993  -0.5300000
  35.4379997  31.5090008  -0.0360000  29.6560001  54.7929993   1.9460000
  29.3509998  55.4220009   1.2460001  29.0720005  55.0999985   2.6780000
  42.2130013  41.6479988  -6.6120000  42.0750008  42.1310005  -5.7560000
  41.6629982  40.8489990  -6.3969998  64.7600021  56.8409996  64.8180008
  64.9830017  57.0029984  63.8520012  65.3970032  56.1580009  65.0780029
  27.8349991  35.7949982  12.5590000  26.8439999  35.7150002  12.8170004
  27.8260002  36.6539993  12.0819998  58.1360016  73.8440018  60.1800003
  57.5209999  73.1419983  59.9140015  58.7739983  73.8270035  59.4819984
  57.6549988  58.0239983  68.4980011  57.6889992  57.1650009  68.9589996
  58.3930016  57.8689995  67.8379974  32.1209984  44.7130013  -7.8060002
  32.9809990  44.9220009  -8.1070004  31.7830009  44.1619987  -8.5690002
  39.6150017  26.5119991   9.0290003  40.5309982  26.1690006   8.9619999
  39.4970016  26.7779999   8.0400000  51.8559990  73.0059967  61.3380013
  51.9370003  73.8679962  60.8380013  51.2330017  73.3180008  62.0400009
  38.5309982  41.5909996  -1.1370000  39.1839981  41.7970009  -0.4410000
  38.8240013  40.6969986  -1.4390000  15.8459997  10.4919996  54.3079987
  16.3659992  10.8559999  55.0649986  15.7539997  11.3450003  53.7779999
  37.1110001  34.6969986   0.8630000  36.3120003  34.9570007   1.2580000
  37.2200012  33.7859993   1.2130001  41.9879990  36.8800011  -2.8950000
  42.3030014  37.5060005  -2.2509999  42.5639992  36.1380005  -2.8880000
  27.7299995  34.1949997   4.3260002  28.5189991  33.8499985   4.8080001
  27.9440002  35.1469994   4.2189999  67.7050018  68.0780029  52.4140015
  68.0780029  67.1559982  52.1609993  66.7139969  67.7929993  52.3839989
  54.4199982  78.5739975  58.7080002  54.0970001  79.3649979  59.2179985
  53.5099983  78.1220016  58.6269989  43.5699997  40.2089996  -3.6650000
  42.6940002  40.4300003  -4.0089998  43.8540001  39.5429993  -4.3470001
  61.7039986  59.0919991  63.9830017  62.5769997  59.4389992  63.6590004
  61.9309998  58.2290001  64.3639984  44.4160004  33.2099991   1.9050000
  44.0639992  34.0550003   1.5980000  45.0929985  33.0060005   1.2190000
  34.9770012  40.7290001  -3.2720001  34.1870003  40.9780006  -2.8090000
  35.6049995  41.3590012  -2.8210001  30.2619991  41.7039986  -5.1960001
  29.4659996  41.2970009  -5.5510001  30.1060009  42.6520004  -5.4410000
  38.4309998  24.0259991   9.5930004  38.7719994  24.9740009   9.6180000
  39.2420006  23.5669994   9.5310001  71.0510025  59.0970001  58.2560005
  70.5709991  59.9539986  58.0130005  70.4039993  58.4430008  57.9129982
  71.6620026  61.5200005  55.5800018  71.2770004  60.8959999  54.9980011
  71.1240005  61.3950005  56.3779984  35.3709984  38.4889984   3.3010001
  35.6380005  37.7529984   2.7070000  34.3339996  38.3019981   3.2530000
  51.0390015  68.0569992  63.7690010  50.6850014  68.6959991  64.3830032
  51.8699989  67.8000031  64.2050018  28.3840008  34.6920013   9.9940004
  27.4880009  34.4179993  10.3129997  28.0440006  35.3230019   9.2799997
  45.0629997  36.0299988  -0.9690000  44.6910019  36.9049988  -1.0920000
  44.4239998  35.3909988  -1.3890001  17.3840008   5.1279998  54.0449982
  17.2110004   6.1020002  54.2109985  16.7530003   4.7810001  54.7229996
  53.8030014  54.4449997  68.4300003  54.2820015  53.6250000  68.6419983
  53.0439987  54.3330002  69.0019989  11.2559996  11.9460001  52.8470001
  10.9740000  11.6700001  51.9449997  12.1120005  12.4350004  52.6459999
  34.8730011  54.7039986   3.8699999  34.9459991  54.7729988   4.8290000
  33.8909988  54.5769997   3.7880001  39.8730011  20.0949993   4.5730000
  39.3839989  19.3750000   4.1550002  39.5839996  20.8349991   4.0689998
  60.8930016  66.8479996  63.4949989  60.9220009  67.0029984  62.5040016
  60.5760002  65.9680023  63.5540009  29.2520008  34.2290001   0.0010000
  29.0240002  34.6489983  -0.8570000  28.9519997  34.9490013   0.5660000
  52.4280014  67.6309967  60.1110001  51.9230003  68.3290024  60.6459999
  52.4910011  68.0609970  59.2760010  70.5139999  57.7589989  64.3820038
  70.6920013  58.1800003  63.5480003  69.5640030  57.5040016  64.3300018
  39.4799995  36.6500015  -6.6910000  38.8860016  36.8909988  -7.3769999
  39.4280014  35.7669983  -6.4410000  42.7589989  67.0729980  64.5289993
  43.1180000  67.0889969  65.4520035  42.1389999  66.3280029  64.6689987
  38.0340004  29.9969997   8.7270002  38.0229988  29.5470009   7.8969998
  38.3289986  30.8990002   8.4820004  58.8279991  78.4000015  51.3619995
  58.0950012  78.2419968  50.7200012  58.7690010  79.3249969  51.4640007
  52.9070015  70.8140030  55.0159988  52.9669991  71.5709991  54.3530006
  51.9970016  70.5400009  54.7229996  35.3160019  39.5519981  -5.7529998
  35.0390015  40.1069984  -4.9749999  34.4860001  39.4700012  -6.1729999
  40.6570015  44.8689995  -2.9930000  41.1520004  45.7430000  -3.0550001
  41.2060013  44.3310013  -3.5790000  23.7800007  32.2919998   2.8110001
  24.6779995  32.3419991   2.4200001  23.6310005  33.2019997   3.0950000
  25.4979992  53.4179993  -1.9800000  25.4050007  52.7369995  -1.2500000
  25.2409992  52.8219986  -2.7330000  25.1959991  37.7360001   4.0089998
  25.1609993  38.6749992   3.7040000  24.8379993  37.9630013   4.9340000
  47.3400002  69.7620010  64.9260025  47.1889992  69.8580017  63.9589996
  48.1879997  70.2570038  65.0510025  35.7939987  41.2089996   0.0840000
  36.3520012  41.8409996  -0.4620000  34.9029999  41.5589981  -0.1740000
  40.2249985  25.7689991   1.2410001  39.4599991  25.9960003   1.8550000
  39.7130013  25.2509995   0.5770000  36.1930008  38.7449989  -0.9780000
  36.3470001  39.7109985  -0.8080000  36.7649994  38.3699989  -0.3010000
  44.4000015  37.8419991  11.7980003  44.1279984  38.7029991  11.9130001
  43.8499985  37.4770012  11.0570002  52.6469994  22.6599998   3.4820001
  53.0340004  21.8299999   3.3199999  52.1310005  22.8719997   2.6710000
  41.4350014  39.3370018  -0.2940000  40.5299988  39.1300011  -0.6340000
  41.2610016  40.1040001   0.2440000  57.3919983  55.5009995  69.8789978
  56.9480019  54.6069984  69.8750000  58.3390007  55.1809998  69.7969971
  58.1180000  26.9540005   0.2060000  59.0680008  26.8710003   0.3450000
  57.9920006  27.9060001   0.4700000  35.2989998  31.7140007   8.0299997
  36.1930008  32.1669998   7.9940000  35.4389992  31.0699997   7.3270001
  71.6269989  73.0530014  49.8279991  71.1330032  72.1859970  49.9399986
  71.4280014  73.4560013  50.6839981  15.0240002   7.7600002  56.5250015
  15.9289999   7.4530001  56.6759987  14.6599998   7.0920000  55.8959999
  40.9930000  31.3910007  -2.9890001  40.9160004  31.2980003  -2.0150001
  40.2690010  30.7870007  -3.2349999  51.1769981  35.7760010   2.9289999
  50.7989998  34.9690018   2.6350000  50.8110008  36.4230003   2.3770001
  77.0609970  53.0480003  60.1990013  76.4169998  53.8110008  60.4070015
  76.6650009  52.3590012  60.7620010  56.0880013  31.1200008  -1.2300000
  55.8849983  32.0730019  -1.4690000  56.8289986  30.9309998  -1.8150001
  41.0229988  40.2120018  -4.6680002  40.3580017  40.8209991  -4.4689999
  40.5680008  39.3160019  -4.5479999  64.3850021  64.5800018  62.2809982
  64.2559967  63.9949989  63.0610008  63.4990005  64.9869995  62.2729988
  22.4710007  31.4549999   9.6040001  23.4480000  31.1730003   9.5649996
  22.6350002  32.2389984  10.2019997  58.2220001  69.0490036  57.7490005
  58.2249985  68.2750015  58.3110008  57.3110008  69.0879974  57.4410019
  42.3720016  34.7680016  -5.7630000  42.9739990  34.5200005  -6.5300002
  41.5340004  34.6010017  -6.1599998  33.6440010  30.1919994   3.5799999
  32.8759995  30.4239998   4.1259999  33.1440010  29.8700008   2.7780001
  33.4020004  39.2830009   0.3170000  34.3330002  39.2999992   0.0270000
  32.9659996  38.9210014  -0.4570000  52.9710007  75.1060028  59.8289986
  53.9459991  74.9120026  59.9189987  52.8930016  74.9530029  58.8800011
  41.3120003  22.4430008   6.0489998  40.4150009  22.3369999   5.6580000
  41.6399994  23.2579994   5.6059999  67.4110031  56.7970009  51.6609993
  68.3470001  56.7360001  51.8989983  67.0350037  56.8390007  52.5960007
  24.7810001  39.3600006  -1.6920000  25.7630005  39.6040001  -1.8700000
  24.9990005  38.8629990  -0.8710000  60.2849998  62.8769989  52.2099991
  59.5499992  62.3419991  52.4239998  60.7340012  62.2540016  51.5499992
  72.0250015  64.4980011  54.1889992  72.3830032  65.3479996  53.9519997
  72.0230026  64.0380020  53.2799988  56.5740013  29.7840004   3.7950001
  56.8089981  28.8209991   3.9340000  55.6809998  29.7310009   4.2440000
  36.1980019  43.1180000  -2.4430001  36.0070000  43.3959999  -3.3690000
  37.1010017  43.5079994  -2.3350000  63.5730019  78.9830017  53.4519997
  63.6170006  78.0199966  53.3040009  62.7470016  79.1869965  52.8429985
  43.6180000  67.0960007  67.0559998  44.5830002  67.2630005  67.0439987
  43.4010010  67.8239975  67.7460022   8.4919996  16.6089993  62.0359993
   9.3570004  16.2619991  61.9440002   7.9510002  15.8140001  62.2099991
  53.8670006  58.2229996  57.5740013  53.1030006  58.7579994  57.3030014
  54.5379982  58.7570000  57.1310005  19.9899998  33.5900002  14.4980001
  19.6849995  32.6349983  14.6750002  19.6809998  33.6209984  13.5500002
  18.5259991  10.4280005  60.7389984  19.4080009  10.5410004  60.3660011
  18.1140003   9.8889999  59.9570007  40.9020004  38.6949997  -8.1260004
  40.4840012  38.1030006  -7.5000000  40.1170006  39.1990013  -8.4740000
  50.3129997  48.1829987   6.3270001  49.4410019  48.6459999   6.5310001
  50.3300018  47.6090012   7.1599998  43.7019997  35.0169983  13.7659998
  43.3950005  35.7080002  14.4169998  43.5670013  34.2299995  14.4040003
  74.5849991  18.0790005  57.1990013  74.9000015  18.8209991  57.7980003
  73.8150024  18.5559998  56.7599983  58.1599998  46.2190018  11.7910004
  57.8370018  46.2820015  10.8649998  58.5730019  45.2849998  11.7860003
  30.6690006  44.0120010  -1.6200000  30.9650002  44.7060013  -2.2379999
  31.0170002  43.2130013  -2.0810001  35.4860001  53.9090004   1.1230000
  35.6139984  53.9920006   2.1310000  36.4169998  54.0439987   0.8610000
  26.6450005  25.3710003  73.1859970  26.6730003  24.5709991  72.6539993
  25.7049999  25.6180000  73.1510010  21.3560009   4.8039999  52.7690010
  20.7779999   5.0720000  52.0379982  20.7479992   4.2700000  53.3069992
  53.9210014  41.7389984  12.0790005  54.2879982  41.2330017  11.3380003
  52.9500008  41.6459999  11.9040003  45.8569984  41.5279999  16.1210003
  45.6829987  40.6829987  15.6560001  45.0690002  42.0600014  15.9549999
  47.9430008  47.7480011  10.5109997  47.0680008  47.3769989  10.8400002
  47.5600014  48.6199989  10.2700005  14.0299997   7.5349998  49.7739983
  14.1350002   7.2399998  48.7970009  14.5349998   8.3230000  49.7309990
  20.0550003  15.8280001  66.4219971  20.7679996  15.8610001  67.0910034
  19.3339996  16.2579994  66.9169998  21.0000000  12.6689997  63.1430016
  20.3470001  12.4370003  63.8300018  21.1959991  13.5810003  63.4280014
  61.8040009  37.2060013   5.7110000  61.1160011  37.1349983   6.3150001
  61.8600006  38.1860008   5.5520000  46.7159996  40.8759995  18.6140003
  46.9350014  41.7500000  18.9780006  46.4080009  41.1329994  17.7070007
  14.7770004  20.4740009  65.0530014  14.9320002  19.5839996  64.6520004
  15.6850004  20.8269997  64.9680023  51.3559990  46.7840004   3.7939999
  51.6440010  45.8899994   3.8750000  50.4980011  46.8409996   4.2709999
  46.5460014  43.3709984   5.0460000  46.8549995  43.9099998   4.2909999
  45.5660019  43.4939995   4.9150000  38.8569984  45.9300003   6.8020000
  39.6990013  46.3629990   6.6269999  38.6230011  46.2830009   7.6780000
  43.7859993  47.6599998  -1.9460000  44.3209991  47.4739990  -2.7400000
  44.3870010  48.2900009  -1.4940000  54.2540016  45.9799995  16.2159996
  53.6339989  45.2949982  15.9560003  54.6100006  45.7050018  17.1079998
  15.0039997  14.6580000  55.4850006  14.9359999  14.5740004  56.4990005
  14.1630001  14.3129997  55.1990013  15.3290005  19.2600002  57.7560005
  14.7340002  18.8190002  58.3969994  16.0489998  18.5389996  57.6829987
  51.3680000  41.7540016  11.9809999  51.0550003  42.6440010  12.0769997
  50.6199989  41.3260002  11.4779997  46.9399986  44.0270004   7.7919998
  47.0499992  43.9230003   6.8080001  46.1879997  43.4129982   7.9210000
  38.2480011  44.6469994  -2.2709999  38.0499992  45.6110001  -2.0940001
  39.1520004  44.7459984  -2.6800001  27.3400002   0.3760000  59.3440018
  27.4909992   1.1320000  59.8779984  26.7819996  -0.1960000  59.9109993
  14.1540003   4.4439998  47.8030014  15.0509996   3.9879999  47.7099991
  14.0979996   4.8480000  46.9529991  55.2340012  41.9210014   6.6729999
  54.7849998  41.0330009   6.7040000  54.8470001  42.2779999   5.8150001
  59.0559998  81.2139969  51.8470001  58.8110008  82.1200027  51.9920006
  58.7620010  81.1100006  50.9099998  41.7330017  48.0289993  -0.0460000
  41.9580002  48.9749985   0.0280000  42.2490005  47.8660011  -0.8820000
  20.0060005  15.7100000  59.6069984  20.0009995  15.6149998  58.6139984
  20.8680000  16.1749992  59.7490005  39.9440002  40.8040009  11.6730003
  40.4039993  39.9939995  11.8409996  39.6240005  40.6510010  10.7309999
  37.0530014  49.9819984   8.7950001  36.9889984  50.9329987   8.8190002
  36.8989983  49.8510017   7.7770000  36.4739990  52.4679985  14.3990002
  35.5530014  52.7840004  14.1260004  36.9179993  52.4420013  13.5349998
  41.2690010  52.4620018  11.6429996  40.8230019  51.6170006  11.4860001
  40.6440010  53.0390015  11.0760002  50.3629990  44.0239983  13.0389996
  49.9910011  44.0439987  13.8990002  50.4609985  44.9869995  12.7950001
  46.9020004  35.9640007   1.4850000  46.9679985  36.9420013   1.6680000
  46.2949982  36.0130005   0.7250000  39.2050018  38.8930016  -1.6799999
  39.4339981  38.7299995  -2.5899999  38.6479988  38.1220016  -1.4800000
  63.2509995  63.0419998  64.6080017  63.8759995  62.3330002  64.4369965
  62.4249992  62.5320015  64.8190002  50.9780006  32.2000008  11.1739998
  50.4259987  32.2639999  10.3559999  50.9930000  33.1209984  11.4829998
  55.4930000  68.3750000  60.6290016  55.0929985  69.2450027  60.7099991
  55.1199989  68.0660019  59.7840004  39.9109993  38.0239983   2.0869999
  40.0550003  37.9850006   3.0660000  40.1809998  38.9490013   1.9360000
  36.9269981  50.8909988   3.7290001  37.0320015  51.8470001   3.7790000
  36.0099983  50.8260002   3.3169999  23.5750008  -4.5970001  49.0390015
  22.9459991  -3.9059999  49.3059998  22.9519997  -5.3439999  49.2229996
  41.4659996  47.7389984   4.0200000  41.8079987  47.2949982   4.8550000
  40.7809982  48.3269997   4.4470000  72.4029999  72.1330032  54.3759995
  72.6350021  71.5169983  55.1290016  71.3980026  72.1200027  54.4560013
  52.3489990  39.4179993   4.2649999  52.9729996  38.7799988   3.9760001
  51.6129990  38.8549995   4.5500002  46.7150002  35.6790009  -5.5019999
  46.7980003  34.7179985  -5.2379999  46.0849991  35.6170006  -6.2540002
  13.3360004   3.2100000  53.4220009  13.9200001   2.8770001  52.7029991
  12.7880001   3.8770001  52.9179993  43.9090004  43.8470001   4.8379998
  43.1180000  43.3989983   4.4559999  43.7900009  43.5789986   5.7839999
  68.1709976  70.3109970  50.9650002  69.1370010  70.5329971  50.9840012
  68.1880035  69.4420013  51.3820000  49.1269989  37.6899986  -3.0810001
  49.9389992  37.4389992  -2.5850000  48.6180000  36.8409996  -3.0460000
  44.3499985  38.3009987   1.4370000  43.9550018  39.1730003   1.7450000
  45.2809982  38.5999985   1.3270000  39.6959991   6.8439999  68.9449997
  40.4970016   6.3020000  69.1100006  39.2849998   6.7719998  69.8150024
  39.9850006  38.8790016   4.9460001  39.8390007  39.6349983   5.4499998
  40.8380013  38.9070015   4.5110002  43.3320007  44.9720001   7.7989998
  43.9449997  45.7099991   8.0869999  43.7360001  44.2480011   8.2049999
  62.7980003  70.1309967  56.4949989  62.7519989  70.0130005  57.4329987
  61.8339996  70.1800003  56.2560005  44.5110016  37.7949982   4.7040000
  44.2830009  36.8359985   4.6020002  43.7879982  38.0979996   4.1129999
  35.1870003  41.2190018   4.9010000  35.0159988  40.8880005   5.7700000
  35.3149986  40.4560013   4.3649998  26.5790005   9.9549999  64.7070007
  26.4120007   8.9809999  64.7829971  27.5699997   9.9180002  64.9560013
  35.0390015  11.4169998  66.2419968  34.2970009  11.6269999  65.6200027
  35.7690010  11.3260002  65.5879974  37.3419991  50.3380013   1.1150000
  37.3699989  49.3530006   0.9810000  37.4230003  50.4010010   2.0910001
  42.5909996  50.4440002   0.8980000  41.7529984  50.7130013   1.3220000
  42.9620018  49.8709984   1.5860000  40.0070000  53.1730003  14.3559999
  39.9070015  54.1450005  14.3170004  40.0239983  52.9780006  13.3739996
  57.9399986  41.2630005   1.3850000  57.7949982  41.1940002   0.4230000
  58.8600006  41.0900002   1.4840000  17.5310001  14.6920004  63.5489998
  17.2360001  15.2580004  64.2289963  18.0410004  15.1510000  62.9259987
  26.7970009  20.3470001  63.2080002  26.9029999  19.3659992  63.1220016
  26.1369991  20.4850006  62.4770012  59.6570015  46.4430008   8.1709995
  60.3019981  46.1129990   7.5240002  60.2290001  46.9990005   8.7500000
  62.0730019  73.5569992  59.6290016  62.7669983  72.9710007  59.9840012
  61.9319992  74.1859970  60.4000015  24.7360001   6.1209998  62.7340012
  24.6060009   6.1500001  61.7249985  24.1070004   6.8360000  62.9469986
  29.7460003  44.2430000  -6.1170001  30.6060009  44.2560005  -6.5939999
  29.1790009  44.6259995  -6.8189998  36.0670013  57.2169991   3.7390001
  36.7140007  56.7820015   4.2509999  35.6539993  56.4860001   3.2030001
  37.7630005  56.5820007  10.5780001  38.2260017  55.8499985  10.2620001
  37.3979988  56.3339996  11.4720001  17.6439991   7.0209999  57.0359993
  18.0370007   6.1069999  57.0559998  18.1350002   7.3600001  56.2500000
  39.9290009   4.1650000  62.2239990  40.7309990   4.3839998  61.7270012
  39.3019981   3.9970000  61.5279999  22.9689999  21.7709999  65.3460007
  23.2619991  20.9510002  64.9209976  23.6790009  22.3710003  65.0810013
  37.4809990  34.7560005  -3.9830000  37.2309990  33.8359985  -3.6559999
  38.4700012  34.6180000  -4.0050001  44.1619987  38.4809990  -1.6660000
  43.6860008  38.7760010  -0.8710000  43.9220009  39.1440010  -2.3329999
  44.4539986  42.2919998   7.8390002  44.7130013  41.4949989   7.3509998
  43.5769997  42.0429993   8.1610003  47.9420013  49.3670006   6.9470000
  47.2369995  48.9819984   6.4580002  47.5200005  49.5349998   7.8200002
  50.4379997  40.7200012  15.6929998  50.5960007  39.7799988  15.4510002
  51.2849998  41.1180000  15.4440002  40.6580009  46.4459991   1.8900000
  40.8889999  46.8040009   2.8299999  41.0550003  47.1819992   1.3710001
  52.5410004  70.9850006  59.6349983  52.1839981  71.7819977  60.1090012
  52.2330017  70.3079987  60.2439995  56.1370010  56.3730011  19.8589993
  56.3899994  55.6360016  20.3740005  56.0139999  57.0429993  20.6130009
  37.3460007  37.4280014   1.2430000  38.2910004  37.6549988   1.3430001
  37.4500008  36.5929985   0.7150000  53.0060005  55.3499985  11.3199997
  52.8950005  56.1119995  10.6980000  52.1930008  55.3959999  11.7779999
  21.2719994  -0.3150000  53.5600014  21.8920002  -0.8400000  52.9939995
  20.5779991  -0.9520000  53.7680016  17.0340004  12.4090004  56.7070007
  16.4099998  13.1800003  56.7430000  16.7679996  11.9580002  57.5169983
  38.1839981  55.8839989   4.8839998  37.9640007  55.9550018   5.8039999
  39.1819992  55.7869987   4.8550000  12.9390001  17.0139999  55.7120018
  12.0459995  17.0100002  55.2750015  13.3140001  16.2679996  55.1809998
  30.9230003  45.9449997   0.5490000  31.5049992  46.3950005  -0.0700000
  30.2329998  45.5200005  -0.0540000  61.9290009  64.3170013  45.3849983
  60.9869995  64.1930008  45.2729988  61.9850006  64.9639969  46.1230011
  39.9910011  43.3660011   7.7500000  39.8079987  44.1699982   7.2459998
  39.3079987  42.7210007   7.4010000  41.3110008  35.0320015   9.4090004
  41.0499992  35.5209999  10.2629995  40.5550003  34.4280014   9.3769999
  57.4640007  70.8789978  51.4819984  58.3489990  70.9369965  50.9959984
  57.5489998  69.9649963  51.8629990  46.6739998  41.0400009  -5.4210000
  46.9239998  40.1110001  -5.3990002  46.8769989  41.3520012  -4.5050001
  40.8800011  55.1580009   5.2909999  41.0870018  54.4140015   5.9520001
  41.8489990  55.2980003   5.0260000  47.7910004  53.7360001   3.9270000
  48.0699997  53.0379982   4.5320001  48.6500015  54.1619987   3.6570001
  51.4620018  43.7500000   2.0469999  51.6329994  42.7960014   2.0100000
  51.5629997  43.9189987   3.0070000  32.6259995  38.1549988  -1.9840000
  33.4179993  37.7750015  -2.4510000  32.0779991  38.3849983  -2.7330000
  65.1259995  58.3919983  56.5060005  65.6699982  58.8110008  57.2190018
  64.3850021  58.0870018  57.0660019  37.7929993  43.0849991   6.2550001
  37.0579987  42.8079987   5.7449999  37.6250000  43.9690018   6.5380001
  35.2700005  47.0439987  11.2849998  35.8969994  46.4809990  11.8319998
  34.4350014  46.5740013  11.4860001  37.4459991  53.7350006   3.4649999
  37.7939987  54.5629997   3.9289999  36.4780006  53.9259987   3.6570001
   6.0229998  23.8460007  56.0569992   5.2639999  23.6730003  56.6360016
   5.7370000  24.7119999  55.6440010  35.0540009  45.4519997  -1.6890000
  35.4420013  44.6119995  -1.9880000  35.9070015  45.9189987  -1.4520000
  33.3429985  47.9819984   2.7600000  33.4869995  47.3959999   1.9710000
  33.1259995  47.2319984   3.4280000  29.2989998   9.7600002  65.4749985
  29.6720009   8.8509998  65.5210037  29.8020000  10.2240000  66.1880035
  55.7449989  34.8499985   7.8800001  55.3730011  35.3009987   7.0809999
  56.1479988  34.0849991   7.4159999  49.9490013  34.1510010   5.4510002
  50.0489998  34.4840012   6.3829999  49.0870018  34.6080017   5.2410002
  33.0960007  36.2509995   0.1140000  32.9109993  36.8450012  -0.6740000
  32.5919991  35.4210014  -0.2770000  57.9640007  43.4830017   3.0079999
  58.0660019  42.5999985   2.6840000  58.5519981  43.4809990   3.7890000
  53.4830017  40.0029984   6.5960002  52.7789993  39.9339981   5.8870001
  53.0680008  40.6629982   7.1710000  36.4210014  49.3769989  -2.8050001
  35.8199997  49.8440018  -3.3880000  37.2890015  49.4129982  -3.3320000
  47.9179993  43.3909988  12.1140003  48.8670006  43.6129990  12.2770004
  47.8870010  42.6660004  12.8199997  57.4819984  80.9039993  55.0579987
  58.0800018  80.1119995  54.9609985  56.6710014  80.3909988  55.3619995
  43.5849991  40.9379997   2.3520000  43.3380013  41.7169991   2.9000001
  44.3079987  41.3569984   1.8210000  22.3430004  10.3750000  63.1419983
  21.6539993  11.0089998  62.7970009  22.2980003  10.6450005  64.0859985
  53.4589996  48.1360016   5.9460001  53.3289986  48.5410004   5.0520000
  52.5730019  47.7960014   6.0689998  58.4480019  48.4440002   6.8390002
  58.6020012  47.7669983   7.5009999  57.7799988  48.0149994   6.2470002
  43.2809982  37.1300011   7.3559999  42.8100014  36.5760002   6.7579999
  43.3320007  38.0260010   7.0170002  51.2729988  30.2579994  -2.4250000
  50.5190010  29.6760006  -2.3350000  50.8650017  30.9290009  -3.0390000
  38.2789993  11.4449997  67.0270004  37.9720001  11.3660002  66.0550003
  38.1160011  10.5050001  67.3150024  39.9739990   5.3130002  58.7229996
  40.7309990   4.8610001  59.1180000  40.3889999   5.5339999  57.8030014
  42.9980011  47.0099983  17.2840004  43.5270004  46.2350006  17.6280003
  42.1220016  46.6399994  17.2590008  35.4300003  44.0690002   4.2760000
  35.0830002  43.9920006   3.3959999  35.4039993  43.1749992   4.6370001
  29.3810005  42.4930000   0.4320000  29.8579998  43.0270004  -0.2960000
  30.1450005  41.8680000   0.5540000  25.4099998   6.3740001  50.7449989
  26.3029995   6.2199998  51.1110001  25.0599995   5.4180002  50.7509995
  39.0999985  36.0509987   6.1420002  39.1199989  36.9990005   5.8319998
  40.0130005  35.7949982   5.9870000  45.2939987  46.5849991   8.5909996
  45.9720001  46.0139999   8.3409996  45.3030014  46.5250015   9.5860004
  63.7779999  76.2770004  54.7060013  62.8629990  76.4440002  54.3769989
  63.6879997  75.2659988  54.8149986  69.6409988  63.3720016  49.6860008
  68.6640015  63.1640015  49.5690002  69.9130020  62.7570000  48.9519997
  43.5789986  34.0970001  -2.2000000  43.2999992  33.3349991  -1.6059999
  44.1930008  33.5989990  -2.7890000  40.9150009  42.9150009  13.0469999
  40.4389992  42.5530014  12.3350000  41.3810005  43.6570015  12.5039997
  31.7779999  52.5789986  -4.7119999  32.5239983  52.0909996  -5.1279998
  32.0089989  52.4459991  -3.7720001  40.5639992  50.1959991  17.6030006
  40.3419991  50.0260010  16.6089993  41.4679985  50.6180000  17.4319992
  47.6930008  41.2249985   6.4200001  46.8279991  40.9230003   6.7989998
  47.3359985  41.9150009   5.7849998  43.8310013  37.9300003  -5.6160002
  43.2099991  37.3120003  -5.9439998  44.2529984  37.3880005  -4.9250002
  48.1920013  33.1150017  -1.6300000  49.1539993  33.1730003  -1.4700000
  48.0460014  34.0050011  -1.8760000  29.8549995   3.8099999  56.6969986
  29.0009995   3.9870000  56.3040009  29.6669998   4.0520000  57.5890007
  29.5769997  38.8759995  -0.9460000  29.4659996  39.2529984  -0.0360000
  30.5650005  38.8629990  -1.0140001  27.4990005   2.7260001  60.9220009
  26.6459999   2.9779999  61.3650017  28.0459995   2.7820001  61.8129997
  34.8180008  35.4879990   2.0960000  34.2820015  34.8269997   2.5780001
  34.1030006  35.7459984   1.4390000  52.6749992  54.2760010  15.9090004
  53.4080009  53.9860001  15.3240004  53.2060013  54.6609993  16.6310005
  22.0000000  -0.0040000  49.1010017  21.9939995  -0.8610000  49.5960007
  21.3610001   0.4750000  49.6699982  45.7809982  58.6599998   8.2049999
  46.2459984  57.7789993   8.2290001  45.0559998  58.4269981   7.5879998
  17.9500008  25.6210003  64.7440033  18.1860008  26.2360001  65.4629974
  17.2959995  26.1480007  64.2610016  66.2490005  55.2840004  49.7089996
  66.8580017  56.0340004  49.9780006  66.7659988  54.8610001  49.0130005
  32.3839989  15.4980001  67.5370026  32.1459999  15.5780001  68.4459991
  31.7970009  14.8190002  67.2259979  45.6679993  59.6870003  10.8610001
  44.7649994  59.4119987  11.1890001  45.5940018  59.4949989   9.9020004
  36.0569992   8.9280005  69.0569992  36.3289986   9.5690002  69.7890015
  36.8079987   9.1529999  68.4520035  51.1570015  59.4049988  16.9249992
  50.6459999  58.8660011  16.2210007  51.8559990  58.7849998  17.0930004
  49.4570007  55.1220016  15.4160004  49.4469986  54.2229996  15.7500000
  49.4430008  55.6609993  16.2320004  60.8730011  48.6240005   9.9870005
  61.5919991  48.3209991   9.3009996  60.5760002  49.4420013   9.4420004
  62.9659996  38.4640007   0.8170000  63.3639984  37.9490013   1.5900000
  63.5960007  39.1759987   0.6920000  47.0979996  54.1819992  13.6090002
  47.7700005  53.4420013  13.7869997  46.2949982  53.6049995  13.4280005
  28.9769993  19.2240009  68.6119995  28.2110004  19.0359993  69.1819992
  29.0809994  18.5009995  68.0400009  49.5449982  49.5369987   1.3360000
  49.9020004  49.8670006   2.1680000  50.0439987  50.0690002   0.6830000
  54.1510010  51.0099983  11.1070004  54.7570000  50.2680016  11.1239996
  54.6360016  51.6599998  11.6110001  43.6049995  45.2540016  -0.5290000
  44.5120010  45.0960007  -0.2490000  43.6959991  46.1320000  -1.0290000
  45.2719994  56.2490005  17.9330006  45.3110008  55.4850006  18.4909992
  44.5960007  56.8089981  18.4759998  65.0569992  41.3670006  15.2900000
  65.3209991  40.4389992  15.1099997  65.9850006  41.7400017  15.3509998
  41.4910011  51.6059990   3.2539999  40.7820015  52.2330017   2.8010001
  40.8790016  51.2729988   3.9730000  54.7849998  52.3489990  19.3740005
  54.8450012  51.9959984  18.4120007  55.7369995  52.5919991  19.4599991
  56.4129982  58.5169983  16.9349995  57.2809982  58.1220016  16.6580009
  55.7919998  57.8699989  16.6289997  42.3540001  59.5149994   8.2989998
  41.5610008  59.0079994   8.4890003  42.8349991  58.9630013   7.6859999
  48.1699982  52.4319992  16.5450001  47.7490005  52.0769997  15.7250004
  49.1290016  52.0390015  16.4009991  78.2360001  59.7799988  55.3440018
  78.5849991  59.1199989  54.7309990  78.1770020  60.5810013  54.7929993
   0.1790000  66.6200027  54.8289986   0.8320000  66.1539993  54.3530006
   0.7030000  67.2180023  55.3820000  26.0319996  -4.5330000  54.0589981
  26.4890003  -3.8030000  53.5950012  26.7709999  -5.1719999  54.2120018
  64.7829971  71.5299988  54.6259995  64.6880035  71.1320038  55.5289993
  64.7630005  70.7490005  54.0610008   2.5460000  68.7300034  54.4809990
   2.4579999  68.2320023  55.3650017   2.6150000  69.6119995  54.8450012
  76.7669983  63.8180008  58.2560005  77.3639984  63.1080017  57.9690018
  76.2519989  63.3440018  58.9869995  50.6030006  33.5270004  -0.4520000
  49.9179993  33.7970009   0.2160000  51.2970009  34.2249985  -0.2700000
   1.9960001  51.8670006  59.8300018   1.3020000  52.3880005  60.3199997
   2.6849999  51.9370003  60.5870018  52.1389999  26.1609993  -4.2290001
  52.6269989  26.8379993  -4.8070002  51.2410011  26.5620003  -4.2839999
  55.5169983  27.3040009  -3.3759999  55.3339996  28.0149994  -4.0619998
  55.3499985  26.4720001  -3.8460000  50.6689987  28.7800007  -6.0009999
  50.4099998  27.9009991  -6.2989998  50.4529991  29.3029995  -6.7760000
  14.2379999  67.5910034  62.5169983  15.0869999  67.9749985  62.3019981
  13.6569996  67.8399963  61.7700005  14.5920000   9.8020000  58.2140007
  15.2840004   9.5760002  58.8759995  14.6800003   9.0129995  57.6240005
  43.6640015  -0.3180000  63.4350014  43.6250000  -1.1720001  63.9339981
  42.7229996  -0.1000000  63.3559990  23.2240009  -4.3889999  53.1660004
  24.1760006  -4.6529999  53.2389984  22.9020004  -5.1910000  52.7299995
   7.8750000  37.7470016  67.9970016   7.1789999  37.8009987  68.7470016
   8.2919998  36.8720016  68.2419968  77.7910004  56.1100006  54.9449997
  78.3099976  56.1010017  55.8100014  78.3089981  56.7459984  54.4319992
  67.2529984  61.6510010  49.4620018  67.1600037  61.1920013  50.3009987
  67.6760025  61.0169983  48.9000015  41.8149986  29.8840008   4.5510001
  41.6360016  29.1070004   4.0170002  42.5670013  30.2329998   4.0830002
  40.6780014  35.7939987   0.8930000  40.5040016  35.7299995  -0.0460000
  40.5859985  36.7369995   1.1120000  53.0070000  34.9580002  -0.7570000
  53.6170006  34.5050011  -1.3540000  53.4949989  34.9840012   0.0680000
  34.9889984   4.7040000  55.9900017  34.9329987   4.6490002  55.0180016
  34.1049995   4.5479999  56.2939987  58.3590012  29.8180008  -2.4330001
  59.2280006  29.9500008  -2.0209999  58.2809982  28.8719997  -2.4470000
  43.3059998  35.5270004   1.5740000  42.3979988  35.7010002   1.3670000
  43.7669983  36.3300018   1.3279999  49.6559982  45.7169991   1.4220001
  50.2709999  44.9700012   1.7480000  50.2379990  46.4749985   1.6840000
  47.2620010  38.4300003  -5.0720000  47.9850006  38.1920013  -4.4150000
  46.9599991  37.5169983  -5.3020000  13.5509996  61.9920006  56.1609993
  13.2069998  62.8440018  55.7210007  13.7950001  62.4059982  57.0359993
  65.9929962  56.2820015  54.4179993  65.6090012  57.0239983  54.9449997
  66.7770004  56.0890007  54.8889999  37.8499985   0.8250000  51.4850006
  36.8800011   0.9940000  51.3089981  38.3019981   1.1100000  50.6580009
  48.3199997  30.4069996  -1.4970000  48.1269989  31.3969994  -1.5490000
  47.8829994  30.1019993  -2.3080001  22.9669991  -4.6209998  56.0970001
  22.9120007  -4.5570002  55.0929985  23.7919998  -4.0549998  56.2439995
   7.2670002  65.8590012  52.1310005   8.1549997  66.2139969  52.4679985
   7.1869998  65.1350021  52.8359985  25.4599991  -3.1670001  56.3069992
  25.6830006  -2.2909999  55.9630013  25.9230003  -3.7090001  55.6399994
  21.0699997  10.6510000  59.6170006  20.7310009   9.9230003  59.0670013
  21.9890003  10.2869997  59.8289986  30.8349991  -0.2390000  51.4189987
  30.3759995   0.2230000  52.1759987  30.0839996  -0.6030000  50.8860016
   7.8620000   7.9390001  55.9930000   8.6429996   7.5240002  56.4329987
   8.0260000   7.5869999  55.0639992  75.9140015  69.6460037  46.4669991
  76.6269989  70.1579971  46.8530006  75.5680008  69.2060013  47.2630005
  22.6240005   4.9270000  58.0890007  22.4529991   5.0170002  59.0379982
  22.4799995   5.8649998  57.8380013  44.7900009  42.2369995  -2.2030001
  45.6520004  41.9809990  -2.6849999  44.2249985  41.5760002  -2.6320000
   8.2150002  60.7989998  31.5270004   7.8899999  61.0299988  30.6030006
   7.3820000  60.5909996  31.9839993   5.6609998  55.6389999  13.6990004
   6.5419998  55.9399986  13.4549999   5.3220000  55.2890015  12.8970003
  77.5960007  65.0940018  32.0320015  76.9010010  64.9049988  32.7830009
  78.4059982  64.9779968  32.5000000  59.9129982  28.4230003  79.8649979
  59.3320007  28.1130009  79.1250000  59.7470016  27.7280006  80.5299988
   3.3610001  60.7579994  31.3190002   4.1290002  60.2620010  31.6660004
   3.8269999  61.2309990  30.6130009  78.7939987  60.9199982  24.1410007
  79.5589981  60.5519981  23.6560001  78.1070023  60.6349983  23.4319992
   7.7249999  57.2560005  21.2019997   7.4670000  57.6180000  22.0470009
   6.8350000  57.0429993  20.8029995  60.2980003  24.9610004  79.1009979
  59.9379997  25.5429993  79.8219986  61.0690002  24.5599995  79.6510010
   7.3369999  65.7500000  23.4699993   8.1120005  65.9879990  24.0669994
   7.6700001  66.1289978  22.6410007  11.8020000  63.9780006  19.0960007
  10.8990002  63.5369987  19.0039997  11.5670004  64.8369980  18.6900005
   8.9099998  60.1819992  25.3010006   9.6899996  60.2309990  25.9130001
   9.4119997  60.2109985  24.4330006  78.8960037  45.9129982  44.6590004
  77.9560013  45.8390007  44.5309982  79.0930023  45.4179993  45.4430008
   6.3920002  63.8610001  19.3759995   5.8569999  64.5770035  19.6930008
   6.0920000  63.0820007  19.8920002  53.0480003  29.6089993  82.7860031
  53.6199989  29.7399998  83.5910034  52.4700012  30.4120007  82.8509979
   0.0050000  62.3390007  31.4559994   0.2440000  63.1489983  31.0440006
   0.5190000  62.2830009  32.3019981   3.0060000  51.0769997  16.9710007
   3.3310001  50.9029999  17.8430004   2.6840000  50.1699982  16.6940002
   5.3950000  68.0100021  19.2689991   5.1680002  68.0830002  20.1779995
   4.8490000  67.2379990  19.0189991  27.8579998   1.5690000  30.2570000
  27.5680008   0.7690000  30.7399998  27.7520008   2.2650001  30.8889999
  41.2849998  -0.3940000  29.8360004  42.0620003   0.1710000  30.0209999
  40.6110001   0.1820000  30.3250008   1.8530000  67.7289963  29.3540001
   1.6820000  67.1470032  28.6030006   1.9400001  67.0960007  30.0720005
  10.9440002  66.3000031  18.0750008  11.1070004  67.0559998  17.4860001
  10.3430004  65.7929993  17.4559994  46.4020004  33.4020004  84.6770020
  45.8129997  33.1640015  85.4639969  47.2649994  33.1559982  84.9860001
  70.5979996  71.9339981  29.9829998  69.6539993  71.7480011  30.2989998
  71.0390015  71.8359985  30.8419991  65.5579987  23.5149994  73.7819977
  66.3850021  23.2000008  74.2030029  65.4769974  22.8099995  73.1240005
  18.2380009  59.9109993  30.4179993  17.3929996  59.5699997  30.7789993
  18.8419991  59.2109985  30.6919994  46.2379990  32.7000008  81.1719971
  47.0130005  33.2739983  81.4150009  46.7760010  31.8740005  81.0709991
  13.7220001  71.7269974  18.3439999  13.5050001  70.8779984  18.8670006
  12.7639999  72.0660019  18.2119999  16.6420002  71.6389999  24.3530006
  15.7939997  71.5790024  23.8579998  16.3260002  71.4420013  25.2940006
  16.2539997  58.9169998  20.4309998  15.7159996  59.1790009  21.1630001
  16.3080006  59.6409988  19.8150005  56.1769981  40.0589981  69.9349976
  56.0359993  39.1769981  70.2939987  56.7929993  40.4510002  70.5660019
  53.3689995  27.2800007  73.1350021  53.8079987  27.3160000  74.0550003
  52.4830017  26.9899998  73.3669968   6.1320000  61.0960007  18.3939991
   5.3559999  61.4720001  18.8560009   5.8889999  60.1430016  18.4190006
  56.2729988  42.6020012  75.7070007  57.1629982  42.3849983  76.0289993
  55.7639999  41.8440018  76.1029968   7.2199998  69.9810028  32.2779999
   6.7680001  70.2720032  31.4410000   8.1219997  70.3229980  32.1640015
  32.5559998   5.5609999  36.6049995  32.5929985   5.0609999  37.4430008
  31.6210003   5.7750001  36.5060005  10.1219997  69.0090027  19.2490005
  10.6409998  68.2570038  19.0960007   9.3780003  68.9349976  18.6410007
  76.2870026  29.4179993  11.0780001  76.0989990  28.4459991  10.9099998
  75.4199982  29.7919998  10.9659996  10.1020002  37.2739983  18.4780006
   9.2650003  37.3629990  18.0529995  10.4980001  38.1199989  18.4860001
   3.9670000  38.4900017  16.9529991   4.4320002  38.6500015  16.0869999
   3.2130001  38.0050011  16.6590004  63.1580009  38.9500008   9.2489996
  62.2039986  39.0369987   9.0909996  63.3470001  38.0340004   9.0740004
  71.0009995  42.9329987   8.9150000  70.8949966  41.9609985   9.0229998
  71.8759995  43.1139984   9.3249998   8.8780003  40.3170013  12.1029997
   8.1490002  40.0610008  11.4530001   9.6230001  39.8359985  11.7390003
   7.7259998  38.1310005   7.7529998   8.3219995  37.5460014   7.2379999
   8.1219997  39.0209999   7.4809999   5.4310002  52.4669991  15.0209999
   5.8090000  53.1300011  14.4499998   4.7610002  52.0060005  14.4930000
  68.8929977  38.4720001  26.8110008  67.9250031  38.4339981  26.6070004
  68.8539963  38.5299988  27.7959995  10.2370005  49.0769997  20.1889992
  10.6910000  48.3260002  19.7759991   9.7930002  48.7130013  20.9659996
   0.6560000  47.3199997  14.0080004   1.1109999  47.1459999  13.1569996
   0.6610000  46.4669991  14.4480000  78.3440018  32.3139992  12.5450001
  78.3479996  31.3160000  12.6520004  78.8430023  32.3540001  11.7329998
  14.6230001  48.8779984   8.9480000  14.0959997  49.7010002   9.0509996
  15.1639996  48.9510002   9.7440004   9.7309999  52.0550003  25.9680004
  10.3490000  52.6590004  26.2660007   9.2209997  52.4770012  25.2520008
  25.2189999  74.1859970  72.0960007  25.1399994  75.0479965  71.6689987
  26.1119995  74.3229980  72.5000000  17.9689999  58.7820015  68.9479980
  18.4650002  58.0120010  68.7210007  18.4599991  59.4690018  68.4199982
   5.1120000  46.5289993   8.9340000   4.5630002  45.9029999   9.3909998
   5.9569998  46.4510002   9.4099998  11.6099997  48.3740005  32.9630013
  11.2969999  47.4500008  32.9410019  12.5690002  48.2410011  32.8040009
   0.7600000  64.7580032  23.4279995   0.9420000  65.5309982  23.9659996
   1.5440000  64.6729965  22.8700008  53.3820000  16.3640003  75.3259964
  53.1320000  16.0020008  76.2050018  53.7680016  17.2099991  75.5380020
  49.1590004  21.8920002  80.5609970  48.9109993  22.7980003  81.0139999
  48.4720001  21.4039993  81.0910034  69.0749969  55.5660019  24.2719994
  69.5380020  56.2550011  23.6949997  69.8649979  55.0489998  24.4120007
  55.6329994  17.4260006  71.0579987  55.1479988  17.8710003  71.7919998
  56.4129982  17.9750004  71.0110016   8.5489998  60.3320007  18.2800007
   7.5869999  60.6450005  18.3080006   8.4209995  59.4179993  18.0629997
  13.6490002  55.4350014  19.3409996  13.3030005  56.3660011  19.3250008
  14.2589998  55.4319992  20.0419998  50.0859985  17.6420002  79.7190018
  50.3339996  17.5009995  78.7590027  50.5219994  18.4829998  79.8779984
  15.6440001  60.0600014  13.2959995  15.3240004  60.8050003  13.8420000
  15.6280003  59.3040009  13.9160004   0.5430000  61.3460007  20.2250004
   0.7140000  60.7190018  20.9529991   0.0930000  62.0480003  20.7189999
  13.2480001  51.3930016  17.1760006  12.3090000  51.1199989  17.3180008
  13.6120005  50.5800018  16.7929993  50.8409996  11.5310001  63.8260002
  51.6629982  11.2209997  64.2529984  51.0859985  12.4899998  63.8269997
  54.1860008  31.0170002  77.6910019  53.3120003  30.9360008  77.3040009
  54.6990013  30.3040009  77.2450027  75.7549973  53.7010002  21.0079994
  76.3099976  52.9099998  21.0620003  76.0449982  54.1049995  21.8659992
  12.7349997  51.1080017   8.9860001  12.4969997  51.8530006   9.5469999
  12.0380001  50.4729996   9.1680002  12.7989998  51.4910011   5.9860001
  12.3230000  51.2350006   6.8070002  12.4020004  50.7630005   5.4159999
  46.0649986  22.8689995  76.4369965  46.8170013  22.3129997  76.2440033
  46.0769997  22.8959999  77.3970032  69.2170029  59.3699989  21.6779995
  68.3919983  58.9350014  21.6889992  69.0559998  60.1669998  22.2740002
   2.4170001  54.4080009  26.6910000   3.1619999  54.0890007  26.1900005
   1.9980000  55.0159988  26.0359993  11.1250000  57.9449997   8.7259998
  10.5019999  57.2190018   8.8160000  11.8430004  57.5050011   8.1840000
  77.0800018  55.1170006  17.7579994  77.0759964  55.3670006  16.8129997
  77.2409973  55.9329987  18.2010002   8.1029997  47.4370003  14.2989998
   7.2940001  47.0639992  13.8620005   8.7510004  47.3829994  13.5500002
   5.9060001  46.9210014  30.9580002   5.2690001  46.3359985  31.4080009
   5.3390002  47.7589989  30.8959999   3.3329999  65.3379974  30.7000008
   3.9460001  65.5419998  29.8999996   3.9579999  65.6350021  31.3740005
  11.3360004  57.2550011  13.4370003  10.7799997  56.5089989  13.5400000
  12.1780005  56.8800011  13.1280003  59.8250008  20.6189995  73.2710037
  58.9959984  20.3600006  73.6380005  60.0719986  21.3430004  73.9020004
  79.5029984  53.5359993  18.2380009  78.5770035  53.8680000  17.9540005
  79.3020020  52.5789986  18.0809994  22.4979992  72.8300018  71.5230026
  23.1609993  73.4440002  71.8570023  22.5949993  73.1080017  70.5550003
  78.6650009  49.6720009  25.5240002  78.2239990  49.4290009  26.3530006
  79.5680008  49.8030014  25.8029995  73.8190002  55.5820007  16.7159996
  72.9479980  55.2309990  16.4880009  74.1289978  54.9239998  17.3670006
  19.7670002  46.6230011   0.4780000  20.0179996  46.6850014   1.4280000
  19.4979992  47.5139999   0.2660000  73.0419998  46.1529999  10.4010000
  73.4749985  46.9669991  10.2170000  73.4980011  45.9169998  11.2740002
   1.4390000  39.4760017  20.0699997   1.1360000  38.9280014  19.3020000
   2.2800000  38.9729996  20.2150002  44.6720009  18.1310005  77.7850037
  44.1360016  18.5599995  78.4919968  44.5750008  18.7409992  77.0630035
  58.3300018  18.5100002  70.5520020  59.2150002  18.8840008  70.8629990
  57.9070015  19.3239994  70.2149963   4.3670001  47.2639999  13.7559996
   3.7079999  47.2779999  12.9910002   5.1030002  46.7449989  13.3330002
  37.9319992  16.0039997  73.4089966  38.2700005  15.1639996  73.6539993
  38.2739983  16.1800003  72.5130005   8.1420002  40.2400017  24.6569996
   7.3790002  39.7109985  24.3869991   7.6729999  40.8740005  25.2670002
  14.6510000  56.1010017  22.6739998  15.4440002  56.6240005  22.9009991
  14.9399996  55.2270012  23.0330009  16.4050007  55.3889999  16.1110001
  16.4120007  54.5779991  16.7110004  16.6359997  56.1059990  16.7399998
   6.3449998  46.6510010  16.8490009   5.4210000  46.7480011  17.1790009
   6.5730000  47.5449982  16.6369991  13.8409996  53.2910004  12.3730001
  13.8030005  53.4659996  13.3389997  14.2200003  52.4599991  12.3240004
   4.7570000  49.3559990  10.0179996   4.5900002  48.5330009   9.4960003
   3.9470000  49.8790016   9.8710003   7.6560001  60.3969994  21.2800007
   8.2329998  60.8740005  20.6970005   7.4660001  61.0289993  21.9510002
  55.1689987  18.6130009  76.1529999  55.1250000  18.8509998  77.0930023
  55.0019989  19.4930000  75.7529984   5.9159999  56.2159996  18.6399994
   6.0700002  55.4379997  19.1849995   5.6599998  55.8180008  17.8069992
  44.7579994  19.8069992  75.2929993  43.9099998  20.2630005  75.1750031
  45.1339989  19.9260006  74.3270035  57.0169983  23.1779995  78.2419968
  56.5509987  22.8869991  79.0419998  57.7330017  22.4780006  78.1880035
   8.3420000  44.6300011  15.0730000   8.3470001  44.4519997  16.0249996
   8.0419998  45.5470009  15.0730000  18.0279999  57.4519997   8.2019997
  17.8400002  58.4599991   8.1870003  18.3040009  57.2809982   9.0690002
  11.8190002  68.1210022  16.1229992  11.1890001  68.6940002  15.5530005
  12.6120005  68.7139969  16.0879993   9.4980001  55.1040001  13.4429998
   9.5590000  54.2080002  13.8330002   9.5179996  54.9199982  12.4689999
   5.8720002  49.8889999  12.5019999   5.4250002  49.9339981  11.6260004
   5.2740002  49.3450012  12.9659996   3.4909999  50.6430016  21.9309998
   3.7509999  50.0859985  21.1940002   3.6259999  51.5470009  21.6310005
  17.4050007  48.9720001  15.3629999  16.9349995  48.2420006  15.8439999
  16.9880009  49.7620010  15.6549997   1.6860000  57.3100014  19.7880001
   1.0700001  57.3009987  18.9510002   1.6530000  56.3699989  19.9549999
   7.3899999  49.4980011   9.5699997   7.4219999  49.9790001   8.7220001
   6.3909998  49.5730019   9.7170000  56.6279984  25.2630005  75.2210007
  57.4879990  25.0559998  75.6520004  56.2029991  24.3759995  75.2239990
   9.7189999  58.3909988  11.3640003  10.1789999  59.2500000  11.3879995
  10.3500004  57.7879982  11.6929998  33.1819992   3.5290000  15.9150000
  32.7919998   4.3210001  15.5480003  32.5620003   3.2040000  16.5720005
   5.3979998  58.8489990  14.6199999   6.0279999  59.3670006  15.0539999
   5.8730001  58.3790016  13.9379997   3.5840001  52.5219994  19.8929996
   2.9340000  53.2449989  20.0370007   3.9020000  52.6819992  19.0349998
   0.5090000  42.2999992  18.6650009  -0.2480000  41.7330017  18.5419998
   1.2200000  41.6889992  18.3090000  52.3380013   6.4470000  70.8339996
  52.5289993   7.3530002  71.1579971  52.8260002   6.3600001  69.9909973
  55.6800003   6.5270000  69.8130035  54.9070015   6.4060001  69.2149963
  56.4080009   6.2969999  69.1849976  19.4930000  51.6440010   9.7869997
  19.7649994  51.9309998   8.8839998  18.5629997  51.9850006   9.7950001
  79.2819977  65.6559982  27.4279995  78.7720032  66.0149994  28.1889992
  78.6839981  64.9390030  27.1089993  11.6980000  50.5270004  28.7269993
  10.7360001  50.4119987  28.8990002  11.8760004  51.2130013  29.3920002
  10.8929996  60.8520012  11.8269997  11.5489998  61.0419998  11.1499996
  10.2720003  61.6059990  11.7449999  19.5000000  61.5629997  20.1329994
  18.8820000  61.7120018  19.3430004  18.8780003  61.8400002  20.8470001
   4.5599999  62.8820000  26.0270004   4.5539999  63.7430000  25.5480003
   5.5320001  62.7529984  26.0470009   4.6700001  53.5400009  25.6620007
   4.9720001  52.6580009  25.9270000   5.3179998  54.0480003  26.2649994
  16.4950008  64.4909973  14.0089998  16.1520004  63.8069992  14.5959997
  15.8870001  64.4520035  13.2399998  20.1720009  51.2220001   2.7530000
  20.4489994  50.7649994   3.5480001  19.2560005  50.8499985   2.5969999
  19.7369995  55.7169991  14.9099998  20.1070004  55.4959984  15.7729998
  18.7789993  55.7439995  15.1120005   4.0939999  40.6949997   7.5380001
   4.3179998  41.0149994   6.6799998   4.5349998  39.8129997   7.5200000
  54.9529991   5.2370000  72.1920013  55.4819984   4.4829998  71.9550018
  55.2050018   5.8260002  71.4530029   9.7040005  54.4539986  10.9659996
  10.6180000  54.3120003  10.5740004   9.2019997  53.8540001  10.3020000
   9.3529997  36.0880013  10.0950003   8.4560003  36.2999992  10.4040003
   9.8000002  36.0159988  10.9449997  19.5070000  58.1389999  19.3180008
  19.7859993  59.0480003  19.1070004  18.7000008  58.2540016  19.8330002
  61.6860008  23.8939991  73.4440002  61.8849983  24.7810001  73.7360001
  62.5309982  23.6700001  72.9489975  11.0489998  46.2309990  15.1149998
  10.6400003  46.5589981  14.2709999  10.4820004  45.4659996  15.2919998
   1.0710000  67.7919998  36.0460014   1.7480000  68.2949982  36.4529991
   0.1990000  68.1770020  36.4080009  49.6870003   1.6460000  68.3109970
  49.1940002   1.7750000  69.1800003  48.9169998   1.8010000  67.7210007
  74.1360016  45.1720009  12.5869999  75.1039963  44.9770012  12.4289999
  74.2089996  45.6380005  13.4219999  75.2440033  53.2840004  27.1800003
  74.7929993  54.1329994  27.4270000  75.8580017  53.1320000  27.9389992
  79.3649979  46.5680008  17.9769993  78.8949966  45.7690010  18.3099995
  78.7699966  47.2350006  18.4279995   7.2300000  39.0410004  10.4519997
   7.2909999  38.8440018   9.5150003   7.1030002  38.0960007  10.7600002
  71.0220032  48.2929993  27.1630001  71.6610031  47.5309982  27.0809994
  70.3379974  47.9199982  27.7399998  74.6449966  42.8989983   7.8309999
  74.9509964  43.0880013   6.9499998  74.1600037  42.0180016   7.6989999
  14.0430002  47.0169983  14.6929998  13.1750002  46.6329994  14.7980003
  14.6809998  46.3269997  15.0100002  62.3479996  18.7040005  70.7429962
  62.0660019  18.8360004  71.6949997  63.3110008  18.6200008  70.8690033
  54.9339981  19.7609997  67.8949966  55.5579987  20.0699997  68.5729980
  54.0789986  19.9459991  68.3239975  17.4540005  46.3540001  17.7619991
  17.6590004  46.0970001  16.8129997  17.5209999  45.4700012  18.1709995
   0.4280000  62.8800011  25.4829998  -0.0640000  62.1250000  25.1469994
   0.6630000  63.3759995  24.6690006   9.4340000  42.0670013   9.5410004
   9.9200001  41.2360001   9.8520002  10.1590004  42.6500015   9.3789997
  59.9920006  23.7460003  64.6940002  59.8250008  23.4759998  63.7960014
  60.5750008  23.0489998  65.0169983  64.5490036  28.1380005  74.5130005
  64.7570038  28.8619995  73.9000015  65.1070023  28.4120007  75.2750015
  11.9940004  70.6080017  27.7819996  11.0620003  70.9209976  28.0319996
  12.4980001  71.2570038  28.3680000  11.4230003  63.3209991  15.0609999
  10.6840000  63.5519981  15.6800003  11.7150002  64.2539978  14.7959995
  25.0629997  62.0449982  12.5799999  25.5979996  62.7939987  12.8990002
  24.1580009  62.4749985  12.5539999  17.4220009  62.3889999  21.5730000
  17.4759998  61.7050018  22.3670006  16.5189991  62.1360016  21.3190002
  30.3619995  64.0770035  13.6450005  30.6809998  63.7999992  12.7559996
  30.1219997  65.0329971  13.4510002  56.1370010  24.7019997  82.5100021
  55.6809998  25.4249992  82.9380035  56.3510017  25.1499996  81.6709976
  20.2019997  67.5439987  12.3450003  19.6849995  68.0859985  12.9619999
  20.5650005  66.8830032  12.9600000  38.9739990  -1.4310000  26.8479996
  38.2550011  -1.8670000  26.2450008  38.3699989  -1.1130000  27.5359993
  63.3250008  22.0690002  71.7180023  63.1710014  21.5550003  72.5179977
  64.2710037  21.7779999  71.5130005   8.2550001  70.8030014  24.1119995
   7.9109998  70.0250015  24.6499996   8.1610003  70.4670029  23.2320004
   9.6780005  71.0029984  31.7240009  10.0749998  71.9329987  31.6560001
  10.3959999  70.5309982  31.2439995  20.0079994  59.7319984  25.5720005
  20.0100002  59.0740013  26.2929993  20.5330009  59.1710014  24.8950005
  48.8129997   3.4570000  12.0660000  49.2029991   3.3699999  12.9960003
  48.7579994   2.5520000  11.8409996   3.4920001  38.1829987  70.6719971
   3.2200000  38.6399994  71.4759979   2.7939999  37.4990005  70.6250000
   6.4610000  63.9970016  16.5559998   5.4899998  64.0329971  16.5139999
   6.6149998  64.0159988  17.5599995   7.2870002  62.2820015  26.2830009
   7.4749999  61.4000015  25.9230003   8.1239996  62.4160004  26.7889996
  14.3760004  66.6579971  16.9279995  14.5480003  67.5479965  17.3180008
  13.8459997  66.2610016  17.6630001  55.1829987  20.8840008  75.0080032
  54.6539993  21.5330009  75.5090027  55.2999992  21.4559994  74.1650009
  56.3470001  10.2489996  12.6940002  55.9329987  10.3020000  13.5229998
  56.3149986   9.2969999  12.4829998  79.0260010  35.0550003  70.0039978
  78.6600037  34.1619987  70.0770035  78.2480011  35.6320000  70.1460037
  10.1969995  58.6419983  20.5270004   9.6960001  59.2210007  19.8810005
   9.5430002  57.8720016  20.4960003  24.2619991  66.1460037  16.0709991
  23.9470005  65.9769974  16.9650002  23.9810009  67.0899963  15.9680004
   6.1989999  63.4420013  32.5270004   7.0270000  63.7610016  33.0309982
   6.6209998  62.9230003  31.8309994  14.0749998  50.3510017  13.9259996
  14.4259996  50.0760002  14.7950001  13.1910000  49.8559990  14.0330000
  22.1690006  52.8590012  10.7410002  21.8269997  52.9109993   9.8109999
  21.3470001  52.8450012  11.2299995  19.3640003  68.3610001  18.3560009
  18.5790005  68.0449982  17.9309998  19.9080009  68.6640015  17.6380005
  71.6070023  30.1159992  71.2320023  72.1470032  30.8020000  71.6900024
  71.8499985  29.3479996  71.7160034  32.1720009  65.3799973   9.7469997
  33.0600014  65.6569977   9.8129997  32.0870018  64.7649994  10.5439997
  17.9300003  65.4990005  20.5559998  17.5370007  66.1849976  19.9960003
  17.4290009  65.6569977  21.3829994  18.7339993  63.9560013  11.2880001
  18.1739998  63.1450005  11.1669998  19.4360008  63.5159988  11.8020000
  60.7220001  28.7919998  75.4800034  60.1150017  29.5510006  75.7099991
  60.1889992  28.4160004  74.6839981  21.7500000  64.7689972   4.3249998
  21.7849998  64.5080032   5.2550001  22.2509995  65.6009979   4.4080000
  15.6320000  49.9809990   6.5960002  15.1789999  49.3930016   5.9730000
  15.1870003  49.7350006   7.4610000  68.1179962  23.6299992  60.2249985
  68.3720016  23.4619999  61.1949997  67.6859970  24.5090008  60.3820000
  18.1149998  59.7719994  15.8900003  18.2290001  59.3680000  15.0150003
  18.8820000  60.4150009  15.8549995  38.0000000  69.8669968  23.1959991
  38.0909996  70.8170013  23.4540005  38.6969986  69.7020035  22.5890007
  77.0630035  65.8560028  22.4449997  77.3089981  65.0940018  23.0189991
  76.2500000  65.4300003  22.0170002  22.0520000  71.7610016  18.8910007
  21.2560005  71.4670029  19.3540001  21.7129993  72.4749985  18.3880005
  12.4080000  65.9670029  14.6650000  12.2530003  66.7440033  15.3149996
  13.3970003  65.9639969  14.7729998  21.0109997  68.6549988  21.8230000
  21.8780003  68.3199997  21.6879997  20.5279999  67.9889984  22.4009991
  14.5349998  59.2260017  17.1049995  13.8380003  59.1660004  17.7670002
  15.2539997  59.6370010  17.6359997  25.0550003  76.1940002  21.0879993
  25.5340004  76.7519989  20.4220009  25.2420006  75.2819977  20.7129993
   4.3049998  61.9739990  20.3680000   3.9749999  62.4169998  21.1749992
   3.7639999  62.3320007  19.7040005  29.8630009  -1.5060000  20.9109993
  29.3470001  -2.2049999  20.5470009  29.7169991  -1.5210000  21.8799992
  12.7810001  70.0400009  20.8579998  12.3730001  69.1650009  20.8579998
  12.0080004  70.6159973  20.8910007   9.1289997  63.0029984  18.8040009
   8.3219995  63.1329994  19.2759991   9.0450001  62.1329994  18.4039993
  17.8150005  68.2590027  24.2560005  18.0289993  69.1790009  24.2210007
  18.6609993  67.7829971  23.9710007  32.8950005   3.9130001  27.3290005
  32.9879990   3.0130000  27.0189991  32.1720009   4.2030001  26.7430000
  14.3929996  45.1389999   4.1479998  15.0950003  44.4809990   3.9879999
  14.7130003  45.9129982   3.6840000  25.9060001  70.8889999  16.0459995
  25.2700005  70.8369980  16.8180008  26.5000000  70.1490021  16.3490009
  16.4710007  61.0470009  18.6749992  15.6709995  61.5699997  18.8160000
  17.1100006  61.7919998  18.5070000  27.1459999  71.9059982   8.8780003
  27.6620007  72.4749985   8.2620001  26.3129997  72.3470001   8.9619999
  27.9029999  62.4720001  24.2240009  27.2469997  61.8300018  24.4659996
  27.7700005  63.1500015  24.9360008  56.0750008  32.3460007  71.1529999
  56.8730011  31.8199997  71.2409973  56.3149986  32.8959999  70.3649979
  14.6789999  61.5680008  21.1599998  14.1230001  60.8400002  21.3530006
  14.2329998  62.0810013  20.5119991  60.4690018  22.5259991  75.4639969
  61.2879982  22.1580009  75.7819977  60.8429985  23.1959991  74.7720032
  56.5750008  31.9480000  82.9589996  57.1549988  31.4459991  83.5459976
  57.1949997  32.1969986  82.2539978  10.9510002  59.5909996  22.8689995
  10.5730000  59.3660011  21.9920006  11.6320000  58.9080009  22.9869995
  22.5790005  57.9799995  16.4440002  21.9720001  57.4329987  17.0109997
  23.2789993  57.2750015  16.2180004  13.8109999  58.7490005  22.2530003
  13.8260002  57.7719994  22.2730007  14.0120001  58.9360008  23.2029991
  10.4680004  49.3479996   7.8829999   9.9049997  49.1250000   7.0539999
  11.2119999  48.7709999   7.7090001  59.4319992  26.7660007  68.3629990
  59.2840004  26.3150005  67.4860001  58.7589989  26.2140007  68.8359985
  69.0149994  24.1159992  71.2740021  69.5579987  24.6760006  70.6449966
  69.6559982  23.3820000  71.3750000  24.7040005  64.2750015  10.0530005
  25.2819996  63.8889999   9.3230000  25.3659992  64.4690018  10.6879997
   7.8169999  66.9440002  18.5559998   7.8220000  66.8789978  17.5979996
   6.9470000  67.3470001  18.7590008  20.5480003  66.2639999  19.9039993
  20.3439999  67.0289993  19.5030003  19.7450008  65.9369965  20.3090000
  17.1499996  72.6350021  29.7679996  17.1399994  72.6650009  30.7500000
  17.1690006  71.6669998  29.6340008  17.2919998  73.5879974  32.8639984
  17.9480000  74.1330032  32.3889999  17.3099995  74.0749969  33.7630005
  15.4379997  68.2470016  23.2110004  16.3759995  68.2119980  23.5720005
  15.5100002  69.2030029  22.9220009  16.4470005  68.5120010  17.4869995
  16.3649998  68.7669983  16.5499992  16.6369991  69.2900009  18.0079994
  58.9809990  12.8590002  34.2150002  58.3740005  12.5539999  34.9420013
  58.3510017  12.9119997  33.4659996  14.5480003  39.2840004  74.8379974
  14.2729998  38.5730019  75.4570007  13.6759996  39.5870018  74.4899979
  22.6550007  62.8300018  18.1830006  22.4389992  61.8419991  18.1140003
  23.6599998  62.6889992  18.2689991  22.7460003  63.6710014  12.6870003
  23.0119991  64.5070038  12.2729998  21.9430008  64.0289993  13.1700001
  24.5540009  57.4640007   7.5599999  24.7250004  57.0110016   8.4460001
  23.9020004  58.1129990   7.8709998  12.4560003  61.2690010  16.6410007
  11.9870005  60.5229988  16.2000008  12.0179996  62.0169983  16.1499996
  66.9980011  22.5499992  64.9400024  66.2440033  21.9020004  64.8079987
  67.3519974  22.2119999  65.7880020  24.8680000  61.2280006  22.5230007
  24.7940006  62.1160011  22.1299992  23.9529991  60.9469986  22.4220009
  26.9580002  58.9529991  22.7259998  26.9430008  58.4000015  21.9449997
  26.1070004  59.4570007  22.5960007  20.4759998  54.2369995  12.4770002
  20.0459995  55.0029984  12.0299997  20.7159996  54.6500015  13.3009996
  24.4580002  64.6389999   5.6950002  24.4909992  63.6940002   5.9470000
  24.0559998  65.0970001   6.4429998  25.9349995  67.8339996  28.0939999
  25.7240009  68.7429962  28.1840000  25.1429996  67.4089966  28.5660000
  15.7259998  67.9840012  26.9090004  16.4570007  67.7440033  26.3759995
  15.4949999  67.1910019  27.4190006  67.6920013  22.3059998  69.8690033
  68.2929993  21.7399998  70.3750000  67.9700012  23.1439991  70.2730026
  22.1229992  59.3199997  14.1980000  22.4939995  60.1720009  14.5100002
  22.1739998  58.8269997  15.0489998  14.0880003  70.8769989  32.9440002
  14.9899998  70.6719971  32.8569984  13.8610001  70.3259964  33.7589989
  21.3029995  59.2229996   3.5620000  20.9909992  60.1599998   3.7630000
  22.2049999  59.2529984   3.9330001  68.1169968  15.4899998  67.3170013
  69.0510025  15.4569998  67.2580032  67.8740005  15.8680000  66.4509964
  13.4350004  72.4540024  29.1919994  13.3529997  72.8700027  28.3099995
  13.9280005  73.1780014  29.6709995  23.1130009  49.5260010   2.2090001
  24.0079994  49.8149986   2.6050000  22.7259998  49.0929985   2.9749999
   1.9270000  20.7390003  56.2700005   2.6050000  21.3680000  55.8940010
   2.4830000  19.9300003  56.3479996  25.1350002  59.4910011  17.1830006
  24.7169991  60.2420006  17.6369991  25.4750004  59.9410019  16.4120007
   5.7610002  34.4319992  66.6900024   5.9070001  34.9930000  67.5000000
   5.1310000  33.7820015  66.9700012  32.7709999  72.6790009  12.8420000
  31.8160000  72.6679993  12.5340004  33.1640015  72.7689972  11.9300003
  79.5189972  57.1380005  17.8710003  78.9609985  56.6819992  17.2369995
  78.8280029  57.6769981  18.3239994  35.6080017   0.7660000  24.2299995
  35.9430008   0.5080000  23.3700008  35.3610001  -0.0420000  24.6720009
  19.4580002  58.5449982  13.9899998  20.4480000  58.7620010  13.9139996
  19.6240005  57.5579987  14.0649996  10.2320004  57.3940010  25.4029999
  10.8299999  56.6040001  25.3409996   9.3850002  56.9790001  25.1700001
  31.0690002  60.5940018   8.7130003  31.8010006  60.9589996   8.2379999
  30.7220001  59.9949989   7.9740000  30.2700005  72.6449966  12.0699997
  29.5709991  73.3610001  11.8529997  30.0149994  71.9580002  11.4309998
  57.0060005   7.7170000  12.3149996  56.6910019   7.2529998  13.1180000
  57.9550018   7.8990002  12.5769997  62.3260002   8.5109997  17.7819996
  62.6860008   7.5799999  17.9150009  63.0289993   9.0000000  18.2889996
   3.5860000  42.2050018  73.9349976   3.2900000  41.9580002  73.0329971
   3.8889999  41.4160004  74.3040009  78.5380020  40.0190010  70.9479980
  78.2789993  40.7430000  70.3259964  77.9580002  40.1800003  71.6520004
  53.2270012   7.1539998  22.0070000  53.7389984   7.8160000  22.4599991
  53.4239998   6.3490000  22.5669994  21.6389999  74.6419983  22.2310009
  21.6009998  73.6829987  22.1770000  20.6889992  74.8349991  21.9120007
  37.4480019  -1.5089999  31.5200005  37.3419991  -0.6080000  31.9969997
  38.4109993  -1.5750000  31.6609993  15.7430000  68.9209976  14.4919996
  15.4420004  68.1019974  13.9980001  14.8059998  69.2620010  14.6809998
  49.6399994   2.4280000  19.0090008  49.9259987   1.6930000  19.5839996
  48.8009987   2.6789999  19.4599991  26.7140007  65.0520020  15.7720003
  26.8390007  64.4879990  16.6520004  25.8880005  65.5159988  16.0919991
  23.0450001  66.1090012  11.3979998  23.8090000  65.6859970  10.9720001
  23.2380009  67.0670013  11.2279997  77.3889999  32.6850014  66.7969971
  77.3610001  33.5270004  66.3320007  77.6650009  32.9360008  67.6999969
  24.9799995  75.2259979  11.4960003  25.7709999  75.7839966  11.2040005
  24.3799992  75.5299988  10.7510004  54.0130005   6.8230000   7.0110002
  54.1650009   6.6220002   6.0669999  53.7319984   5.9349999   7.2880001
   1.6590000  42.3499985  70.2350006   1.4180000  41.4860001  70.6070023
   1.3450000  42.1599998  69.2880020  62.8009987   8.9740000  11.8660002
  63.5000000   8.3599997  11.5209999  62.0499992   8.8059998  11.2390003
  26.9559994  58.8069992   7.6550002  26.7229996  59.6110001   8.1099997
  26.0820007  58.3409996   7.6199999  76.0960007  33.4099998   9.0660000
  75.8349991  32.9840012   8.2150002  75.6009979  32.7509995   9.6549997
  35.6899986  73.5609970  61.1040001  34.8149986  73.9029999  60.9609985
  35.7649994  73.4850006  62.0600014   9.9429998  32.0279999  15.7500000
  10.6160002  31.4790001  16.2830009   9.2010002  31.4440002  15.6780005
  31.7290001  75.0709991  66.7969971  32.6100006  74.6620026  66.6129990
  31.7609997  74.9199982  67.7829971  20.5979996  50.7529984   5.4380002
  19.6930008  51.1170006   5.4029999  20.9360008  51.0810013   6.2779999
   4.2810001  35.3510017  13.9119997   4.3720002  35.4379997  12.9049997
   3.3399999  35.3860016  14.0030003  47.5169983  76.5230026  59.9710007
  48.4339981  76.7009964  60.3310013  47.0540009  76.3880005  60.8260002
  34.9560013  73.1350021  67.9830017  35.7809982  73.3239975  67.4629974
  35.1759987  72.3239975  68.4609985  32.1529999  77.4420013  62.3429985
  31.8490009  77.5429993  63.2500000  31.3139992  77.7559967  61.8790016
   3.6770000  30.3770008  16.6119995   3.1650000  29.6730003  17.0160007
   3.9790001  29.8190002  15.8199997   7.3010001  41.5509987  15.7379999
   7.5339999  40.6930008  16.1509991   6.3390002  41.5559998  15.9130001
   7.3039999  41.7340012   3.4749999   7.8699999  41.4080009   2.7550001
   7.9439998  42.3170013   3.9430001  13.3240004  46.2350006   0.8480000
  12.4309998  45.8680000   0.8260000  13.8389997  45.3839989   0.6080000
  12.8690004  35.9459991  17.8080006  12.0970001  36.5690002  17.8950005
  12.3059998  35.0660019  17.8799992  13.0070000  35.1730003   9.1510000
  13.1599998  34.6629982   9.9670000  12.7720003  34.4700012   8.5260000
  42.3549995  72.2750015  62.3810005  42.7470016  73.1620026  62.2060013
  41.5110016  72.3190002  61.8489990  29.5079994  68.5839996  72.6959991
  28.7220001  68.7669983  73.2659988  30.1219997  68.3140030  73.4290009
   2.7780001  31.8190002  19.3129997   2.8310001  32.3750000  18.5119991
   2.9730000  30.9440002  18.8969994   2.5530000  43.8810005  13.6029997
   1.9470000  44.1360016  14.3079996   3.4600000  44.1699982  13.8920002
  79.4530029  19.3789997  60.2700005  79.1060028  18.6739998  59.7179985
  79.2440033  19.0480003  61.1879997  59.7760010   9.4709997  62.3820000
  59.0009995   9.3610001  61.7879982  60.2309990   8.6099997  62.2789993
  10.1730003  37.1660004   6.6640000  10.0389996  38.0540009   6.2090001
  11.1309996  37.0919991   6.6090002  56.2840004   8.3459997  72.0459976
  55.7470016   9.1000004  71.6620026  56.1599998   7.7210002  71.2809982
  10.6110001  45.9360008   2.6789999  11.2069998  45.5979996   3.4419999
  10.8030005  45.2270012   2.0120001  70.3339996  14.2349997  62.5089989
  69.4860001  13.6920004  62.5789986  70.2819977  14.4650002  61.5260010
  29.0200005  45.8219986  -3.8770001  29.4790001  45.3520012  -4.6360002
  28.8430004  46.6629982  -4.2849998  50.1769981  64.1460037  58.7070007
  50.7830009  64.6090012  59.3440018  50.1510010  63.2570000  59.0579987
  59.7929993  31.9370003  70.8580017  60.5169983  31.6580009  70.2009964
  59.0139999  31.4950008  70.6009979  21.0380001  41.4560013  -0.7510000
  21.8600006  41.7050018  -1.1160001  20.6210003  42.3009987  -0.4830000
  18.1599998  42.7560005   3.8910000  18.0890007  43.1290016   4.8090000
  17.2770004  43.0589981   3.5780001  42.6310005  65.8880005  56.3390007
  43.2420006  65.3320007  55.8019981  41.7960014  65.4899979  55.9679985
   5.6490002  38.2879982  19.0730000   5.0089998  38.5600014  19.7970009
   5.0019999  38.3370018  18.3419991  14.1269999  48.2669983  11.9680004
  13.6199999  49.0629997  12.1680002  13.7589998  47.6959991  12.6890001
   8.6009998  40.9449997   7.3080001   8.3179998  41.8019981   6.9650002
   9.0010004  41.2760010   8.1680002  44.7490005  79.2099991  61.1349983
  44.9249992  80.0640030  60.6549988  43.7890015  79.3170013  61.3580017
  77.7610016  21.2240009  58.8289986  78.3690033  20.7849998  59.4039993
  78.3960037  21.6809998  58.2459984  44.0629997  70.3789978  63.0460014
  44.8940010  70.6600037  62.7039986  43.4109993  70.9909973  62.6199989
  14.4740000  38.8499985   9.2399998  13.9259996  38.5330009   9.9519997
  14.7900000  38.0779991   8.8240004  22.7049999  45.5029984   2.4600000
  22.7880001  44.6479988   1.9820000  22.8129997  46.1360016   1.7500000
  14.1099997  54.3489990  14.8430004  15.0410004  54.4879990  15.2480001
  13.6750002  54.1889992  15.7159996  26.2189999  53.9819984   1.5670000
  25.8600006  54.8440018   1.1550000  26.6110001  54.3030014   2.3670001
  21.4720001  49.4539986  -0.2790000  21.8820000  49.6380005   0.6070000
  21.6690006  50.2319984  -0.8050000  32.1349983  42.3779984   3.1910000
  32.5779991  43.0320015   2.5950000  31.7660007  42.9970016   3.8550000
  62.6389999  12.3109999  66.1500015  62.4599991  12.1859999  65.1220016
  62.6889992  13.3170004  66.0640030   9.9680004  42.7060013   4.4540000
  10.6049995  43.4119987   4.2410002  10.4130001  41.9010010   4.1350002
   8.2220001  46.1300011   7.1849999   8.8940001  46.1419983   7.9180002
   8.5100002  45.3400002   6.6640000  18.8929996  49.4239998  -0.4470000
  19.8719997  49.6529999  -0.3880000  18.5939999  50.2779999   0.0520000
  14.6859999  55.4280014   5.3340001  14.6300001  54.4760017   5.2100000
  15.0690002  55.7019997   4.4710002  13.6969995  55.3520012   9.0819998
  13.2650003  55.6010017   8.2469997  14.1969995  54.5699997   8.7810001
  48.4220009  63.3110008  62.9360008  48.8320007  64.2009964  62.9529991
  48.1349983  63.3269997  61.9850006  39.9370003  77.5739975  64.6989975
  40.9000015  77.7080002  64.9339981  39.9169998  76.6279984  64.5839996
  24.1110001  60.1520004   4.6290002  24.6299992  60.2970009   3.7500000
  24.1310005  59.1710014   4.6700001  20.1569996  43.9679985   0.3070000
  20.8799992  44.1720009  -0.3360000  19.9249992  44.9379997   0.5330000
  51.6910019  78.1480026  58.5839996  51.3950005  77.4649963  57.9770012
  51.0359993  78.0339966  59.2890015  18.6070004  39.2690010   0.3610000
  19.1389999  39.3829994  -0.4780000  18.6520004  40.1580009   0.7100000
  25.2700005  51.4399986   0.1160000  24.5550003  50.9290009   0.4780000
  25.5400009  52.0279999   0.8080000  13.6599998  40.4650002   7.1490002
  13.8269997  39.7960014   7.8390002  13.9639997  41.2809982   7.6710000
  41.5009995  75.0849991  62.0890007  41.4599991  76.0029984  61.7249985
  41.8629990  75.2490005  63.0139999   2.5100000  41.1949997   9.9110003
   3.2140000  41.4599991   9.3170004   2.0220001  40.6259995   9.2639999
   1.6640000  22.7870007  58.1870003   0.9580000  23.3540001  57.7369995
   1.7710000  22.0909996  57.5180016   7.8400002  46.9230003  10.3439999
   7.5939999  47.8269997   9.9960003   8.7469997  46.9329987  10.0629997
  35.8149986  79.2549973  66.5719986  35.9129982  79.9270020  65.8779984
  36.0699997  78.4380035  66.0899963  29.3640003  45.2700005   3.0100000
  29.7189999  44.6180000   3.6500001  30.2439995  45.5719986   2.5760000
  23.1070004  43.1100006   1.3150001  22.5809994  42.3450012   1.3580000
  22.9169998  43.5159988   0.4580000  17.2700005  57.6380005  17.3169994
  17.0629997  58.0509987  18.1849995  17.6539993  58.4090004  16.8050003
  61.6129990  11.3450003  63.5460014  61.3100014  10.5000000  63.1300011
  62.2089996  11.6190004  62.8460007  59.9220009   9.3330002  67.6380005
  59.9729996   9.0719995  66.6780014  60.8759995   9.6029997  67.7060013
  61.2120018  17.5139999  56.8359985  61.7760010  16.7630005  56.4980011
  61.1759987  17.9759998  55.9329987  11.5260000  44.6100006   7.4699998
  11.8140001  44.2570000   8.3430004  11.4390001  45.5309982   7.6100001
  19.9720001  37.1640015   1.5310000  19.8110008  36.4809990   0.9080000
  19.5610008  37.9669991   1.1900001  15.3529997  53.3600006   7.8109999
  15.4029999  53.1790009   6.8429999  14.9790001  52.4329987   8.0299997
  54.8059998   8.6350002  65.8059998  55.7260017   8.8850002  65.6259995
  54.8079987   7.7059999  65.4599991  31.8950005  40.0429993   4.8150001
  32.2239990  40.7980003   4.3010001  32.3240013  39.2980003   4.3860002
  18.1439991  60.0760002   5.2189999  17.9979992  60.3629990   4.2620001
  18.2310009  59.0989990   5.0879998  26.6389999  41.2849998   1.1010000
  27.4880009  41.7649994   0.9050000  26.4920006  40.8390007   0.2280000
  24.0750008  35.5680008   2.9020000  24.5559998  36.3829994   3.2370000
  24.2010002  34.9939995   3.6300001  26.6119995  48.4550018  -0.8180000
  27.2719994  47.8429985  -1.2890000  27.2849998  48.8320007  -0.1430000
  12.0629997  53.4710007  10.3470001  12.7340002  53.3820000  11.0889997
  12.4560003  54.2919998   9.9910002   1.2050000  43.1609993  11.2589998
   1.7420000  43.3790016  12.0699997   1.7720000  42.4659996  10.8669996
  78.3590012  37.5149994  12.4549999  78.2269974  36.6599998  12.8610001
  78.9499969  37.9309998  13.1920004  20.0650005  46.8549995  -2.5910001
  20.5660000  46.7350006  -1.7410001  19.7469997  47.7330017  -2.4619999
  60.5909996  14.1669998  56.6409988  61.3059998  14.7080002  56.2890015
  59.9309998  14.2600002  55.9440002  27.2250004  40.5089989  -1.6070000
  27.6439991  41.2239990  -2.1760001  27.9740009  40.0309982  -1.3110000
  71.6740036  20.1539993  64.8379974  71.6699982  19.4890003  64.1129990
  71.4520035  20.9589996  64.3130035  13.3030005  36.7280006   3.8099999
  13.1210003  35.9840012   4.4239998  13.1359997  37.5260010   4.3490000
  14.8669996  50.3660011   2.0850000  14.8380003  51.3320007   2.2730000
  13.9350004  50.2439995   1.8130000  14.7060003  47.7379990   3.0960000
  14.3929996  47.3240013   2.2600000  14.7449999  48.6730003   2.8629999
  23.9069996  74.0699997  64.3830032  23.9050007  73.4240036  63.6669998
  22.9659996  74.3030014  64.4219971  23.6320000  41.8569984  -1.6640000
  24.4850006  42.2960014  -1.3640000  24.0270004  40.9570007  -1.8830000
  62.2179985  10.4849997  68.1090012  62.3759995  11.0340004  67.3119965
  62.7270012   9.7229996  67.8830032  17.1520004  60.1469994   8.4619999
  16.2919998  60.2239990   8.9890003  17.6450005  60.8030014   8.9429998
   4.9730000  48.7430000  19.6879997   4.3850002  48.1800003  19.2380009
   5.7280002  48.8230019  19.0620003  16.5769997  45.6920013   9.3009996
  17.2240009  44.9700012   9.2969999  15.8260002  45.2919998   8.8039999
  19.9729996  49.1479988  11.9219999  19.6520004  49.9410019  11.4870005
  19.9549999  49.4510002  12.8629999  15.7100000  43.0070000   3.1090000
  15.1330004  43.1459999   2.3030000  15.4010000  42.1450005   3.4570000
  17.0529995  55.3540001  11.0070000  16.2539997  55.9129982  11.0319996
  17.6930008  55.9900017  11.3690004   6.9879999  20.3190002  61.8320007
   7.6659999  20.4510002  61.1399994   6.6030002  19.4689999  61.5839996
  18.7709999  48.0130005   7.1399999  18.0459995  48.3559990   7.7729998
  19.4659996  47.9070015   7.8220000  25.0690002  34.0719986   5.0100002
  25.4309998  34.7949982   5.5419998  25.8899994  33.7869987   4.5660000
  15.2100000  35.2929993   5.5669999  15.1379995  35.7540016   4.7140002
  14.5159998  34.6870003   5.4980001  50.1320000  76.2979965  60.5050011
  50.7519989  76.4089966  61.2620010  50.6879997  75.7210007  59.9650002
  23.4069996  46.4860001   4.7049999  22.9699993  47.3899994   4.6079998
  23.1709995  46.1150017   3.7709999  17.3509998  46.0890007   5.9020000
  17.9050007  45.2840004   6.1599998  17.8829994  46.7550011   6.3340001
  62.9640007  67.7089996  54.9269981  63.3870010  68.1780014  54.2179985
  62.4669991  68.5090027  55.3419991  10.1990004  46.2299995   9.1969995
  10.6719999  45.6419983   9.8669996  10.9700003  46.8530006   9.0740004
  64.5019989  16.4440002  70.3079987  64.4789963  16.3470001  69.2959976
  64.9349976  15.6300001  70.5979996  10.9440002  50.1520004  17.4979992
  10.7259998  49.2190018  17.3500004  10.7980003  50.1800003  18.4950008
  57.4580002  78.3720016  49.1829987  57.5050011  78.8509979  48.3129997
  56.6780014  78.8970032  49.5449982  49.8979988  72.3580017  53.6020012
  49.3530006  72.4410019  52.8219986  50.7630005  72.6959991  53.3079987
  52.1189995  83.7710037  57.9760017  51.6739998  83.2649994  58.7570000
  51.2490005  83.8079987  57.4370003  45.7389984  76.8069992  55.5019989
  45.9399986  77.5510025  56.0639992  45.0480003  77.1179962  54.9109993
  50.1180000   9.9449997  72.1480026  49.8040009  10.0819998  73.0660019
  50.2999992  10.8730001  71.9069977  14.2440004  42.7190018   8.2480001
  13.3789997  42.8559990   8.7259998  14.3299999  43.6419983   7.8490000
   9.4940004  49.0260010  26.5109997   9.7139997  48.8670006  27.4599991
   9.8490000  49.9179993  26.3680000  15.9250002  23.2549992  56.5579987
  14.9700003  23.1690006  56.8650017  15.8129997  23.7059994  55.6959991
  10.8039999  31.7670002  68.9489975  11.1440001  32.5050011  69.5670013
  10.8730001  32.2579994  68.1419983  76.9390030  24.4640007  64.8389969
  76.0719986  24.8519993  64.9919968  77.4660034  25.1210003  64.3870010
  73.5879974  30.3190002  67.1849976  72.8629990  30.4599991  66.4540024
  72.9449997  29.9510002  67.8320007  76.7500000  36.4809990  69.9899979
  76.1419983  36.7490005  69.2310028  76.2460022  37.0260010  70.6740036
   9.1120005  14.7770004  56.2739983   9.1870003  14.3660002  55.4119987
   9.8020000  14.4119997  56.8429985  34.2179985  50.7779999   2.7370000
  34.0060005  50.6860008   3.6510000  34.0260010  49.8240013   2.4219999
  33.2050018  52.1090012  -2.5239999  32.9659996  52.4710007  -1.5940000
  32.9920006  51.1850014  -2.3650000  39.5699997  59.8180008  10.5279999
  39.4379997  60.1139984   9.6260004  38.6170006  59.6520004  10.7410002
  13.3769999  13.1359997  51.7319984  13.5220003  13.6920004  50.9099998
  13.9610004  12.3870001  51.5250015  26.2749996  60.5419998  14.6129999
  25.8129997  60.9389992  13.8280001  27.0149994  61.2080002  14.6569996
  30.1790009  57.3100014  -2.4180000  29.7019997  56.8740005  -3.1900001
  29.8050003  56.8400002  -1.6550000  29.7099991  62.8440018   6.0279999
  30.4430008  63.4370003   5.6599998  29.1840000  63.5789986   6.4949999
   1.1100000  29.9020004  63.6240005   1.0590000  29.6410007  62.6640015
   0.7420000  30.7830009  63.5690002  26.1180000  60.6780014   9.6840000
  26.2719994  61.4350014   9.1110001  25.1690006  60.9090004   9.9399996
  26.3090000  63.3050003   8.0660000  26.9619999  63.8899994   7.6799998
  25.9619999  62.8569984   7.2849998  20.6459999  60.8909988   6.2550001
  19.7630005  60.6559982   5.9759998  21.0240002  61.1570015   5.3420000
  74.9950027  33.6899986  52.2410011  75.7529984  34.3180008  52.0810013
  74.4599991  33.8549995  51.4749985  25.3029995  60.7900009   2.1689999
  25.9629993  60.1510010   1.7800000  25.0799999  61.2989998   1.3650000
  27.1420002  76.7080002  10.9049997  27.0890007  77.6439972  11.1599998
  27.7900009  76.7919998  10.1590004  21.8519993  29.8939991  70.3750000
  22.4489994  30.0960007  71.1169968  21.6879997  30.7660007  69.9530029
  38.2859993  67.1999969  14.6850004  37.8619995  67.9609985  15.1459999
  37.7540016  67.2239990  13.8330002  14.5579996  40.5449982   4.5739999
  14.2539997  40.4799995   5.4260001  13.7440004  40.8180008   4.0619998
  25.1100006  56.1529999  10.1020002  25.4930000  56.9379997  10.5860004
  24.3540001  55.9830017  10.8000002  25.6650009  57.4410019  13.4399996
  25.6000004  58.3580017  13.7209997  25.8920002  57.5769997  12.4940004
  24.5620003  70.2519989   5.0019999  25.0680008  69.4739990   4.7500000
  23.6250000  69.9710007   4.8270001  32.8160019  64.5899963   7.0570002
  32.5250015  64.7860031   7.9699998  32.9669991  65.5169983   6.8150001
  30.0559998  68.0569992  11.0480003  29.6250000  67.3430023  10.5200005
  29.6130009  68.8249969  10.7910004  22.2000008  45.9809990   8.4740000
  21.4839993  46.5219994   8.8100004  22.8220005  46.6279984   8.1580000
  58.6780014  17.7500000  51.1189995  59.2089996  18.6000004  51.1819992
  58.5309982  17.7180004  50.1669998  65.3880005  23.8640003  62.0120010
  66.0299988  24.2089996  62.6689987  65.4860001  24.4780006  61.2709999
  74.4459991  26.1219997  56.1380005  73.9319992  26.3330002  56.9480019
  75.3249969  26.3999996  56.4599991  39.8899994  50.7210007  -0.0510000
  38.9490013  50.5719986   0.1660000  39.9000015  51.5890007  -0.4250000
  25.8160000  64.3209991   3.3360000  26.3579998  63.4589996   3.5400000
  25.4060001  64.3769989   4.2240000  69.8259964   9.1980000  60.2610016
  70.1289978  10.0340004  59.7389984  69.8860016   9.6459999  61.1800003
  27.3610001  55.6949997   3.4920001  26.9710007  56.5950012   3.5500000
  27.0830002  55.4000015   4.4060001  24.7719994  56.0340004  -2.3989999
  25.0419998  55.0779991  -2.4200001  23.9020004  55.8829994  -2.0139999
  23.3789997  53.1790009   4.2789998  23.4060001  54.1570015   4.3889999
  22.8579998  52.9519997   5.0530000  27.7290001  48.6189995   3.8420000
  27.0349998  47.9179993   3.9570000  27.9659996  48.7480011   4.7700000
  10.5930004  27.9130001  67.8000031  10.2580004  27.8689995  66.8519974
   9.7650003  27.6200008  68.2470016  37.7270012  55.7010002  -0.3060000
  36.8829994  56.3019981  -0.2450000  38.2529984  56.1819992   0.3780000
  19.0949993  28.6940002  70.4240036  19.8869991  29.1770000  70.5859985
  18.8430004  28.9589996  69.5100021   5.9029999  26.0499992  54.3569984
   5.5990000  26.8530006  54.7709999   6.8620000  26.1910000  54.2599983
  28.4239998  56.2700005  -0.0260000  28.3190002  55.6650009  -0.7910000
  27.4750004  56.4140015   0.1580000  33.7000008  42.5929985  -0.5430000
  33.1969986  42.3839989  -1.3750000  33.7709999  43.5509987  -0.5650000
  30.4080009  52.6240005   0.0200000  31.3029995  52.8269997  -0.1410000
  30.0669994  53.4900017   0.3680000  26.0610008  54.3600006   8.4890003
  25.7600002  54.9620018   9.2379999  27.0259991  54.6920013   8.4870005
  34.6599998  66.2809982  19.1940002  33.7989998  66.7470016  19.0760002
  34.4720001  65.8870010  20.0960007  31.9260006  58.3089981  10.6920004
  32.0979996  58.9790001  10.0019999  32.7330017  58.3339996  11.2510004
  29.2509995  57.9099998   9.6770000  30.0790005  58.0820007  10.0530005
  29.1399994  58.4970016   8.8800001   0.9750000  30.0139999  60.7490005
   0.9200000  29.4249992  59.9490013   1.8770000  30.3759995  60.5629997
  66.1719971  25.2420006  64.9499969  66.4479980  24.3409996  64.7379990
  65.3509979  25.1130009  65.3939972   8.5760002  26.2929993  53.9739990
   8.6560001  26.8570004  53.1500015   9.1219997  25.5440006  53.7719994
  24.3710003  45.1389999  -4.8340001  23.4290009  45.1199989  -4.6980000
  24.7049999  45.7599983  -4.1650000   6.1849999  17.6310005  61.1500015
   5.7610002  16.9500008  60.6150017   6.8720002  17.0970001  61.5900002
  32.2690010  57.5740013   1.8099999  32.1189995  56.8429985   2.4619999
  31.4379997  58.0839996   1.9640000  18.7880001  69.9869995  10.1739998
  18.9340000  69.0510025  10.4600000  19.3120003  70.0049973   9.3529997
   6.8230000  12.5509996  59.3110008   7.6380000  13.0559998  59.5660019
   7.2340002  11.7720003  58.8829994  32.8619995  53.0670013   2.5250001
  33.4990005  52.3230019   2.7570000  33.0480003  53.0620003   1.5350000
  24.7369995  47.0349998   0.9160000  25.2430000  46.2060013   0.8990000
  25.2220001  47.6020012   0.2970000  31.8150005  55.3510017   3.3199999
  32.0859985  54.4290009   3.0590000  30.9050007  55.3289986   2.8859999
  31.3789997  56.1940002   5.9940000  31.4740009  55.9490013   5.0850000
  32.2080002  56.7229996   6.0949998  17.8379993  58.4630013  11.7889996
  18.1889992  58.5180016  12.7399998  16.8869991  58.7019997  12.0240002
  11.7299995  22.0750008  63.7589989  12.3260002  21.4890003  64.2829971
  11.0690002  21.4360008  63.4319992  31.9349995  69.5230026   6.8499999
  31.3190002  69.3939972   7.5549998  32.6730003  68.9329987   7.0760002
  76.1500015  21.8050003  64.5640030  76.3369980  22.7789993  64.6510010
  75.3180008  21.8090000  65.0970001  73.9240036  21.6930008  65.9550018
  73.1880035  21.2280006  65.5759964  73.8560028  21.5279999  66.9169998
  25.6490002  40.4059982   3.5920000  24.7129993  40.7290001   3.6259999
  25.9729996  40.8639984   2.8000000  30.2719994  47.0830002  -6.9010000
  31.0349998  46.5890007  -7.3330002  29.5970001  46.9640007  -7.6139998
  68.6959991  21.7980003  67.1159973  69.4690018  22.2980003  67.4089966
  68.2450027  21.6289997  67.9749985  71.9990005  22.4799995  60.2459984
  71.9489975  23.4209995  59.9589996  72.9509964  22.3810005  60.2820015
  68.8320007  23.8169994  62.9059982  69.0500031  24.5650005  63.4949989
  68.5739975  23.1620007  63.5410004  34.1520004  67.0920029  10.9779997
  34.0260010  66.5510025  11.7740002  33.4510002  67.7659988  11.0939999
  25.5639992  57.6920013   3.3480000  26.0009995  58.3429985   3.9089999
  24.8029995  57.4620018   3.9310000  69.6100006  31.9090004  70.7730026
  70.2639999  31.1840000  71.0719986  68.8229980  31.5979996  71.1910019
  37.3059998  47.1279984  -1.7020000  37.7999992  47.5810013  -0.9640000
  37.0130005  47.9710007  -2.1780000  28.4559994  49.3409996   1.3060000
  28.1930008  49.0320015   2.2149999  28.0540009  50.2570000   1.3559999
  24.9839993  51.2719994   3.4949999  24.3290005  52.0019989   3.5850000
  25.5380001  51.4389992   4.3049998  12.3039999  24.8549995  63.3880005
  11.8599997  24.0300007  63.7050018  13.0260000  24.9440002  64.0869980
  35.2010002  55.0410004   6.8319998  35.6739998  55.8600006   7.0409999
  34.7919998  54.8769989   7.7189999  18.1210003  51.9589996   5.3940001
  17.6149998  51.7070007   6.2100000  17.5860004  51.4749985   4.7189999
  59.8759995  79.3949966  55.9090004  59.8689995  78.4319992  55.6790009
  60.2550011  79.7900009  55.1230011  19.3770008  57.5390015   4.5570002
  20.1550007  58.0870018   4.3010001  19.0879993  57.1679993   3.6919999
   3.9340000  15.3690004  50.2360001   3.5430000  16.0030003  50.8209991
   3.9280000  15.7679996  49.3839989  18.3889999  68.9990005  14.0539999
  17.3950005  69.1809998  14.1700001  18.7280006  69.6100006  14.7189999
  32.7290001  59.5050011   4.3049998  33.3730011  60.2169991   4.4180002
  31.8829994  59.9480019   4.1890001  28.1720009  65.0739975   2.2340000
  27.1700001  64.9309998   2.2500000  28.1229992  65.9150009   1.7110000
  29.8710003  62.9389992  10.5830002  29.4169998  62.2709999  11.1820002
  30.1770000  62.2620010   9.9010000  11.3269997  28.0100002  59.2319984
  11.1689997  28.8579998  58.7179985  10.4329996  27.9440002  59.6459999
  23.2040005  68.6129990  15.6859999  23.2310009  69.2669983  16.3649998
  22.4829998  69.0090027  15.0799999  12.2159996  20.1860008  58.4410019
  12.3249998  20.0690002  59.3720016  11.6169996  19.4489994  58.2809982
   9.9890003  18.8659992  62.2050018   9.2250004  18.2549992  62.1769981
   9.7060003  19.4710007  61.4749985  19.8400002  56.6129990  11.2729998
  19.3050003  57.4560013  11.3360004  20.7140007  56.9830017  11.4139996
   0.5240000  11.4010000  50.7639999  -0.1450000  12.1020002  50.7000008
   1.3530000  11.9399996  50.6749992  40.7729988  55.4910011   2.3870001
  41.2379990  55.3650017   3.2210000  40.5009995  54.5660019   2.2230000
  28.1860008  55.7729988   8.6040001  28.5400009  56.5099983   9.1429996
  27.8020000  56.2949982   7.8730001  64.4440002  25.1049995  71.6529999
  65.4100037  25.2819996  71.4100037  64.6230011  24.4510002  72.3700027
  28.2010002  51.6040001  -5.6069999  28.5429993  52.4140015  -5.1220002
  28.9480000  50.9920006  -5.5539999  20.7000008  21.9549999  67.1589966
  21.3320007  22.1469994  67.9619980  21.3780003  21.9270000  66.4800034
  18.8929996  21.8120003  60.5989990  19.6329994  22.3500004  60.2620010
  18.2929993  21.8570004  59.8530006  20.5499992  55.3839989   8.5310001
  21.0660000  54.5519981   8.2760000  20.4130001  55.2010002   9.4750004
  37.4119987  63.5460014   9.1040001  38.3120003  63.4729996   9.4940004
  36.9889984  63.2000008  10.0080004  16.6299992  55.2919998   3.2760000
  17.5009995  55.4339981   3.7730000  17.0020008  55.0589981   2.4619999
  22.2140007  52.3139992   1.1109999  21.2900009  52.2309990   1.3240000
  22.6060009  52.2220001   1.9960001   5.2199998  29.9039993  66.9619980
   4.6440001  29.4069996  67.4619980   5.9489999  29.2329998  66.8140030
   3.7309999  40.1139984  63.2700005   3.8090000  39.6040001  62.4129982
   3.7700000  39.3909988  63.9480019  43.2789993  61.3600006  10.1230001
  43.2270012  60.7169991  10.9029999  42.9659996  60.7369995   9.4309998
   6.7430000  29.0349998  60.0060005   5.9710002  29.2679996  60.5660019
   6.2670002  28.8020000  59.1889992  40.0769997  76.3460007  12.6940002
  40.0219994  76.1689987  13.6440001  39.5600014  77.1930008  12.6300001
   9.8540001  42.4589996  74.2119980   9.6809998  43.3180008  73.7580032
  10.8389997  42.5979996  74.2760010  78.9390030  34.1250000  58.0169983
  78.6409988  33.2770004  58.3680000  78.1829987  34.4210014  57.4809990
  74.1299973  33.4529991  54.8870010  74.7229996  33.3330002  54.1059990
  74.1630020  32.5589981  55.2919998  36.1669998  72.3190002  14.0640001
  35.3129997  72.7580032  13.9099998  36.7159996  73.1060028  14.2189999
   3.2340000  32.3969994  53.9920006   2.8310001  32.1839981  53.0890007
   3.2379999  33.3370018  53.9029999  24.2169991  72.6660004  10.8090000
  24.8740005  72.0540009  11.1770000  24.5890007  73.5309982  10.9580002
  25.5219994  61.7509995   6.0279999  26.1009998  61.8610001   5.2040000
  24.9169998  61.0890007   5.6500001  57.2690010   9.1129999  21.6110001
  57.1399994   9.8030005  20.8950005  58.2220001   9.1529999  21.7759991
   7.7100000  35.7939987  71.5530014   8.3999996  35.3110008  72.0619965
   6.8889999  35.6090012  72.0869980  11.4600000  37.2120018  70.8619995
  11.3079996  36.6180000  70.0869980  10.6210003  37.7379990  70.7760010
  12.9420004  40.4189987  65.8460007  13.8660002  40.5229988  66.1279984
  12.6940002  39.6279984  66.2929993   3.1120000  40.6570015  66.7799988
   3.6520000  41.3750000  66.4110031   3.6010001  40.4099998  67.6119995
  71.6679993  29.1140003  62.6030006  72.2030029  29.7880001  63.1870003
  71.0599976  29.8299999  62.2570000  29.5039997  59.4830017  15.6470003
  29.5419998  59.5919991  14.7180004  28.8530006  60.0880013  16.0049992
  21.9130001  46.0569992  -4.4740000  21.3269997  45.4930000  -5.0720000
  21.2390003  46.2519989  -3.7909999  54.7570000  82.8349991  49.5070000
  54.2599983  82.8629990  50.3619995  54.1450005  82.2190018  49.0289993
  52.7360001  83.4010010  54.4020004  52.7050018  84.3450012  54.1040001
  51.9290009  83.2890015  54.9000015  22.2320004  44.6510010  -1.1660000
  22.4570007  45.6119995  -1.2520000  22.5400009  44.2680016  -1.9570000
  55.5200005  77.1539993  56.6749992  56.0999985  76.4069977  56.9749985
  55.3460007  77.5660019  57.5439987   9.9540005   6.2020001  52.0070000
  10.5200005   5.7199998  51.3750000  10.5080004   6.9689999  52.1759987
  45.3300018  77.7480011  58.9169998  46.2290001  77.4479980  59.2299995
  45.1230011  78.2949982  59.6759987  28.6149998  46.6969986  -1.4130000
  28.6140003  46.1529999  -2.2509999  29.4430008  47.2200012  -1.5770000
  27.3990002  51.7589989   2.4159999  27.1580009  52.5950012   2.0230000
  26.5100002  51.5169983   2.7950001   9.1470003  10.4029999  45.7980003
   9.0100002   9.6049995  46.3740005   8.9940004   9.9150000  44.9080009
   2.8829999  18.1229992  56.7019997   2.0170000  17.7520008  56.9230003
   3.4640000  17.2870007  56.8040009  56.7719994  74.8600006  57.4179993
  57.5110016  74.3290024  57.1010017  56.4830017  74.3079987  58.1829987
  61.7430000  78.5540009  45.8390007  61.5309982  79.5299988  45.6759987
  60.8530006  78.1689987  45.7309990   9.1040001  13.2110004  53.9749985
   8.5310001  12.3940001  54.0940018   9.8850002  12.7700005  53.5989990
  58.6940002  81.0400009  49.1310005  58.8540001  81.9769974  48.9210014
  58.5369987  80.6989975  48.2470016  14.2959995  20.5970001  55.8540001
  13.5860004  20.9920006  56.3269997  14.7340002  19.9960003  56.5239983
  32.4599991  43.8709984  -4.9720001  33.2360001  43.4640007  -5.4710002
  32.2229996  44.5740013  -5.6399999  53.0970001  75.3560028  56.5550003
  53.8180008  75.4550018  55.8759995  53.2439995  74.3830032  56.7200012
  63.4889984  76.3020020  46.3320007  63.6650009  76.0319977  45.3370018
  62.7680016  76.9250031  46.0559998  17.4300003  15.4659996  55.9329987
  17.6149998  15.8430004  55.0309982  16.4430008  15.3389997  55.8240013
  33.9269981  46.7570000  -4.0419998  34.0239983  45.8559990  -4.5100002
  34.2849998  46.5120010  -3.1640000  35.7179985  44.5239983  -4.5869999
  36.3390007  45.2680016  -4.6320000  35.9280014  44.1189995  -5.4770002
  31.5189991  33.4869995   4.1170001  30.9540005  34.1570015   3.6789999
  30.9729996  33.2589989   4.8899999  79.5630035  27.3910007  64.5429993
  78.8050003  27.6509991  65.0849991  80.0350037  28.2380009  64.4270020
  41.4539986  44.1220016   1.2620000  42.2019997  44.3440018   0.7760000
  41.0299988  44.9700012   1.4550000  25.8139992  43.3629990  -0.7060000
  26.6469994  42.8470001  -0.9210000  26.3110008  44.0709991  -0.1710000
  67.8150024   7.8909998  58.5979996  68.4680023   8.2449999  59.2960014
  67.1719971   8.6590004  58.6230011  19.2570000  22.1459999  63.2319984
  18.8610001  21.6499996  62.4780006  19.4950008  22.9710007  62.7980003
  48.3320007  75.7129974  54.8110008  48.9290009  75.9130020  55.5890007
  47.4869995  75.9430008  55.2290001   6.2989998  13.1160002  56.0519981
   6.7049999  12.1820002  56.0390015   6.4130001  13.3039999  57.0139999
  57.4160004  77.7300034  54.5610008  56.6969986  77.4520035  55.1899986
  56.9129982  77.8190002  53.7389984  47.0060005  81.9499969  59.1769981
  46.1790009  81.7649994  59.6080017  47.1069984  81.3190002  58.4669991
  39.1759987  57.4140015   1.3660001  39.6860008  56.6949997   1.8559999
  39.9329987  57.7299995   0.8010000  31.4740009  47.5499992  -1.8170000
  31.8379993  47.3390007  -2.7100000  31.8099995  48.4659996  -1.7070000
  31.5809994  39.4119987  -4.2049999  31.0200005  40.1640015  -4.3140001
  32.0940018  39.4360008  -4.9930000  12.6599998  15.9169998  58.1100006
  13.2449999  16.5620003  58.5379982  12.4940004  16.3400002  57.2709999
  69.5559998  16.6270008  63.5320015  68.6029968  16.5310001  63.4560013
  69.8750000  15.7309999  63.2859993  77.4440002  14.0400000  52.8059998
  78.0810013  14.1639996  52.1139984  77.9400024  14.1610003  53.6230011
  79.6320538  79.6320538  79.6320538 109.4712190 109.4712190 109.4712190
